104
Lattice="14.752975 0.0 0.0 0.0 12.828814 0.0 0.0 0.0 12.8717" Properties=species:S:1:pos:R:3:forces:R:3 energy=-571.0001664670443 hash=65caec19db865b84795faa891699f15e virial="26.5960839552 0.0 0.0 0.0 -8.69836786862 0.0 0.0 0.0 9.45073549841" config_type=rss_3c pressure=0.0037420489448516097 uploaded="2020-04-10 10:56:53.323000" hash_structure=f5bb3ec5005e822dba26f0166ed6c15a filename=rss_3c/rss_3c_mbd2.xyz username=gabor stress="-0.011143047220910553 3.843884286899132e-12 -2.028256548887911e-12 3.843884286899132e-12 0.0035831802391062028 1.290774523561557e-07 -2.028256548887911e-12 1.290774523561557e-07 -0.004717720238577481" volume=2436.138773885412 n_atoms=104 free_energy=-570.88456 modified="2020-04-10 10:56:53.323000" formula=P104 miguel_caro=T pbc="T T T"
P        5.55284000       1.54336000       4.79899000      -0.14979052       0.32745054      -0.04401358
P        3.40593000       1.92310000       4.54218000       0.02428608       0.31552934      -0.25486744
P        2.83521000      12.72241000       5.14557000      -0.75439405      -0.05427840      -0.02594746
P        0.61386000       0.19271000       4.91270000      -0.03517520      -0.38662314       0.28326730
P        6.32144000       3.56955000       4.26074000      -0.21252638      -0.40871631      -0.39395060
P        4.67563000       3.69629000       7.41183000       0.12771809       0.05124892      -0.07327579
P        2.84625000       3.29862000       6.23727000      -0.37287891      -0.29109320      -0.09711982
P        1.91349000       1.94200000       7.76613000      -0.01099497       0.06062799      -0.06445971
P        0.02843000       1.52844000       6.62131000      -0.01453187      -0.00177747       0.38539086
P        5.98915000       4.94149000       6.02491000       0.02525852      -0.21290053       0.28591007
P        5.84247000       1.90315000       6.94732000       0.49583407      -0.14877720       0.37244258
P        2.80712000      12.81238000       7.35081000      -0.09374972      -0.20416442       0.16912029
P        4.90134000       0.16568000       7.93271000       0.35328773      -0.17780361       0.57805918
P        9.20015000       4.87104000       4.79899000       0.14971157      -0.32747733      -0.04404956
P       11.34706000       4.49130000       4.54218000      -0.02430446      -0.31547897      -0.25490354
P       11.91778000       6.52081000       5.14557000       0.75427243       0.05424765      -0.02596530
P       14.13912000       6.22169000       4.91270000       0.03527729       0.38668887       0.28329336
P        8.43153000       2.84485000       4.26074000       0.21260222       0.40877222      -0.39392431
P       10.07734000       2.71812000       7.41183000      -0.12753351      -0.05140149      -0.07327174
P       11.90673000       3.11579000       6.23727000       0.37285388       0.29100417      -0.09705000
P       12.83948000       4.47241000       7.76613000       0.01115728      -0.06064254      -0.06446990
P       14.72456000       4.88597000       6.62131000       0.01432926       0.00171658       0.38545836
P        8.76383000       1.47291000       6.02491000      -0.02530104       0.21294939       0.28591805
P        8.91052000       4.51125000       6.94732000      -0.49597991       0.14890097       0.37235336
P       11.94585000       6.43084000       7.35081000       0.09388725       0.20418628       0.16909122
P        9.85164000       6.24872000       7.93271000      -0.35334386       0.17785945       0.57809045
P        5.55284000      11.28544000       1.63686000      -0.14979235      -0.32733044       0.04401564
P        3.40593000      10.90571000       1.89367000       0.02426893      -0.31555074       0.25486814
P        2.83521000       0.10640000       1.29028000      -0.75438147       0.05428436       0.02594090
P        0.61386000      12.63610000       1.52315000      -0.03517254       0.38670293      -0.28326332
P        6.32144000       9.25926000       2.17511000      -0.21250887       0.40864284       0.39396066
P        4.67563000       9.13252000      11.89572000       0.12771834      -0.05125110       0.07327036
P        2.84625000       9.53019000       0.19858000      -0.37289072       0.29109209       0.09711749
P        1.91349000      10.88681000      11.54142000      -0.01099825      -0.06060689       0.06446838
P        0.02843000      11.30038000      12.68624000      -0.01452758       0.00168417      -0.38539945
P        5.98915000       7.88732000       0.41094000       0.02525595       0.21289984      -0.28591691
P        5.84247000      10.92566000      12.36023000       0.49583494       0.14875868      -0.37245700
P        2.80712000       0.01643000      11.95674000      -0.09374330       0.20416156      -0.16912186
P        4.90134000      12.66313000      11.37484000       0.35328673       0.17780820      -0.57804704
P        9.20015000       7.95776000       1.63686000       0.14971677       0.32760518       0.04404152
P       11.34706000       8.33751000       1.89367000      -0.02432162       0.31548166       0.25488289
P       11.91778000       6.30800000       1.29028000       0.75428351      -0.05423018       0.02595782
P       14.13912000       6.60712000       1.52315000       0.03526999      -0.38668361      -0.28329886
P        8.43153000       9.98396000       2.17511000       0.21262130      -0.40884887       0.39391980
P       10.07734000      10.11070000      11.89572000      -0.12756195       0.05129739       0.07327307
P       11.90673000       9.71303000       0.19858000       0.37284815      -0.29107480       0.09708468
P       12.83948000       8.35641000      11.54142000       0.01113781       0.06054672       0.06449376
P       14.72456000       7.94284000      12.68624000       0.01432492      -0.00169868      -0.38545802
P        8.76383000      11.35590000       0.41094000      -0.02532776      -0.21292544      -0.28589772
P        8.91052000       8.31756000      12.36023000      -0.49593875      -0.14885540      -0.37235779
P       11.94585000       6.39797000      11.95674000       0.09391029      -0.20410391      -0.16911306
P        9.85164000       6.58009000      11.37484000      -0.35334186      -0.17785331      -0.57809040
P        9.20015000      11.28544000       8.07271000       0.14972485      -0.32735921       0.04404533
P       11.34706000      10.90571000       8.32952000      -0.02429735      -0.31557556       0.25489117
P       11.91778000       0.10640000       7.72613000       0.75427121       0.05430839       0.02593799
P       14.13912000      12.63610000       7.95900000       0.03527779       0.38669455      -0.28330270
P        8.43153000       9.25926000       8.61096000       0.21258550       0.40869951       0.39394100
P       10.07734000       9.13252000       5.45987000      -0.12756189      -0.05130541       0.07326713
P       11.90673000       9.53019000       6.63443000       0.37285603       0.29105368       0.09707881
P       12.83948000      10.88681000       5.10557000       0.01114735      -0.06059224       0.06448675
P       14.72456000      11.30038000       6.25039000       0.01432432       0.00168014      -0.38544018
P        8.76383000       7.88732000       6.84679000      -0.02530752       0.21289368      -0.28589278
P        8.91052000      10.92566000       5.92438000      -0.49594442       0.14881610      -0.37238838
P       11.94585000       0.01643000       5.52089000       0.09390542       0.20416277      -0.16910140
P        9.85164000      12.66313000       4.93899000      -0.35333111       0.17781972      -0.57808336
P        5.55284000       7.95776000       8.07271000      -0.14978426       0.32757641       0.04401183
P        3.40593000       8.33751000       8.32952000       0.02429319       0.31545683       0.25485987
P        2.83521000       6.30800000       7.72613000      -0.75439377      -0.05420615       0.02596074
P        0.61386000       6.60712000       7.95900000      -0.03516473      -0.38669199      -0.28325948
P        6.32144000       9.98396000       8.61096000      -0.21254467      -0.40879220       0.39393946
P        4.67563000      10.11070000       5.45987000       0.12771841       0.05124307       0.07327630
P        2.84625000       9.71303000       6.63443000      -0.37288284      -0.29111321       0.09712335
P        1.91349000       8.35641000       5.10557000      -0.01098871       0.06056137       0.06447539
P        0.02843000       7.94284000       6.25039000      -0.01452819      -0.00170271      -0.38541729
P        5.98915000      11.35590000       6.84679000       0.02527619      -0.21293160      -0.28592185
P        5.84247000       8.31756000       5.92438000       0.49582927      -0.14879797      -0.37242642
P        2.80712000       6.39797000       5.52089000      -0.09374817      -0.20410270      -0.16913352
P        4.90134000       6.58009000       4.93899000       0.35329748      -0.17784180      -0.57805408
P        9.20015000       1.54336000      11.23484000       0.14972303       0.32747931      -0.04404327
P       11.34706000       1.92310000      10.97803000      -0.02431451       0.31555416      -0.25489047
P       11.91778000      12.72241000      11.58142000       0.75428379      -0.05430242      -0.02594454
P       14.13912000       0.19271000      11.34855000       0.03528045      -0.38661476       0.28330668
P        8.43153000       3.56955000      10.69659000       0.21260301      -0.40877298      -0.39393095
P       10.07734000       3.69629000       0.97598000      -0.12756164       0.05130324      -0.07327256
P       11.90673000       3.29862000      12.67312000       0.37284422      -0.29105480      -0.09708114
P       12.83948000       1.94200000       1.33028000       0.01114408       0.06061333      -0.06447808
P       14.72456000       1.52844000       0.18546000       0.01432861      -0.00177344       0.38543159
P        8.76383000       4.94149000      12.46076000      -0.02531008      -0.21289437       0.28588594
P        8.91052000       1.90315000       0.51147000      -0.49594355      -0.14883463       0.37237396
P       11.94585000      12.81238000       0.91496000       0.09391183      -0.20416563       0.16909983
P        9.85164000       0.16568000       1.49686000      -0.35333211      -0.17781513       0.57809550
P        5.55284000       4.87104000      11.23484000      -0.14977906      -0.32744855      -0.04401987
P        3.40593000       4.49130000      10.97803000       0.02427603      -0.31545415      -0.25488051
P        2.83521000       6.52081000      11.58142000      -0.75438270       0.05422362      -0.02596822
P        0.61386000       6.22169000      11.34855000      -0.03517203       0.38669725       0.28325398
P        6.32144000       2.84485000      10.69659000      -0.21252560       0.40871555      -0.39394396
P        4.67563000       2.71812000       0.97598000       0.12768997      -0.05134717      -0.07327498
P        2.84625000       3.11579000      12.67312000      -0.37288857       0.29104257      -0.09708868
P        1.91349000       4.47241000       1.33028000      -0.01100818      -0.06065720      -0.06445153
P        0.02843000       4.88597000       0.18546000      -0.01453252       0.00172061       0.38541763
P        5.98915000       1.47291000      12.46076000       0.02524948       0.21295555       0.28594218
P        5.84247000       4.51125000       0.51147000       0.49587043       0.14884354       0.37242198
P        2.80712000       6.43084000       0.91496000      -0.09372514       0.20418508       0.16911168
P        4.90134000       6.24872000       1.49686000       0.35329948       0.17784793       0.57805413
104
Lattice="14.889483 0.0 0.0 0.0 12.391801 -1e-06 0.0 -2e-06 13.347013" Properties=species:S:1:pos:R:3:forces:R:3 energy=-570.1102164354393 hash=2a03cfe65dbe78e74669f4a756e0817d virial="26.3757318784 0.0 0.0 0.0 11.6352465281 -0.0 0.0 -0.0 5.35105200861" config_type=rss_3c pressure=0.005869352902749718 uploaded="2020-04-10 10:56:53.293000" hash_structure=389247ae759652655bed27dccf1a710e filename=rss_3c/rss_3c_mbd2.xyz username=gabor stress="-0.008792378750273356 1.207109683480585e-08 -3.37534737095197e-09 1.207109683480585e-08 -0.005879958509128237 -8.880671120339567e-08 -3.37534737095197e-09 -8.880671120339567e-08 -2.5483316584584766e-06" volume=2462.6241389572056 n_atoms=104 free_energy=-569.77517532 modified="2020-04-10 10:56:53.293000" formula=P104 miguel_caro=T pbc="T T T"
P       13.33855000       1.06165000      11.95313000      -0.35787818       0.19850776       0.18163090
P       11.16165000       1.34697000      11.59177000      -0.31939044       0.41844947       0.06383604
P       10.27593000      11.89413000      12.35433000      -0.25276573       0.32018983      -0.11655259
P        8.16584000       0.09854000      11.85261000       0.02482341      -0.15901481       0.51854220
P       13.77690000       3.12620000      11.20159000      -0.01209145       0.03527649      -0.42687587
P       12.15737000       3.40535000       0.98354000       0.07982428      -0.08809976       0.20954209
P       10.45252000       2.90202000      13.05469000      -0.03030619      -0.22437262      -0.40027081
P        9.40458000       1.86157000       1.37042000      -0.02812610      -0.13383205      -0.12768957
P        7.55619000       1.51609000       0.15572000       0.16187760      -0.06846727       0.39092943
P       13.37872000       4.56250000      12.87660000       0.09943353      -0.16439290      -0.22526218
P       13.41294000       1.59319000       0.76070000       0.62129261       0.06110063       0.16161650
P       10.24094000      12.20672000       1.19632000      -0.31151868      -0.23741655       0.17575244
P       12.35360000      12.32120000       1.74348000       0.23352619      -0.23335204       0.42518204
P        1.55096000       5.13427000      11.95313000       0.35808581      -0.19850737       0.18160645
P        3.72788000       4.84895000      11.59177000       0.31925144      -0.41836783       0.06386611
P        4.61360000       6.69360000      12.35433000       0.25274376      -0.32028898      -0.11658424
P        6.72369000       6.09738000      11.85261000      -0.02483402       0.15908568       0.51855011
P        1.11262000       3.06972000      11.20159000       0.01209336      -0.03529251      -0.42687922
P        2.73215000       2.79057000       0.98354000      -0.07972643       0.08817614       0.20952119
P        4.43701000       3.29390000      13.05469000       0.03022018       0.22437895      -0.40025906
P        5.48494000       4.33435000       1.37042000       0.02821310       0.13400901      -0.12770294
P        7.33334000       4.67984000       0.15572000      -0.16194173       0.06841587       0.39098168
P        1.51081000       1.63342000      12.87660000      -0.09952463       0.16440011      -0.22527954
P        1.47659000       4.60274000       0.76070000      -0.62131421      -0.06114160       0.16163101
P        4.64859000       6.38102000       1.19632000       0.31153045       0.23725479       0.17577619
P        2.53593000       6.26653000       1.74348000      -0.23351357       0.23336546       0.42517266
P        5.89381000       5.13427000       8.06739000      -0.35790144      -0.19848790      -0.18160143
P        3.71691000       4.84895000       8.42875000      -0.31942010      -0.41838307      -0.06386562
P        2.83119000       6.69360000       7.66619000      -0.25274408      -0.32026813       0.11660416
P        0.72110000       6.09738000       8.16790000       0.02481757       0.15911327      -0.51840224
P        6.33215000       3.06972000       8.81893000      -0.01198593      -0.03527234       0.42688882
P        4.71263000       2.79057000       5.68996000       0.07985349       0.08816928      -0.20945750
P        3.00778000       3.29390000       6.96583000      -0.03027372       0.22438942       0.40025380
P        1.95984000       4.33435000       5.30309000      -0.02811018       0.13400539       0.12767310
P        0.11145000       4.67984000       6.51779000       0.16185301       0.06838822      -0.39100605
P        5.93398000       1.63342000       7.14392000       0.09939941       0.16442508       0.22522717
P        5.96820000       4.60274000       5.91281000       0.62122671      -0.06117492      -0.16169788
P        2.79620000       6.38102000       5.47719000      -0.31161789       0.23723638      -0.17578399
P        4.90885000       6.26653000       4.93003000       0.23361437       0.23329095      -0.42521287
P        8.99570000       1.06165000       8.06739000       0.35810668       0.19853861      -0.18160490
P       11.17262000       1.34698000       8.42875000       0.31925746       0.41831555      -0.06383004
P       12.05834000      11.89413000       7.66619000       0.25272074       0.32025450       0.11657975
P       14.16843000       0.09854000       8.16790000      -0.02482108      -0.15900245      -0.51840029
P        8.55736000       3.12620000       8.81893000       0.01202985       0.03530780       0.42689232
P       10.17689000       3.40535000       5.68996000      -0.07969697      -0.08811472      -0.20944302
P       11.88175000       2.90202000       6.96583000       0.03019061      -0.22428726       0.40022406
P       12.92968000       1.86157000       5.30309000       0.02824639      -0.13385872       0.12765427
P       14.77808000       1.51609000       6.51779000      -0.16191824      -0.06844269      -0.39100690
P        8.95555000       4.56250000       7.14392000      -0.09947176      -0.16438144       0.22527577
P        8.92133000       1.59319000       5.91281000      -0.62135456       0.06105922      -0.16166056
P       12.09333000      12.20672000       5.47719000       0.31150150      -0.23743998      -0.17577765
P        9.98067000      12.32120000       4.93003000      -0.23351462      -0.23334273      -0.42522555
P        1.55096000      11.33017000       1.39388000       0.35808010      -0.19851893      -0.18161751
P        3.72788000      11.04485000       1.75524000       0.31924759      -0.41832715      -0.06383417
P        4.61360000       0.49770000       0.99268000       0.25271981      -0.32027067       0.11659874
P        6.72369000      12.29329000       1.49440000      -0.02483305       0.15900730      -0.51854541
P        1.11262000       9.26562000       2.14542000       0.01210656      -0.03525407       0.42691322
P        2.73215000       8.98647000      12.36347000      -0.07964596       0.08814108      -0.20949405
P        4.43701000       9.48980000       0.29233000       0.03024231       0.22439744       0.40014181
P        5.48494000      10.53025000      11.97659000       0.02818890       0.13398008       0.12775658
P        7.33334000      10.87574000      13.19129000      -0.16194329       0.06842433      -0.39097768
P        1.51081000       7.82933000       0.47041000      -0.09950934       0.16428632       0.22528152
P        1.47659000      10.79863000      12.58631000      -0.62131239      -0.06099073      -0.16165704
P        4.64859000       0.18512000      12.15069000       0.31153247       0.23723077      -0.17577474
P        2.53593000       0.07063000      11.60353000      -0.23352177       0.23326991      -0.42516946
P       13.33855000       7.25756000       1.39388000      -0.35788797       0.19842518      -0.18164238
P       11.16165000       7.54288000       1.75524000      -0.31939831       0.41831931      -0.06380671
P       10.27593000       5.69823000       0.99268000      -0.25273421       0.32024489       0.11659267
P        8.16584000       6.29444000       1.49440000       0.02482412      -0.15898501      -0.51854129
P       13.77690000       9.32210000       2.14542000      -0.01209119       0.03533905       0.42689618
P       12.15737000       9.60125000      12.36347000       0.07977592      -0.08811705      -0.20949974
P       10.45252000       9.09792000       0.29233000      -0.03030499      -0.22430545       0.40013872
P        9.40458000       8.05747000      11.97659000      -0.02809454      -0.13389260       0.12773547
P        7.55619000       7.71199000      13.19129000       0.16186560      -0.06851857      -0.39094990
P       13.37872000      10.75840000       0.47041000       0.09943624      -0.16436627       0.22526285
P       13.41294000       7.78909000      12.58631000       0.62129188       0.06111453      -0.16162167
P       10.24094000       6.01081000      12.15069000      -0.31153064      -0.23732116      -0.17577213
P       12.35360000       6.12530000      11.60353000       0.23351332      -0.23337130      -0.42518258
P        8.99570000       7.25755000       5.27962000       0.35809605       0.19855168       0.18170015
P       11.17262000       7.54288000       4.91827000       0.31923820       0.41831533       0.06374062
P       12.05834000       5.69823000       5.68082000       0.25273178       0.32023593      -0.11647422
P       14.16843000       6.29444000       5.17911000      -0.02480380      -0.15898933       0.51848544
P        8.55736000       9.32210000       4.52808000       0.01203960       0.03530415      -0.42689019
P       10.17689000       9.60125000       7.65705000      -0.07969464      -0.08809840       0.20947654
P       11.88175000       9.09792000       6.38118000       0.03019979      -0.22427891      -0.40020483
P       12.92968000       8.05747000       8.04392000       0.02822314      -0.13383006      -0.12758960
P       14.77808000       7.71199000       6.82923000      -0.16189785      -0.06848764       0.39093239
P        8.95555000      10.75840000       6.20309000      -0.09949102      -0.16440440      -0.22523808
P        8.92133000       7.78909000       7.43421000      -0.62136280       0.06105737       0.16155423
P       12.09333000       6.01082000       7.86983000       0.31150281      -0.23746870       0.17567798
P        9.98067000       6.12530000       8.41699000      -0.23352107      -0.23336240       0.42518578
P        5.89381000      11.33017000       5.27962000      -0.35789202      -0.19850114       0.18169301
P        3.71691000      11.04485000       4.91827000      -0.31940967      -0.41837875       0.06377350
P        2.83119000       0.49770000       5.68082000      -0.25273248      -0.32025344      -0.11649341
P        0.72110000      12.29329000       5.17911000       0.02479426       0.15901249       0.51847249
P        6.33215000       9.26562000       4.52808000      -0.01199602      -0.03527284      -0.42688685
P        4.71263000       8.98647000       7.65705000       0.07984727       0.08815192       0.20949068
P        3.00778000       9.48980000       6.38118000      -0.03028459       0.22438516      -0.40023476
P        1.95984000      10.53025000       8.04392000      -0.02808577       0.13399724      -0.12761575
P        0.11145000      10.87574000       6.82923000       0.16185837       0.06842531       0.39086912
P        5.93398000       7.82932000       6.20309000       0.09941925       0.16445266      -0.22519117
P        5.96820000      10.79864000       7.43421000       0.62123345      -0.06116255       0.16159391
P        2.79620000       0.18512000       7.86983000      -0.31162195       0.23725064       0.17569223
P        4.90885000       0.07063000       8.41699000       0.23362096       0.23330627       0.42517176
104
Lattice="12.943911 0.24864 -0.016578 0.24758 13.078507 -0.10008 -0.023239 -0.133746 16.279084" Properties=species:S:1:pos:R:3:forces:R:3 energy=-568.6163882102549 hash=e4724269cb8291177014383e86479694 virial="9.43688046502 -2.29643045408 -1.48755793306 -2.29643045408 17.2412984863 -0.689551531013 -1.48755793306 -0.689551531013 -1.39997563866" config_type=rss_3c pressure=0.0030588429534144515 uploaded="2020-04-10 10:56:53.299000" hash_structure=2f85a93544bd858272d2942ccbbe2898 filename=rss_3c/rss_3c_mbd2.xyz username=gabor stress="-0.0030674862957342486 -5.268537086954693e-06 0.00036445988376387456 -5.268537086954693e-06 -0.0051602551514391805 0.0004955785451617855 0.00036445988376387456 0.0004955785451617855 -0.005200824211168167" volume=2754.658509512892 n_atoms=104 free_energy=-568.50559371 modified="2020-04-10 10:56:53.299000" formula=P104 miguel_caro=T pbc="T T T"
P       11.56466000      11.71978000       2.43582000      -0.17917289       0.12702478      -0.59013428
P       11.51399000      10.28244000       4.11301000      -0.02276587      -0.59133113      -0.06048113
P       11.50866000      11.84246000       5.67230000      -0.15336452      -0.05800748       0.67073642
P       11.32961000      10.55544000       7.56835000      -0.16172328       0.27464581       0.17075694
P       11.36653000      10.43519000       0.54418000      -0.07101759       0.21542827      -0.27599447
P        8.41953000      10.30399000       2.34860000       0.66649018      -0.24540726      -0.05783971
P        9.47892000       9.35829000       4.07124000      -0.37591834      -0.10224723       0.01440661
P        8.37528000      10.36833000       5.72777000       0.73274846      -0.29017589       0.22059148
P        9.52161000       9.27819000       7.32820000      -0.74239653      -0.29308893      -0.17582688
P        9.55102000       9.18788000       0.76564000      -0.75502845      -0.67511136       0.23958195
P        9.42757000      12.27072000       2.11207000      -0.00197922       0.36095054       0.18864956
P        9.36073000      12.35953000       5.93696000      -0.06383221       0.28484448      -0.23688505
P        8.55582000      12.90350000       3.99024000      -0.56100871       0.54887165       0.03624993
P        1.67220000       1.41810000       2.34905000       0.15286756       0.06390252      -0.67629574
P        1.66806000       2.97743000       3.90906000       0.01192970       0.58588885       0.06783827
P        1.61706000       1.53883000       5.58569000       0.17916599      -0.11790398       0.59364328
P        1.81424000       2.82386000       7.47870000       0.05064503      -0.22462886       0.26330917
P        1.84999000       2.70680000       0.45327000       0.15787738      -0.27158527      -0.16548847
P        4.80419000       2.89448000       2.29303000      -0.72695368       0.28640870      -0.21635653
P        3.70225000       3.90173000       3.95210000       0.37993929       0.10594001      -0.01710376
P        4.76254000       2.95520000       5.67444000      -0.67153686       0.24892848       0.05249890
P        3.62796000       4.07029000       7.25545000       0.77454365       0.69574111      -0.22953287
P        3.65850000       3.98484000       0.69258000       0.73882437       0.28145253       0.17984411
P        3.81996000       0.90254000       2.08223000       0.06581248      -0.28781909       0.24594993
P        3.75452000       0.98849000       5.90958000      -0.00185665      -0.36185125      -0.19704263
P        4.62487000       0.35887000       4.02936000       0.56520586      -0.55811155      -0.02709789
P       11.41600000       1.89460000      13.69041000      -0.18327014       0.27968941       0.55072696
P        9.95914000       2.00931000      12.04039000      -0.72872166       0.01201340       0.01946292
P       11.45166000       2.02195000      10.44108000      -0.27437819       0.26306919      -0.71417492
P       10.03836000       2.21202000       8.63452000       0.54527514       0.11148690      -0.19331012
P       10.04498000       2.01667000      15.52042000       0.22852325      -0.04174138       0.54141687
P        9.97948000       5.06385000      13.83963000      -0.22005368      -0.69031837       0.11679220
P        9.02188000       4.06409000      12.10844000       0.08186260       0.06229229       0.07982991
P        9.95475000       5.17064000      10.43283000      -0.23058245      -0.50204908      -0.17394600
P        8.74879000       4.00422000       8.89693000       0.00764951       0.75512691       0.29125804
P        8.76321000       3.83317000      15.32729000      -0.00643224       0.83184493      -0.34103253
P       11.95476000       4.03374000      14.03792000       0.24159265       0.08148926      -0.06393517
P       11.94706000       4.18053000      10.21152000       0.26644277       0.05286099      -0.01539584
P       12.64760000       4.88573000      12.15138000       0.54131335       0.44686089       0.04269808
P        1.70872000      11.10480000      13.86087000       0.27405085      -0.25658776       0.72493948
P        3.20044000      11.11226000      12.26045000       0.72872016      -0.02654582      -0.01565017
P        1.74096000      11.23315000      10.61258000       0.18037527      -0.28443630      -0.54681801
P        3.10908000      11.10916000       8.78138000      -0.22073563       0.04098348      -0.54229486
P        3.12012000      10.91159000      15.66957000      -0.54329514      -0.09502932       0.18055955
P        3.19611000       7.95153000      13.87593000       0.23808527       0.49756733       0.15708699
P        4.12529000       9.05142000      12.19393000      -0.06034482      -0.04644370      -0.09085416
P        3.16668000       8.05938000      10.45833000       0.23776668       0.68627153      -0.10086339
P        4.39014000       9.29231000       8.97700000       0.00169638      -0.83328489       0.34261142
P        4.40873000       9.11986000      15.40567000      -0.01435079      -0.76077579      -0.29080143
P        1.20749000       8.94784000      14.09532000      -0.28324934      -0.04647209       0.00156795
P        1.19460000       9.09534000      10.26306000      -0.24677463      -0.07355825       0.07853338
P        0.50942000       8.24536000      12.15346000      -0.54656450      -0.45545942      -0.04807638
P       10.84316000       2.22637000       2.48414000      -0.35548722       0.25825540       0.20761879
P       11.28758000       3.80122000       3.98025000       0.46318069      -0.34206949       0.08929492