2
Lattice="20.0 0.0 0.0 0.0 20.0 0.0 0.0 0.0 20.0" Properties=species:S:1:pos:R:3:forces:R:3 energy=-8.069001537232367 cutoff=-1.0 nneightol=1.2 stress="-0.0024441669951392507 -0.0 -0.0 -0.0 -0.0 -0.0 -0.0 -0.0 -0.0" pbc="T T T"
P       10.85000000      10.00000000      10.00000000      11.50197024       0.00000000       0.00000000
P        9.15000000      10.00000000      10.00000000     -11.50197024       0.00000000       0.00000000
2
Lattice="20.0 0.0 0.0 0.0 20.0 0.0 0.0 0.0 20.0" Properties=species:S:1:pos:R:3:forces:R:3 energy=-8.86284954230829 cutoff=-1.0 nneightol=1.2 stress="-0.0010556732760539978 -0.0 -0.0 -0.0 -0.0 -0.0 -0.0 -0.0 -0.0" pbc="T T T"
P       10.90000000      10.00000000      10.00000000       4.69188897       0.00000000       0.00000000
P        9.10000000      10.00000000      10.00000000      -4.69188897       0.00000000       0.00000000
4
Lattice="20.0 0.0 0.0 0.0 20.0 0.0 0.0 0.0 20.0" Properties=species:S:1:pos:R:3:forces:R:3 energy=-11.601490831985293 cutoff=-1.0 nneightol=1.2 stress="-0.003882240099370791 -0.0 -0.0 -0.0 -0.0038822400993708747 8.504308368628699e-17 -0.0 8.504308368628699e-17 -0.003149944455748894" pbc="T T T"
P       11.10000000      10.00000000       9.57218260      14.11726261       0.00000000     -14.72567021
P        8.90000000      10.00000000       9.57218260     -14.11726261       0.00000000     -14.72567021
P       10.00000000      11.10000000      10.42781740       0.00000000      14.11726261      14.72567021
P       10.00000000       8.90000000      10.42781740       0.00000000     -14.11726261      14.72567021
4
Lattice="20.0 0.0 0.0 0.0 20.0 0.0 0.0 0.0 20.0" Properties=species:S:1:pos:R:3:forces:R:3 energy=-17.182746178599587 cutoff=-1.0 nneightol=1.2 stress="0.0005538642847260042 -0.0 -2.7755575615628914e-20 -0.0 0.0005538642847262639 1.9206858326015207e-17 -2.7755575615628914e-20 1.9206858326015207e-17 0.0018064731552909416" pbc="T T T"
P       11.10000000      10.00000000       8.82218260      -2.01402766       0.00000000       3.06747842
P        8.90000000      10.00000000       8.82218260       2.01402766       0.00000000       3.06747842
P       10.00000000      11.10000000      11.17781740       0.00000000      -2.01402766      -3.06747842
P       10.00000000       8.90000000      11.17781740       0.00000000       2.01402766      -3.06747842
4
Lattice="20.0 0.0 0.0 0.0 20.0 0.0 0.0 0.0 20.0" Properties=species:S:1:pos:R:3:forces:R:3 energy=-16.087348618607688 cutoff=-1.0 nneightol=1.2 stress="0.001289079305474943 -2.168404344971009e-22 -0.0 -2.168404344971009e-22 0.001289079305474731 -7.570333249162786e-18 -0.0 -7.570333249162786e-18 -0.00012310979936118092" pbc="T T T"
P       11.10000000      10.00000000       8.37218260      -4.68753748      -0.00000000      -0.15127238
P        8.90000000      10.00000000       8.37218260       4.68753748      -0.00000000      -0.15127238
P       10.00000000      11.10000000      11.62781740       0.00000000      -4.68753748       0.15127238
P       10.00000000       8.90000000      11.62781740       0.00000000       4.68753748       0.15127238
248
Lattice="19.207643 0.0 0.0 0.0 19.207643 0.0 0.0 0.0 19.207643" Properties=species:S:1:pos:R:3:forces:R:3 energy=-1311.0368844943835 hash=0a52d05be110f62b0b8ba1dd06f580af virial="0.494352900131 -7.65209813893 7.72109612803 -7.65209813893 14.1363610828 -13.2346104406 7.72109612803 -13.2346104406 19.6957855958" config_type=liq_12_03_01_liqP4 pressure=0.0016146784108647724 uploaded="2020-04-10 10:56:38.097000" hash_structure=7256de5227695c2198da4cf346617eea filename=liq_12_03_01_liqP4/liq_12_03_01_liqP4_mbd2.xyz username=gabor stress="-0.0008422698337624884 0.0006378246811968386 -0.0013270018182474346 0.0006378246811968386 -0.0016345993923568987 0.0021840268777480578 -0.0013270018182474346 0.0021840268777480578 -0.0032138215648480416" volume=7086.343911736328 n_atoms=248 free_energy=-1310.85738039 modified="2020-04-10 10:56:38.097000" formula=P248 miguel_caro=T pbc="T T T"
P       19.07786000       1.83802000       2.14603000       0.84335890       0.40950114      -0.19369852
P        1.84009000       2.77358000       1.36927000      -0.96765829      -1.07291019       0.71035501
P        1.74336000       0.66243000       2.09671000      -0.35103714      -0.78780766      -1.24014559
P        1.56765000       2.19952000       3.55407000      -0.16678382       0.84923828      -0.09429444
P       17.28258000      18.89348000       5.16478000      -0.20692149       0.86837666       0.83325116
P       15.20283000      18.88955000       4.58162000      -0.55149791       0.54083431      -1.71128556
P       16.13352000       1.63244000       5.24472000      -0.22888878      -0.62624589      -0.76656176
P       15.56991000       0.04130000       6.60745000       0.92294322      -0.39805876       1.44233241
P        2.46893000       6.49209000       9.63336000      -0.58970711       0.51547819       0.32310009
P        0.67446000       6.85221000      11.06187000       0.94167634       1.15778503       0.44212772
P        1.57443000       4.92107000      10.78613000       1.08482944      -1.93959562       1.81208486
P        0.45238000       5.76483000       9.27418000      -1.57368846      -0.23022855      -2.95954892
P        2.46336000      18.93916000      13.69707000      -0.43519132       1.06196209       0.03651310
P        0.72883000       0.26124000      12.17388000       1.68969238      -1.67778499       1.66813293
P        1.05738000      17.37769000      13.20124000      -0.52639408       0.73590789      -0.94450180
P        2.49231000      18.17408000      11.69484000      -0.10236307      -0.50749279      -0.55404660
P        1.38800000       9.37700000       6.05427000       0.21082870      -0.39526522      -0.97177535
P        2.10276000       9.39052000       3.85828000      -1.51725058       0.05526411       1.45910583
P        1.78441000      11.24473000       4.98965000      -0.47297008      -0.02758407      -0.27126346
P       19.02665000      10.08705000       4.61127000       2.70504611      -0.50186012      -0.30004431
P       17.12988000       8.17216000       9.35508000      -1.06842220      -0.08576675      -0.63937900
P       16.12170000       6.39269000       8.45186000       0.00692908       0.51342019       0.01523204
P       15.74389000       8.45077000       7.56637000       0.11061776      -1.25527014       0.87881773
P       14.90429000       7.89065000       9.53083000       0.60507727      -0.09109038       0.13672960
P        3.95699000       6.81330000      12.71951000      -1.16045340       0.43229214       0.30130477
P        5.58345000       8.01383000      12.12671000       1.82420403       0.65809990       0.39721443
P        4.26220000       8.76199000      13.83772000      -0.06048205      -0.50069583      -2.21474493
P        3.67527000       8.78640000      11.58075000      -0.57049209      -0.40479079       1.38445177
P        1.01983000       8.93949000      14.88483000      -1.69076953      -0.49363676      -0.57061079
P        2.45900000       8.55236000      16.32550000       0.65444120      -1.14666422       1.54665349
P        1.53976000       6.79518000      15.20026000       0.24546220       0.95416736       0.68554423
P        0.39531000       7.81703000      16.83387000       0.56586916       0.51777386      -1.13498158
P        6.11089000      12.48537000       4.19445000       0.85152533      -2.48458438       1.54118263
P        5.05776000      13.62600000       2.84621000      -0.67756264       1.95418392      -0.77779272
P        6.35435000      14.57964000       4.48239000      -0.78967775       0.26414623      -0.42688378
P        4.35606000      13.64102000       4.95309000       0.90414847      -0.40479010      -0.64630076
P        9.90000000      12.31790000       7.53923000      -0.59589371       0.76964186       0.04163690
P        8.94634000      14.24892000       6.79370000      -0.34296091      -1.29202598       0.82404319
P        8.91260000      13.71602000       9.04242000      -1.02242201      -1.13034221      -2.54558616
P        7.66022000      12.40318000       7.32798000       1.55967767       1.65245186       1.49207771
P        2.69679000      14.27808000      15.94839000      -1.30649630      -0.55677898      -0.35857028
P        2.86109000      12.91954000      14.26064000       1.61144443      -0.08898577      -1.54061480
P        1.32900000      14.50106000      14.14683000       0.36859995      -0.23484356       0.49397010
P        1.11737000      12.66089000      15.38832000      -0.65531761       0.81504390       1.21749856
P        0.19580000      11.36124000      18.52324000      -0.71357507      -0.18211956      -1.06937421
P        0.73462000      13.00233000       0.61568000      -0.12841793      -0.11397690       0.38401061
P        1.50957000      10.97325000       0.94404000       0.85863203      -0.06997689       0.74234118
P       18.60458000      11.35195000       1.36954000       0.30335144       0.42986227      -0.32325858
P        1.19715000      17.04527000       4.98874000       0.94576884      -0.25929687       0.45392616
P       18.42777000      16.21705000       5.00572000      -0.73242070      -1.17707238       1.03689989
P        0.94096000      14.88444000       4.38589000      -0.03156337       0.49907486       0.71974026
P        0.21693000      16.52856000       3.16165000      -0.01122079       0.42564645      -2.02419936
P        1.01236000       9.92171000       9.41814000      -0.46401038      -1.72298612       0.06297736
P        2.74727000      11.18371000       9.52578000      -0.05852215       0.75202478       0.77838565
P        0.64855000      11.77436000      10.43653000       1.80607927       0.75862120      -0.26682424
P        1.06560000      11.70892000       8.28212000      -0.35837710       1.05290616      -1.33586474
P        3.80117000      14.58010000       9.21055000       1.59364704       0.12598627       2.10306719
P        2.24618000      16.10580000       9.15115000      -0.10422046      -0.69491896      -1.13497665
P        3.10839000      14.84849000       7.29066000      -1.77321889       1.97617946      -0.37710558
P        4.19877000      16.60672000       8.25185000      -0.27699665      -1.25064968       0.16625633
P       18.95602000      17.58850000      16.76564000       2.25596082       0.03976180      -0.46620083
P        0.17738000      16.52856000      18.76414000      -1.24240022       1.36280363      -1.03263514
P       17.30463000      17.17667000      17.94221000      -0.78349808      -1.27288980       1.58589738
P       18.68312000      18.71819000      18.61599000       0.62661694      -0.35379139       0.30628446
P        3.75807000       6.26861000      18.83772000      -0.59425257       0.55936078       0.43711564
P        2.61018000       7.54484000       1.11055000       0.15012707       0.72148906      -0.56079220
P        3.24836000       5.54686000       1.67318000      -0.19633287      -0.26971775      -0.06778938
P        1.62066000       5.81509000       0.21568000       0.37220700       0.02787428      -0.40995315
P        5.73652000       1.66169000       1.67546000      -0.20509101       1.06738020       1.02357474
P        6.35060000       3.33481000       0.45547000      -0.07042540       0.56994655      -1.75441905
P        7.57211000       2.81834000       2.13116000       1.48111530      -1.45150282      -0.67488792
P        5.87254000       3.90499000       2.45391000      -2.76705759       0.20233624       0.73068171
P        5.42576000       3.49020000      10.25292000       0.78971765       1.07591180       0.56125303
P        7.27570000       2.17394000      10.41615000      -1.84611584      -0.07948019      -1.14468733
P        5.46932000       1.76824000       8.99459000       0.52063563      -1.13320978       0.22125631
P        5.29405000       1.57762000      11.22531000       0.09192034      -0.46377869      -0.35648246
P        3.35427000       1.64202000      17.24673000      -0.12734228       1.35603903      -0.18018781
P        3.59075000       3.92502000      16.73871000      -0.78726323      -0.79536611       0.14135740
P        2.51259000       2.49734000      15.35809000       0.31336179       0.40077972       0.34662996
P        4.70537000       2.43007000      15.66162000      -0.49079038      -1.22815188       0.79780624
P        6.00329000       7.31035000       2.68615000       0.60267616       0.30173950       0.37453108
P        5.65367000       9.45857000       3.28249000       0.31183137      -0.70346930       0.03141122
P        5.80178000       8.87166000       1.18198000      -0.18993452       0.08498508      -0.68236131
P        7.62584000       8.86331000       2.39779000      -0.92078447      -0.52393142       0.82082959
P        4.12384000       5.69345000       5.02247000      -0.32483096      -0.47366291      -0.03794097
P        2.54302000       4.19741000       5.60064000      -0.48761804       0.51159721      -0.24323704
P        3.89429000       5.02163000       7.08019000       0.39119698       0.06159554       0.79698676
P        4.63139000       3.59978000       5.52944000       0.37030695      -0.12086071       0.22557472
P        7.16902000       4.87340000      14.62399000       0.01555015      -0.32368136      -0.69409621
P        7.99426000       2.85086000      14.67026000      -0.51547017      -0.07087914       1.06135948
P        8.00457000       3.76558000      12.78294000       0.11565884       1.99548441      -0.72202417
P        6.05554000       3.22750000      13.59782000       0.60623035       0.82107015      -0.40207206
P        5.93879000       7.92982000      16.15797000       0.88091187       0.05082796       0.29032210
P        7.04761000       9.53081000      17.26331000       0.49625690      -0.78947765      -1.41399196
P        7.50927000       9.02606000      14.99429000       0.27280962      -0.96687407       2.48201921
P        8.04625000       7.56964000      16.84954000      -0.66837227       1.30512226      -1.35738301
P        4.94900000       8.97033000       8.68462000      -0.01782526       2.89871128       2.98274589
P        4.30612000       8.13572000       6.96665000      -1.74397032      -2.11414409      -2.78240217
P        6.42211000       8.21559000       7.41553000       1.16732650      -0.13199854      -1.53279824
P        5.27188000      10.02001000       6.64058000       0.62833500      -0.17249085       1.44457362
P       12.80679000      14.04805000      13.05353000       0.33478918      -1.37043859      -1.41004799
P       10.75922000      14.57376000      12.07256000       0.59723549      -1.17246098      -0.62000002
P       12.40551000      15.95804000      12.13510000       0.87684008       1.43843372      -0.52241501
P       11.41981000      15.30227000      13.95082000      -1.16872004       1.68977192       1.96076232
P        8.03025000      13.40002000      12.30374000      -1.84773861      -0.64065780       0.02377003
P        6.64961000      11.78925000      13.22450000       0.82294646       0.24993382      -1.28589326
P        7.13134000      11.85532000      10.93656000       0.77087829      -0.92136396       0.85770277
P        5.78934000      13.24394000      11.81660000       0.04852180       1.21549557       0.46210954
P        4.09323000      13.02198000      18.91425000       1.00881927      -0.60106752      -0.75500247
P        5.98284000      11.70095000      18.94398000       0.13538746       1.23771383       0.56748883
P        5.46713000      12.80773000      17.08314000      -0.02421612       0.85324308       0.68698539
P        4.32896000      11.12687000      17.74827000      -1.78937804      -0.99782685      -0.18886516
P        5.05559000      16.96031000       4.90175000      -0.96814649       1.97546798      -1.66493297
P        5.77822000      17.89196000       2.94540000       0.21486087      -0.35949716       0.61420599
P        4.94873000      19.19351000       4.50598000      -0.09277556      -0.36662434      -0.15550285
P        3.61741000      17.96637000       3.18682000       1.13249944      -0.62411389       1.48482294
P        0.99805000       0.25706000       8.63286000       0.25315274       0.39347713      -0.39649332
P        1.84415000       2.32447000       8.51112000       0.17295820      -0.74788899      -0.59421458
P        2.82366000       0.61126000       7.39644000      -0.37713477       0.36325758       0.47736708
P        0.88468000       1.38543000       6.71146000       0.01915433       0.18818946       0.41886186
P        5.76379000      16.61532000      12.49207000       1.71107547       0.65056530      -0.46410490
P        6.89284000      18.36218000      13.30051000       0.06123996      -0.35298941      -0.55913690
P        8.05816000      17.05147000      11.85371000      -2.41713987      -0.22989201       0.86520321
P        7.45823000      16.35327000      13.88960000      -0.10001558      -0.06440006      -0.61274060
P        5.17089000      18.70417000      18.39844000       0.03898290      -0.16422818      -0.19320100
P        4.29921000      17.60734000      16.68145000      -0.82486751       0.53654105      -0.35592795
P        3.66363000      17.11822000      18.77146000       0.51620565      -0.01338531      -0.72490897
P        5.69981000      16.61851000      17.92467000       0.17858442      -0.56631585       1.17105733
P       11.22598000       4.75562000       0.52796000      -0.85941630      -0.52539390       0.99535046
P        9.93014000       6.37344000      19.08786000       0.37315750       0.76770308       0.44776671
P       11.47311000       6.67458000       1.53461000       0.31683960       0.61309572      -0.67487073
P        9.59330000       5.70135000       1.96221000       0.36566809      -1.14826776      -0.76521967
P       13.37881000       1.11059000       9.08733000       0.51320679      -0.24744530       0.44804543
P       11.75761000       0.80025000       7.67933000      -0.25031288      -1.02991863      -0.77781900
P       12.14276000       2.75668000       8.37330000      -0.06317938       1.37858363       0.96226091
P       11.29240000       1.22808000       9.80404000      -0.06254055       0.82730362      -1.29037265
P       12.24635000       1.09512000      12.66199000      -0.75290425      -0.75998981      -0.13074526
P       11.42555000      18.95326000      14.18471000      -0.33544113      -0.20824105      -0.18967275
P       10.49367000      18.88655000      12.07665000       1.10276164       0.48748238       1.88194431
P       10.20658000       1.44516000      13.47368000       0.93592683      -1.24324810      -0.98433920
P        8.86675000       2.64612000      17.78822000       1.11452993      -1.59367220       0.30449630
P        8.52097000       0.89704000      16.51900000      -1.02644337      -0.86156321      -0.49494401
P        9.08289000       0.40184000      18.52637000       0.92145246       1.31644858       0.02474734
P       10.58322000       1.28693000      17.01063000      -0.90609238       0.41392281       1.27873820
P       11.96338000       8.97750000       5.44827000      -0.61042900       0.97275924       1.26972070
P       11.69152000       9.50398000       3.42885000      -0.56065714       0.18215130      -1.11486060
P       11.37769000      11.17190000       4.84640000      -0.27530564      -1.63035280       0.34059093
P        9.87307000       9.44157000       4.74175000       1.36779832       0.51500465      -0.33943666
P        7.55811000       3.09112000       7.15441000       0.15857419      -0.28132331      -0.88655221
P        9.65009000       3.68199000       6.76873000      -0.01567827       0.04180441      -0.27536972
P        8.06466000       5.18320000       6.92929000       0.10529701       0.44324178      -0.35048739
P        8.19354000       3.92545000       5.11067000      -0.38068030      -0.09595034       1.25705722
P       10.81156000       6.90340000      10.11828000      -0.29035077       0.02164732      -1.34799958
P        9.33618000       7.97780000      11.22671000      -0.84846659       0.80043403       1.53974551
P        8.63184000       6.58352000       9.72151000      -0.24566246      -1.36944495       0.56543164
P        9.40589000       8.45430000       9.11547000       1.34188696       0.53753467      -0.33733003
P       13.15428000      10.56645000      14.22044000      -0.38109265       0.88703212       0.67509076
P       11.21571000      10.51292000      13.24626000      -0.50597869      -0.02297916       0.33090990
P       11.48807000      12.07750000      14.81499000       0.61642083      -0.84612098      -0.36154932
P       11.39912000       9.96333000      15.40614000      -0.57106151      -0.47160724      -0.35506267
P        9.55008000       9.70564000       0.50564000      -0.33349825       0.23701745      -0.91565079
P       11.43249000      10.57081000      19.07062000       0.36754690       0.47607322      -0.55994708
P       10.21666000      11.61198000       1.32834000       0.48984311       0.23791340       1.93659879
P        9.55110000      11.64830000      18.54070000      -0.28427815      -1.40362831      -1.20491949
P       12.88308000      10.26326000       8.96941000      -1.89044058      -1.31714385      -0.41177735
P       13.99480000      12.01897000       9.03791000       0.72000290       1.52847027       0.79355282
P       13.95881000      10.62830000      10.80361000      -1.19073699       1.05784896      -0.75966965
P       12.06924000      11.99888000      10.20258000       1.85398843      -1.65739393      -0.25537975
P       16.11458000      17.37923000      12.66646000       0.38967454      -0.41158205      -0.25273182
P       16.28637000      15.86478000      14.30823000       1.05647235       0.41480599      -0.25110922
P       16.92145000      18.09185000      14.61581000      -0.58503972      -1.31766452      -0.42611558
P       14.82067000      17.41593000      14.39838000      -0.83728273       1.02380694       0.44820496
P       15.10673000      12.38953000      16.69332000       0.80170174       0.98995495      -0.45977690
P       15.92314000      13.81202000      18.29684000      -1.61632639      -0.49343490      -1.10495359
P       13.82737000      12.92986000      18.28495000       0.05617878       1.04043516       0.78698646
P       14.33578000      14.52693000      16.79253000       0.78706718      -1.18463692       0.83371058
P        8.85910000      14.38026000       2.94845000      -0.26914145      -0.09456389       0.61089171
P       10.02418000      16.07734000       3.91173000      -0.26752113      -1.22838936      -2.59059711
P        9.32493000      16.02121000       1.59164000      -0.04181524       1.17630597       1.56976958
P       10.85001000      14.66000000       2.24194000       1.32343275       0.22583662       0.85857431
P        7.35910000      17.10546000       8.34280000       1.03654193      -0.10601061      -0.20614012
P        8.86465000      17.63154000       6.71042000       0.18491743      -1.25073908      -0.07111579
P        8.81610000      18.82140000       8.52222000      -1.65064304       0.09311385      -0.51030889
P        7.05385000      18.75987000       6.95397000       0.03388689       1.26937909       0.79558876
P       15.89359000      10.95022000      12.93066000       1.31722621       0.65500816       0.26977066
P       17.86874000      10.90178000      11.83193000      -1.53832698      -0.85389465      -0.75202223
P       17.90694000      11.16431000      13.90770000      -0.29431141       0.34055776       1.45304939
P       17.15663000      12.81163000      12.64841000      -0.19057231      -0.40739649       0.25209444
P        9.02317000      16.54675000      17.69035000      -0.95614958      -0.99659151      -0.28511568
P       10.10480000      14.82033000      16.90386000       0.39713490      -0.67116532       0.72652877
P        8.02054000      14.93310000      16.35162000       0.29808315       0.35275325       1.02361423
P        8.52372000      14.43449000      18.50218000       0.47067754       1.09951714      -1.39055890
P        9.98052000       0.91229000       4.78868000      -0.43461316      -0.11233734      -1.09350113
P        9.76943000      19.03733000       2.71946000       1.47172870       0.67655754       1.41822495
P       11.78431000       0.93543000       3.55416000      -1.29554223      -0.52489659      -0.96450617
P        9.91124000       1.98745000       2.78328000       2.34107843      -0.41681480       1.15601231
P       16.41151000       3.71180000      11.35452000       0.00057145      -1.12225996       0.00880251
P       16.02521000       1.47939000      11.39098000      -2.09940375      -0.20667086       1.27085167
P       17.96472000       2.11518000      11.00496000       0.92649901       1.41321694      -0.99073521
P       16.29290000       2.44114000       9.51842000       0.74742648       0.50642237      -0.46335694
P       17.78877000       1.72056000      14.44572000       0.26163289       0.12207543       0.03466116
P       18.37134000       1.89136000      16.57890000      -1.56821605       0.31612501      -0.19043471
P       16.38994000       2.88979000      15.70916000       2.06213711      -0.35787283       0.31787368
P       18.50470000       3.63685000      15.30711000      -0.68368805       0.38785401      -0.34382365
P       12.32407000       5.95145000      14.41021000       0.47584873       2.27885418      -1.33124672
P       11.59373000       4.69360000      15.89847000       0.19582056      -1.74556549       0.09277685
P       13.66084000       4.34281000      14.92716000      -0.19707917      -0.24383152       0.94469786
P       11.89696000       3.91373000      13.74073000      -0.73307392       0.72310781       0.50084803
P        0.22156000       6.28063000       3.02048000      -0.51520016       0.96846027       1.51967677
P       17.67966000       6.87054000       4.55448000       1.46813053      -0.06915321      -0.91097117
P       17.40846000       5.51499000       2.84815000      -0.81002138       0.51544257      -0.58010303
P       17.81947000       7.75472000       2.49021000      -0.39340300      -1.44322006       0.13827404
P       14.09780000       3.98284000       6.20048000      -0.07584198       0.04454086       0.33935194
P       12.36285000       4.29617000       4.90383000       1.32914400       1.59326351       0.57957005
P       14.42100000       5.29084000       4.47173000      -1.84231866       0.28161141       1.29820587
P       13.09669000       5.99980000       6.41213000       0.64018282      -1.81964340      -2.49930577
P       15.72891000       8.22235000      14.34060000      -0.58683103       1.56090744      -0.57590216
P       15.03467000       6.77304000      12.76465000       0.63181898       1.04650664      -0.48552732
P       16.11610000       6.19548000      14.51760000       1.83988901      -1.84334127      -0.15725934
P       17.25029000       7.45975000      12.87041000      -1.70969782      -0.87777672       1.20854548
P       15.87546000       1.93586000       0.19323000       0.59836992      -1.31262969      -0.25923275
P       16.16498000       4.02419000      18.94146000       0.26316598       0.60931858      -0.37344675
P       14.52177000       3.36155000       1.02344000      -0.67506191       0.57561745       0.44717117
P       14.46105000       2.92363000      18.07343000      -0.03259893       0.18612375       0.40209313
P       14.24185000      15.90057000       2.23156000      -0.15770809      -1.35521635       0.25953838
P       15.75255000      15.02278000       3.57084000       1.48879646      -0.19395756      -0.52900083
P       14.53652000      13.62016000       2.34641000       0.72926444       0.30214999      -1.37747967
P       13.74989000      14.61396000       4.00151000      -2.32598652       0.90756109       1.81295187
P       17.36657000      12.14807000       5.20848000      -0.15989547       0.14778177       0.07002022
P       16.67008000      11.03775000       7.02773000       0.18772648       2.34417045       0.05795506
P       15.71051000      10.68473000       5.17485000      -0.14112381       0.95900146      -0.80946733
P       15.44099000      12.86230000       5.95187000       0.36585649      -1.69641744       0.54250663
P       16.63801000      14.76949000       9.99372000       0.36687424      -0.38768187      -0.96711109
P       17.62311000      16.67805000       9.67581000      -0.00089333       1.08020087      -0.69726634
P       18.22682000      15.03718000       8.30414000      -1.51192559       0.09723384      -0.82882771
P       18.79349000      15.01723000      10.30507000       1.25680804      -0.67901110       2.27836650
P       14.25793000       8.24436000       0.29885000       0.79746859      -0.49447243       0.34186110
P       15.29435000       9.56155000      18.04078000      -0.85770512      -1.14342206      -0.27070426
P       13.39339000       8.37584000      17.54196000       0.45215570       0.59271001      -0.52657578
P       15.31600000       7.31613000      17.73457000      -0.03718685       0.36199439       0.66949699
P       12.09672000      17.65250000      19.19712000       0.88634188      -2.27819210      -0.78237747
P       13.07278000       0.20349000      18.74188000       0.61665222       1.97088922      -1.48358390
P       13.11498000      17.77546000      17.07300000      -0.71874462       0.91006791       2.05201729
P       14.42997000      17.70393000      18.86940000      -1.63028907      -0.22700781       0.32013121
P       14.12663000      16.08888000       7.23556000       1.11332542      -0.47900139       0.70477556
P       12.52932000      15.00409000       8.35433000      -0.00044758       0.27895509      -0.98531026
P       12.14626000      16.78241000       6.97946000      -1.11902777       0.01397248       0.67597201