24
Lattice="3.1828314234767507 -5.513111110959517 7.12683277125966e-05 3.183119731629996 5.513277565749318 5.781803205631166e-05 0.0003010166776432863 -1.8108455326002275e-05 16.404492326793704" Properties=species:S:1:pos:R:3:castep_forces:R:3:forces:R:3 task_id=mp-2815 mp_E=-7.574405446666667 spacegroup=P6_3/mmc theoretical=F castep_energy=-5086.252652 castep_stress="_JSON [[-1.0266685764948449, -0.0, 0.0], [-0.0, -1.0246892488421588, 0.0], [0.0, 0.0, -0.46518865746976645]]" x=0.6666666666666666 stoi=1.9999999999999998 n_minim_iter=0 energy=-20345.19338150056 free_energy=-20345.19338150056 pbc="T T T"
Mo       1.59158613       0.91895933       4.10115779      -0.00000000      -0.00005000      -0.39430000       0.00043449      -0.00025245      -0.00012104
Mo       1.59169033      -0.91889459      12.30345208       0.00000000       0.00005000      -0.39431000      -0.00043105       0.00026342      -0.00190618
S        1.59129883      -0.91878008       5.65631179      -0.00000000      -0.00005000       0.39431000       0.00146650       0.00013031      -0.00141920
S        1.59149054       0.91883654      13.85853535       0.00000000       0.00005000       0.39430000       0.00191339      -0.00003834      -0.00054797
S        1.59178614      -0.91877124       2.54599623       0.00000000       0.00024000      -0.00001000      -0.00191514       0.00003285       0.00153337
S        1.59197782       0.91884540      10.74821737       0.00000000      -0.00024000       0.00001000      -0.00146818      -0.00013579       0.00246102
Mo       3.18314600       3.67559812       4.10118669      -0.00000000      -0.00005000      -0.39430000       0.00043449      -0.00025245      -0.00012104
Mo       3.18325020       1.83774419      12.30348099       0.00000000       0.00005000      -0.39431000      -0.00043105       0.00026342      -0.00190618
S        3.18285870       1.83785870       5.65634070      -0.00000000      -0.00005000       0.39431000       0.00146650       0.00013031      -0.00141920
S        3.18305040       3.67547533      13.85856426       0.00000000       0.00005000       0.39430000       0.00191339      -0.00003834      -0.00054797
S        3.18334601       1.83786754       2.54602514       0.00000000       0.00024000      -0.00001000      -0.00191514       0.00003285       0.00153337
S        3.18353769       3.67548418      10.74824628       0.00000000      -0.00024000       0.00001000      -0.00146818      -0.00013579       0.00246102
Mo       3.18300184      -1.83759622       4.10119342      -0.00000000      -0.00005000      -0.39430000       0.00043449      -0.00025245      -0.00012104
Mo       3.18310605      -3.67545015      12.30348771       0.00000000       0.00005000      -0.39431000      -0.00043105       0.00026342      -0.00190618
S        3.18271454      -3.67533564       5.65634743      -0.00000000      -0.00005000       0.39431000       0.00146650       0.00013031      -0.00141920
S        3.18290625      -1.83771901      13.85857099       0.00000000       0.00005000       0.39430000       0.00191339      -0.00003834      -0.00054797
S        3.18320185      -3.67532679       2.54603187       0.00000000       0.00024000      -0.00001000      -0.00191514       0.00003285       0.00153337
S        3.18339353      -1.83771016      10.74825300       0.00000000      -0.00024000       0.00001000      -0.00146818      -0.00013579       0.00246102
Mo       4.77456171       0.91904256       4.10122233      -0.00000000      -0.00005000      -0.39430000       0.00043449      -0.00025245      -0.00012104
Mo       4.77466591      -0.91881137      12.30351662       0.00000000       0.00005000      -0.39431000      -0.00043105       0.00026342      -0.00190618
S        4.77427441      -0.91869686       5.65637634      -0.00000000      -0.00005000       0.39431000       0.00146650       0.00013031      -0.00141920
S        4.77446611       0.91891977      13.85859990       0.00000000       0.00005000       0.39430000       0.00191339      -0.00003834      -0.00054797
S        4.77476172      -0.91868801       2.54606078       0.00000000       0.00024000      -0.00001000      -0.00191514       0.00003285       0.00153337
S        4.77495340       0.91892862      10.74828191       0.00000000      -0.00024000       0.00001000      -0.00146818      -0.00013579       0.00246102
24
Lattice="3.1828314234767507 -5.513111110959517 7.12683277125966e-05 3.183119731629996 5.513277565749318 5.781803205631166e-05 0.0003010166776432863 -1.8108455326002275e-05 16.404492326793704" Properties=species:S:1:pos:R:3:castep_forces:R:3:forces:R:3 task_id=mp-2815 mp_E=-7.574405446666667 spacegroup=P6_3/mmc theoretical=F castep_energy=-5086.252652 castep_stress="_JSON [[-1.0266685764948449, -0.0, 0.0], [-0.0, -1.0246892488421588, 0.0], [0.0, 0.0, -0.46518865746976645]]" x=0.6666666666666666 stoi=1.9999999999999998 n_minim_iter=0 energy=-20345.19338150056 free_energy=-20345.19338150056 pbc="T T T"
Mo       1.59158613       0.91895933       4.10115779      -0.00000000      -0.00005000      -0.39430000       0.00043449      -0.00025245      -0.00012104
Mo       1.59168622      -1.07641443      12.30345227       0.00000000       0.00005000      -0.39431000      -0.00043105       0.00026342      -0.00190618
S        1.59129883      -0.91878008       5.65631179      -0.00000000      -0.00005000       0.39431000       0.00146650       0.00013031      -0.00141920
S        1.59148642       0.76131670      13.85853554       0.00000000       0.00005000       0.39430000       0.00191339      -0.00003834      -0.00054797
S        1.59178614      -0.91877124       2.54599623       0.00000000       0.00024000      -0.00001000      -0.00191514       0.00003285       0.00153337
S        1.59197370       0.76132556      10.74821756       0.00000000      -0.00024000       0.00001000      -0.00146818      -0.00013579       0.00246102
Mo       3.18314600       3.67559812       4.10118669      -0.00000000      -0.00005000      -0.39430000       0.00043449      -0.00025245      -0.00012104
Mo       3.18324608       1.68022435      12.30348118       0.00000000       0.00005000      -0.39431000      -0.00043105       0.00026342      -0.00190618
S        3.18285870       1.83785870       5.65634070      -0.00000000      -0.00005000       0.39431000       0.00146650       0.00013031      -0.00141920
S        3.18304628       3.51795549      13.85856445       0.00000000       0.00005000       0.39430000       0.00191339      -0.00003834      -0.00054797
S        3.18334601       1.83786754       2.54602514       0.00000000       0.00024000      -0.00001000      -0.00191514       0.00003285       0.00153337
S        3.18353357       3.51796434      10.74824647       0.00000000      -0.00024000       0.00001000      -0.00146818      -0.00013579       0.00246102
Mo       3.18300184      -1.83759622       4.10119342      -0.00000000      -0.00005000      -0.39430000       0.00043449      -0.00025245      -0.00012104
Mo       3.18310193      -3.83296999      12.30348790       0.00000000       0.00005000      -0.39431000      -0.00043105       0.00026342      -0.00190618
S        3.18271454      -3.67533564       5.65634743      -0.00000000      -0.00005000       0.39431000       0.00146650       0.00013031      -0.00141920
S        3.18290213      -1.99523885      13.85857118       0.00000000       0.00005000       0.39430000       0.00191339      -0.00003834      -0.00054797
S        3.18320185      -3.67532679       2.54603187       0.00000000       0.00024000      -0.00001000      -0.00191514       0.00003285       0.00153337
S        3.18338941      -1.99523000      10.74825319       0.00000000      -0.00024000       0.00001000      -0.00146818      -0.00013579       0.00246102
Mo       4.77456171       0.91904256       4.10122233      -0.00000000      -0.00005000      -0.39430000       0.00043449      -0.00025245      -0.00012104
Mo       4.77466179      -1.07633120      12.30351681       0.00000000       0.00005000      -0.39431000      -0.00043105       0.00026342      -0.00190618
S        4.77427441      -0.91869686       5.65637634      -0.00000000      -0.00005000       0.39431000       0.00146650       0.00013031      -0.00141920
S        4.77446200       0.76139993      13.85860009       0.00000000       0.00005000       0.39430000       0.00191339      -0.00003834      -0.00054797
S        4.77476172      -0.91868801       2.54606078       0.00000000       0.00024000      -0.00001000      -0.00191514       0.00003285       0.00153337
S        4.77494928       0.76140879      10.74828210       0.00000000      -0.00024000       0.00001000      -0.00146818      -0.00013579       0.00246102
24
Lattice="3.1828314234767507 -5.513111110959517 7.12683277125966e-05 3.183119731629996 5.513277565749318 5.781803205631166e-05 0.0003010166776432863 -1.8108455326002275e-05 16.404492326793704" Properties=species:S:1:pos:R:3:castep_forces:R:3:forces:R:3 task_id=mp-2815 mp_E=-7.574405446666667 spacegroup=P6_3/mmc theoretical=F castep_energy=-5086.252652 castep_stress="_JSON [[-1.0266685764948449, -0.0, 0.0], [-0.0, -1.0246892488421588, 0.0], [0.0, 0.0, -0.46518865746976645]]" x=0.6666666666666666 stoi=1.9999999999999998 n_minim_iter=0 energy=-20345.19338150056 free_energy=-20345.19338150056 pbc="T T T"
Mo       1.59158613       0.91895933       4.10115779      -0.00000000      -0.00005000      -0.39430000       0.00043449      -0.00025245      -0.00012104
Mo       1.59168210      -1.23393427      12.30345246       0.00000000       0.00005000      -0.39431000      -0.00043105       0.00026342      -0.00190618
S        1.59129883      -0.91878008       5.65631179      -0.00000000      -0.00005000       0.39431000       0.00146650       0.00013031      -0.00141920
S        1.59148230       0.60379687      13.85853574       0.00000000       0.00005000       0.39430000       0.00191339      -0.00003834      -0.00054797
S        1.59178614      -0.91877124       2.54599623       0.00000000       0.00024000      -0.00001000      -0.00191514       0.00003285       0.00153337
S        1.59196958       0.60380572      10.74821775       0.00000000      -0.00024000       0.00001000      -0.00146818      -0.00013579       0.00246102
Mo       3.18314600       3.67559812       4.10118669      -0.00000000      -0.00005000      -0.39430000       0.00043449      -0.00025245      -0.00012104
Mo       3.18324196       1.52270451      12.30348137       0.00000000       0.00005000      -0.39431000      -0.00043105       0.00026342      -0.00190618
S        3.18285870       1.83785870       5.65634070      -0.00000000      -0.00005000       0.39431000       0.00146650       0.00013031      -0.00141920
S        3.18304216       3.36043565      13.85856465       0.00000000       0.00005000       0.39430000       0.00191339      -0.00003834      -0.00054797
S        3.18334601       1.83786754       2.54602514       0.00000000       0.00024000      -0.00001000      -0.00191514       0.00003285       0.00153337
S        3.18352945       3.36044450      10.74824666       0.00000000      -0.00024000       0.00001000      -0.00146818      -0.00013579       0.00246102
Mo       3.18300184      -1.83759622       4.10119342      -0.00000000      -0.00005000      -0.39430000       0.00043449      -0.00025245      -0.00012104
Mo       3.18309781      -3.99048982      12.30348810       0.00000000       0.00005000      -0.39431000      -0.00043105       0.00026342      -0.00190618
S        3.18271454      -3.67533564       5.65634743      -0.00000000      -0.00005000       0.39431000       0.00146650       0.00013031      -0.00141920
S        3.18289801      -2.15275869      13.85857137       0.00000000       0.00005000       0.39430000       0.00191339      -0.00003834      -0.00054797
S        3.18320185      -3.67532679       2.54603187       0.00000000       0.00024000      -0.00001000      -0.00191514       0.00003285       0.00153337
S        3.18338529      -2.15274984      10.74825339       0.00000000      -0.00024000       0.00001000      -0.00146818      -0.00013579       0.00246102
Mo       4.77456171       0.91904256       4.10122233      -0.00000000      -0.00005000      -0.39430000       0.00043449      -0.00025245      -0.00012104
Mo       4.77465767      -1.23385104      12.30351700       0.00000000       0.00005000      -0.39431000      -0.00043105       0.00026342      -0.00190618
S        4.77427441      -0.91869686       5.65637634      -0.00000000      -0.00005000       0.39431000       0.00146650       0.00013031      -0.00141920
S        4.77445788       0.60388009      13.85860028       0.00000000       0.00005000       0.39430000       0.00191339      -0.00003834      -0.00054797
S        4.77476172      -0.91868801       2.54606078       0.00000000       0.00024000      -0.00001000      -0.00191514       0.00003285       0.00153337
S        4.77494516       0.60388895      10.74828229       0.00000000      -0.00024000       0.00001000      -0.00146818      -0.00013579       0.00246102
24
Lattice="3.1828314234767507 -5.513111110959517 7.12683277125966e-05 3.183119731629996 5.513277565749318 5.781803205631166e-05 0.0003010166776432863 -1.8108455326002275e-05 16.404492326793704" Properties=species:S:1:pos:R:3:castep_forces:R:3:forces:R:3 task_id=mp-2815 mp_E=-7.574405446666667 spacegroup=P6_3/mmc theoretical=F castep_energy=-5086.252652 castep_stress="_JSON [[-1.0266685764948449, -0.0, 0.0], [-0.0, -1.0246892488421588, 0.0], [0.0, 0.0, -0.46518865746976645]]" x=0.6666666666666666 stoi=1.9999999999999998 n_minim_iter=0 energy=-20345.19338150056 free_energy=-20345.19338150056 pbc="T T T"
Mo       1.59158613       0.91895933       4.10115779      -0.00000000      -0.00005000      -0.39430000       0.00043449      -0.00025245      -0.00012104
Mo       1.59167798      -1.39145411      12.30345265       0.00000000       0.00005000      -0.39431000      -0.00043105       0.00026342      -0.00190618
S        1.59129883      -0.91878008       5.65631179      -0.00000000      -0.00005000       0.39431000       0.00146650       0.00013031      -0.00141920
S        1.59147818       0.44627703      13.85853593       0.00000000       0.00005000       0.39430000       0.00191339      -0.00003834      -0.00054797
S        1.59178614      -0.91877124       2.54599623       0.00000000       0.00024000      -0.00001000      -0.00191514       0.00003285       0.00153337
S        1.59196546       0.44628588      10.74821794       0.00000000      -0.00024000       0.00001000      -0.00146818      -0.00013579       0.00246102
Mo       3.18314600       3.67559812       4.10118669      -0.00000000      -0.00005000      -0.39430000       0.00043449      -0.00025245      -0.00012104
Mo       3.18323784       1.36518468      12.30348156       0.00000000       0.00005000      -0.39431000      -0.00043105       0.00026342      -0.00190618
S        3.18285870       1.83785870       5.65634070      -0.00000000      -0.00005000       0.39431000       0.00146650       0.00013031      -0.00141920
S        3.18303805       3.20291581      13.85856484       0.00000000       0.00005000       0.39430000       0.00191339      -0.00003834      -0.00054797
S        3.18334601       1.83786754       2.54602514       0.00000000       0.00024000      -0.00001000      -0.00191514       0.00003285       0.00153337
S        3.18352533       3.20292466      10.74824685       0.00000000      -0.00024000       0.00001000      -0.00146818      -0.00013579       0.00246102
Mo       3.18300184      -1.83759622       4.10119342      -0.00000000      -0.00005000      -0.39430000       0.00043449      -0.00025245      -0.00012104
Mo       3.18309369      -4.14800966      12.30348829       0.00000000       0.00005000      -0.39431000      -0.00043105       0.00026342      -0.00190618
S        3.18271454      -3.67533564       5.65634743      -0.00000000      -0.00005000       0.39431000       0.00146650       0.00013031      -0.00141920
S        3.18289389      -2.31027853      13.85857156       0.00000000       0.00005000       0.39430000       0.00191339      -0.00003834      -0.00054797
S        3.18320185      -3.67532679       2.54603187       0.00000000       0.00024000      -0.00001000      -0.00191514       0.00003285       0.00153337
S        3.18338118      -2.31026967      10.74825358       0.00000000      -0.00024000       0.00001000      -0.00146818      -0.00013579       0.00246102
Mo       4.77456171       0.91904256       4.10122233      -0.00000000      -0.00005000      -0.39430000       0.00043449      -0.00025245      -0.00012104
Mo       4.77465356      -1.39137088      12.30351720       0.00000000       0.00005000      -0.39431000      -0.00043105       0.00026342      -0.00190618
S        4.77427441      -0.91869686       5.65637634      -0.00000000      -0.00005000       0.39431000       0.00146650       0.00013031      -0.00141920
S        4.77445376       0.44636026      13.85860047       0.00000000       0.00005000       0.39430000       0.00191339      -0.00003834      -0.00054797
S        4.77476172      -0.91868801       2.54606078       0.00000000       0.00024000      -0.00001000      -0.00191514       0.00003285       0.00153337
S        4.77494104       0.44636911      10.74828249       0.00000000      -0.00024000       0.00001000      -0.00146818      -0.00013579       0.00246102
24
Lattice="3.1828314234767507 -5.513111110959517 7.12683277125966e-05 3.183119731629996 5.513277565749318 5.781803205631166e-05 0.0003010166776432863 -1.8108455326002275e-05 16.404492326793704" Properties=species:S:1:pos:R:3:castep_forces:R:3:forces:R:3 task_id=mp-2815 mp_E=-7.574405446666667 spacegroup=P6_3/mmc theoretical=F castep_energy=-5086.252652 castep_stress="_JSON [[-1.0266685764948449, -0.0, 0.0], [-0.0, -1.0246892488421588, 0.0], [0.0, 0.0, -0.46518865746976645]]" x=0.6666666666666666 stoi=1.9999999999999998 n_minim_iter=0 energy=-20345.19338150056 free_energy=-20345.19338150056 pbc="T T T"
Mo       1.59158613       0.91895933       4.10115779      -0.00000000      -0.00005000      -0.39430000       0.00043449      -0.00025245      -0.00012104
Mo       1.59167386      -1.54897395      12.30345285       0.00000000       0.00005000      -0.39431000      -0.00043105       0.00026342      -0.00190618
S        1.59129883      -0.91878008       5.65631179      -0.00000000      -0.00005000       0.39431000       0.00146650       0.00013031      -0.00141920
S        1.59147406       0.28875719      13.85853612       0.00000000       0.00005000       0.39430000       0.00191339      -0.00003834      -0.00054797
S        1.59178614      -0.91877124       2.54599623       0.00000000       0.00024000      -0.00001000      -0.00191514       0.00003285       0.00153337
S        1.59196134       0.28876604      10.74821814       0.00000000      -0.00024000       0.00001000      -0.00146818      -0.00013579       0.00246102
Mo       3.18314600       3.67559812       4.10118669      -0.00000000      -0.00005000      -0.39430000       0.00043449      -0.00025245      -0.00012104
Mo       3.18323372       1.20766484      12.30348175       0.00000000       0.00005000      -0.39431000      -0.00043105       0.00026342      -0.00190618
S        3.18285870       1.83785870       5.65634070      -0.00000000      -0.00005000       0.39431000       0.00146650       0.00013031      -0.00141920
S        3.18303393       3.04539597      13.85856503       0.00000000       0.00005000       0.39430000       0.00191339      -0.00003834      -0.00054797
S        3.18334601       1.83786754       2.54602514       0.00000000       0.00024000      -0.00001000      -0.00191514       0.00003285       0.00153337
S        3.18352121       3.04540483      10.74824704       0.00000000      -0.00024000       0.00001000      -0.00146818      -0.00013579       0.00246102
Mo       3.18300184      -1.83759622       4.10119342      -0.00000000      -0.00005000      -0.39430000       0.00043449      -0.00025245      -0.00012104
Mo       3.18308957      -4.30552950      12.30348848       0.00000000       0.00005000      -0.39431000      -0.00043105       0.00026342      -0.00190618
S        3.18271454      -3.67533564       5.65634743      -0.00000000      -0.00005000       0.39431000       0.00146650       0.00013031      -0.00141920
S        3.18288977      -2.46779837      13.85857176       0.00000000       0.00005000       0.39430000       0.00191339      -0.00003834      -0.00054797
S        3.18320185      -3.67532679       2.54603187       0.00000000       0.00024000      -0.00001000      -0.00191514       0.00003285       0.00153337
S        3.18337706      -2.46778951      10.74825377       0.00000000      -0.00024000       0.00001000      -0.00146818      -0.00013579       0.00246102
Mo       4.77456171       0.91904256       4.10122233      -0.00000000      -0.00005000      -0.39430000       0.00043449      -0.00025245      -0.00012104
Mo       4.77464944      -1.54889072      12.30351739       0.00000000       0.00005000      -0.39431000      -0.00043105       0.00026342      -0.00190618
S        4.77427441      -0.91869686       5.65637634      -0.00000000      -0.00005000       0.39431000       0.00146650       0.00013031      -0.00141920
S        4.77444964       0.28884042      13.85860066       0.00000000       0.00005000       0.39430000       0.00191339      -0.00003834      -0.00054797
S        4.77476172      -0.91868801       2.54606078       0.00000000       0.00024000      -0.00001000      -0.00191514       0.00003285       0.00153337
S        4.77493692       0.28884927      10.74828268       0.00000000      -0.00024000       0.00001000      -0.00146818      -0.00013579       0.00246102
24
Lattice="3.1828314234767507 -5.513111110959517 7.12683277125966e-05 3.183119731629996 5.513277565749318 5.781803205631166e-05 0.0003010166776432863 -1.8108455326002275e-05 16.404492326793704" Properties=species:S:1:pos:R:3:castep_forces:R:3:forces:R:3 task_id=mp-2815 mp_E=-7.574405446666667 spacegroup=P6_3/mmc theoretical=F castep_energy=-5086.252652 castep_stress="_JSON [[-1.0266685764948449, -0.0, 0.0], [-0.0, -1.0246892488421588, 0.0], [0.0, 0.0, -0.46518865746976645]]" x=0.6666666666666666 stoi=1.9999999999999998 n_minim_iter=0 energy=-20345.19338150056 free_energy=-20345.19338150056 pbc="T T T"
Mo       1.59158613       0.91895933       4.10115779      -0.00000000      -0.00005000      -0.39430000       0.00043449      -0.00025245      -0.00012104
Mo       1.59166974      -1.70649378      12.30345304       0.00000000       0.00005000      -0.39431000      -0.00043105       0.00026342      -0.00190618
S        1.59129883      -0.91878008       5.65631179      -0.00000000      -0.00005000       0.39431000       0.00146650       0.00013031      -0.00141920
S        1.59146994       0.13123735      13.85853631       0.00000000       0.00005000       0.39430000       0.00191339      -0.00003834      -0.00054797
S        1.59178614      -0.91877124       2.54599623       0.00000000       0.00024000      -0.00001000      -0.00191514       0.00003285       0.00153337
S        1.59195723       0.13124621      10.74821833       0.00000000      -0.00024000       0.00001000      -0.00146818      -0.00013579       0.00246102
Mo       3.18314600       3.67559812       4.10118669      -0.00000000      -0.00005000      -0.39430000       0.00043449      -0.00025245      -0.00012104
Mo       3.18322961       1.05014500      12.30348195       0.00000000       0.00005000      -0.39431000      -0.00043105       0.00026342      -0.00190618
S        3.18285870       1.83785870       5.65634070      -0.00000000      -0.00005000       0.39431000       0.00146650       0.00013031      -0.00141920
S        3.18302981       2.88787613      13.85856522       0.00000000       0.00005000       0.39430000       0.00191339      -0.00003834      -0.00054797
S        3.18334601       1.83786754       2.54602514       0.00000000       0.00024000      -0.00001000      -0.00191514       0.00003285       0.00153337
S        3.18351709       2.88788499      10.74824724       0.00000000      -0.00024000       0.00001000      -0.00146818      -0.00013579       0.00246102
Mo       3.18300184      -1.83759622       4.10119342      -0.00000000      -0.00005000      -0.39430000       0.00043449      -0.00025245      -0.00012104
Mo       3.18308545      -4.46304934      12.30348867       0.00000000       0.00005000      -0.39431000      -0.00043105       0.00026342      -0.00190618
S        3.18271454      -3.67533564       5.65634743      -0.00000000      -0.00005000       0.39431000       0.00146650       0.00013031      -0.00141920
S        3.18288565      -2.62531820      13.85857195       0.00000000       0.00005000       0.39430000       0.00191339      -0.00003834      -0.00054797
S        3.18320185      -3.67532679       2.54603187       0.00000000       0.00024000      -0.00001000      -0.00191514       0.00003285       0.00153337
S        3.18337294      -2.62530935      10.74825396       0.00000000      -0.00024000       0.00001000      -0.00146818      -0.00013579       0.00246102
Mo       4.77456171       0.91904256       4.10122233      -0.00000000      -0.00005000      -0.39430000       0.00043449      -0.00025245      -0.00012104
Mo       4.77464532      -1.70641056      12.30351758       0.00000000       0.00005000      -0.39431000      -0.00043105       0.00026342      -0.00190618
S        4.77427441      -0.91869686       5.65637634      -0.00000000      -0.00005000       0.39431000       0.00146650       0.00013031      -0.00141920
S        4.77444552       0.13132058      13.85860086       0.00000000       0.00005000       0.39430000       0.00191339      -0.00003834      -0.00054797
S        4.77476172      -0.91868801       2.54606078       0.00000000       0.00024000      -0.00001000      -0.00191514       0.00003285       0.00153337
S        4.77493280       0.13132943      10.74828287       0.00000000      -0.00024000       0.00001000      -0.00146818      -0.00013579       0.00246102
24
Lattice="3.1828314234767507 -5.513111110959517 7.12683277125966e-05 3.183119731629996 5.513277565749318 5.781803205631166e-05 0.0003010166776432863 -1.8108455326002275e-05 16.404492326793704" Properties=species:S:1:pos:R:3:castep_forces:R:3:forces:R:3 task_id=mp-2815 mp_E=-7.574405446666667 spacegroup=P6_3/mmc theoretical=F castep_energy=-5086.252652 castep_stress="_JSON [[-1.0266685764948449, -0.0, 0.0], [-0.0, -1.0246892488421588, 0.0], [0.0, 0.0, -0.46518865746976645]]" x=0.6666666666666666 stoi=1.9999999999999998 n_minim_iter=0 energy=-20345.19338150056 free_energy=-20345.19338150056 pbc="T T T"
Mo       1.59158613       0.91895933       4.10115779      -0.00000000      -0.00005000      -0.39430000       0.00043449      -0.00025245      -0.00012104
Mo       1.59166562      -1.86401362      12.30345323       0.00000000       0.00005000      -0.39431000      -0.00043105       0.00026342      -0.00190618
S        1.59129883      -0.91878008       5.65631179      -0.00000000      -0.00005000       0.39431000       0.00146650       0.00013031      -0.00141920
S        1.59146582      -0.02628249      13.85853651       0.00000000       0.00005000       0.39430000       0.00191339      -0.00003834      -0.00054797
S        1.59178614      -0.91877124       2.54599623       0.00000000       0.00024000      -0.00001000      -0.00191514       0.00003285       0.00153337
S        1.59195311      -0.02627363      10.74821852       0.00000000      -0.00024000       0.00001000      -0.00146818      -0.00013579       0.00246102
Mo       3.18314600       3.67559812       4.10118669      -0.00000000      -0.00005000      -0.39430000       0.00043449      -0.00025245      -0.00012104
Mo       3.18322549       0.89262516      12.30348214       0.00000000       0.00005000      -0.39431000      -0.00043105       0.00026342      -0.00190618
S        3.18285870       1.83785870       5.65634070      -0.00000000      -0.00005000       0.39431000       0.00146650       0.00013031      -0.00141920
S        3.18302569       2.73035630      13.85856541       0.00000000       0.00005000       0.39430000       0.00191339      -0.00003834      -0.00054797
S        3.18334601       1.83786754       2.54602514       0.00000000       0.00024000      -0.00001000      -0.00191514       0.00003285       0.00153337
S        3.18351297       2.73036515      10.74824743       0.00000000      -0.00024000       0.00001000      -0.00146818      -0.00013579       0.00246102
Mo       3.18300184      -1.83759622       4.10119342      -0.00000000      -0.00005000      -0.39430000       0.00043449      -0.00025245      -0.00012104
Mo       3.18308133      -4.62056918      12.30348886       0.00000000       0.00005000      -0.39431000      -0.00043105       0.00026342      -0.00190618
S        3.18271454      -3.67533564       5.65634743      -0.00000000      -0.00005000       0.39431000       0.00146650       0.00013031      -0.00141920
S        3.18288154      -2.78283804      13.85857214       0.00000000       0.00005000       0.39430000       0.00191339      -0.00003834      -0.00054797
S        3.18320185      -3.67532679       2.54603187       0.00000000       0.00024000      -0.00001000      -0.00191514       0.00003285       0.00153337
S        3.18336882      -2.78282919      10.74825415       0.00000000      -0.00024000       0.00001000      -0.00146818      -0.00013579       0.00246102
Mo       4.77456171       0.91904256       4.10122233      -0.00000000      -0.00005000      -0.39430000       0.00043449      -0.00025245      -0.00012104
Mo       4.77464120      -1.86393039      12.30351777       0.00000000       0.00005000      -0.39431000      -0.00043105       0.00026342      -0.00190618