104
Lattice="14.752975 0.0 0.0 0.0 12.828814 0.0 0.0 0.0 12.8717" Properties=species:S:1:pos:R:3:forces:R:3 energy=-571.2608855095498 hash=65caec19db865b84795faa891699f15e virial="26.5960839552 0.0 0.0 0.0 -8.69836786862 0.0 0.0 0.0 9.45073549841" config_type=rss_3c pressure=0.0037420489448516097 uploaded="2020-04-10 10:56:53.323000" hash_structure=f5bb3ec5005e822dba26f0166ed6c15a filename=rss_3c/rss_3c_mbd2.xyz username=gabor stress="-0.01254360510686496 8.892335413010825e-13 -1.1291632757048652e-12 8.892335413010825e-13 0.003811413699322674 1.247384427883428e-07 -1.1291632757048652e-12 1.247384427883428e-07 -0.004517651583670338" volume=2436.138773885412 n_atoms=104 free_energy=-570.88456 modified="2020-04-10 10:56:53.323000" formula=P104 miguel_caro=T pbc="T T T"
P        5.55284000       1.54336000       4.79899000      -0.06824224       0.26781582      -0.10332358
P        3.40593000       1.92310000       4.54218000       0.06387384       0.31547293      -0.24063945
P        2.83521000      12.72241000       5.14557000      -0.57440864      -0.15786946      -0.02193402
P        0.61386000       0.19271000       4.91270000      -0.28789086      -0.40533269       0.17072387
P        6.32144000       3.56955000       4.26074000      -0.16161524      -0.30403195      -0.40806699
P        4.67563000       3.69629000       7.41183000       0.00595278       0.18751949      -0.09486321
P        2.84625000       3.29862000       6.23727000      -0.47334702      -0.35997938       0.01302940
P        1.91349000       1.94200000       7.76613000      -0.08688246       0.11169394      -0.12562496
P        0.02843000       1.52844000       6.62131000      -0.09132097       0.00979295       0.41850586
P        5.98915000       4.94149000       6.02491000       0.04444324      -0.27247372       0.16114501
P        5.84247000       1.90315000       6.94732000       0.39805818      -0.24841101       0.35074293
P        2.80712000      12.81238000       7.35081000      -0.01154491      -0.20094271       0.33507159
P        4.90134000       0.16568000       7.93271000       0.23629251      -0.16214056       0.47761217
P        9.20015000       4.87104000       4.79899000       0.06817382      -0.26784365      -0.10335613
P       11.34706000       4.49130000       4.54218000      -0.06389897      -0.31541433      -0.24067597
P       11.91778000       6.52081000       5.14557000       0.57429958       0.15783472      -0.02195456
P       14.13912000       6.22169000       4.91270000       0.28798452       0.40540114       0.17075065
P        8.43153000       2.84485000       4.26074000       0.16168879       0.30408479      -0.40804764
P       10.07734000       2.71812000       7.41183000      -0.00576918      -0.18767110      -0.09486131
P       11.90673000       3.11579000       6.23727000       0.47331795       0.35988697       0.01309977
P       12.83948000       4.47241000       7.76613000       0.08704552      -0.11170641      -0.12563617
P       14.72456000       4.88597000       6.62131000       0.09112642      -0.00985923       0.41857788
P        8.76383000       1.47291000       6.02491000      -0.04448708       0.27252550       0.16114746
P        8.91052000       4.51125000       6.94732000      -0.39819775       0.24853850       0.35066230
P       11.94585000       6.43084000       7.35081000       0.01167490       0.20096246       0.33504104
P        9.85164000       6.24872000       7.93271000      -0.23635382       0.16219778       0.47763858
P        5.55284000      11.28544000       1.63686000      -0.06824516      -0.26769598       0.10332943
P        3.40593000      10.90571000       1.89367000       0.06385732      -0.31548767       0.24063840
P        2.83521000       0.10640000       1.29028000      -0.57439583       0.15787339       0.02192822
P        0.61386000      12.63610000       1.52315000      -0.28788670       0.40541154      -0.17071937
P        6.32144000       9.25926000       2.17511000      -0.16159765       0.30395929       0.40807623
P        4.67563000       9.13252000      11.89572000       0.00595243      -0.18752338       0.09485776
P        2.84625000       9.53019000       0.19858000      -0.47335787       0.35997817      -0.01303190
P        1.91349000      10.88681000      11.54142000      -0.08689064      -0.11167482       0.12563542
P        0.02843000      11.30038000      12.68624000      -0.09131367      -0.00988087      -0.41851772
P        5.98915000       7.88732000       0.41094000       0.04444014       0.27247235      -0.16114973
P        5.84247000      10.92566000      12.36023000       0.39805799       0.24839513      -0.35075991
P        2.80712000       0.01643000      11.95674000      -0.01153827       0.20094346      -0.33507163
P        4.90134000      12.66313000      11.37484000       0.23629008       0.16214337      -0.47760025
P        9.20015000       7.95776000       1.63686000       0.06817848       0.26796858       0.10334481
P       11.34706000       8.33751000       1.89367000      -0.06391574       0.31542041       0.24065568
P       11.91778000       6.30800000       1.29028000       0.57431082      -0.15781804       0.02194474
P       14.13912000       6.60712000       1.52315000       0.28797756      -0.40539432      -0.17075743
P        8.43153000       9.98396000       2.17511000       0.16170719      -0.30415996       0.40804240
P       10.07734000      10.11070000      11.89572000      -0.00579540       0.18756128       0.09486115
P       11.90673000       9.71303000       0.19858000       0.47330869      -0.35995882      -0.01306871
P       12.83948000       8.35641000      11.54142000       0.08702943       0.11160963       0.12566680
P       14.72456000       7.94284000      12.68624000       0.09111710       0.00987082      -0.41857910
P        8.76383000      11.35590000       0.41094000      -0.04451279      -0.27250071      -0.16112472
P        8.91052000       8.31756000      12.36023000      -0.39815793      -0.24849385      -0.35066350
P       11.94585000       6.39797000      11.95674000       0.01169866      -0.20087916      -0.33506205
P        9.85164000       6.58009000      11.37484000      -0.23635034      -0.16219066      -0.47763952
P        9.20015000      11.28544000       8.07271000       0.06818572      -0.26772583       0.10335639
P       11.34706000      10.90571000       8.32952000      -0.06389076      -0.31550847       0.24066186
P       11.91778000       0.10640000       7.72613000       0.57429795       0.15789214       0.02192793
P       14.13912000      12.63610000       7.95900000       0.28798500       0.40540607      -0.17076285
P        8.43153000       9.25926000       8.61096000       0.16167254       0.30401360       0.40806037
P       10.07734000       9.13252000       5.45987000      -0.00579502      -0.18757173       0.09485419
P       11.90673000       9.53019000       6.63443000       0.47331795       0.35993810      -0.01307184
P       12.83948000      10.88681000       5.10557000       0.08704149      -0.11165481       0.12565745
P       14.72456000      11.30038000       6.25039000       0.09111669      -0.00989162      -0.41856062
P        8.76383000       7.88732000       6.84679000      -0.04449397       0.27246395      -0.16111746
P        8.91052000      10.92566000       5.92438000      -0.39816238       0.24845709      -0.35070010
P       11.94585000       0.01643000       5.52089000       0.01169079       0.20093986      -0.33505010
P        9.85164000      12.66313000       4.93899000      -0.23633817       0.16215340      -0.47763419
P        5.55284000       7.95776000       8.07271000      -0.06823791       0.26793874       0.10331785
P        3.40593000       8.33751000       8.32952000       0.06388229       0.31539960       0.24063222
P        2.83521000       6.30800000       7.72613000      -0.57440869      -0.15779929       0.02194502
P        0.61386000       6.60712000       7.95900000      -0.28787927      -0.40539980      -0.17071394
P        6.32144000       9.98396000       8.61096000      -0.16163229      -0.30410565       0.40805825
P        4.67563000      10.11070000       5.45987000       0.00595281       0.18751293       0.09486471
P        2.84625000       9.71303000       6.63443000      -0.47334861      -0.35999889      -0.01302877
P        1.91349000       8.35641000       5.10557000      -0.08687858       0.11162963       0.12564477
P        0.02843000       7.94284000       6.25039000      -0.09131408       0.00986008      -0.41853619
P        5.98915000      11.35590000       6.84679000       0.04445896      -0.27250911      -0.16115699
P        5.84247000       8.31756000       5.92438000       0.39805353      -0.24843189      -0.35072331
P        2.80712000       6.39797000       5.52089000      -0.01154614      -0.20088276      -0.33508359
P        4.90134000       6.58009000       4.93899000       0.23630225      -0.16218063      -0.47760558
P        9.20015000       1.54336000      11.23484000       0.06818281       0.26784567      -0.10335054
P       11.34706000       1.92310000      10.97803000      -0.06390728       0.31549373      -0.24066291
P       11.91778000      12.72241000      11.58142000       0.57431076      -0.15788821      -0.02193374
P       14.13912000       0.19271000      11.34855000       0.28798916      -0.40532722       0.17076736
P        8.43153000       3.56955000      10.69659000       0.16169014      -0.30408625      -0.40805114
P       10.07734000       3.69629000       0.97598000      -0.00579538       0.18756784      -0.09485964
P       11.90673000       3.29862000      12.67312000       0.47330711      -0.35993931       0.01306935
P       12.83948000       1.94200000       1.33028000       0.08703331       0.11167393      -0.12564700
P       14.72456000       1.52844000       0.18546000       0.09112398       0.00980370       0.41854876
P        8.76383000       4.94149000      12.46076000      -0.04449707      -0.27246532       0.16111274
P        8.91052000       1.90315000       0.51147000      -0.39816258      -0.24847298       0.35068312
P       11.94585000      12.81238000       0.91496000       0.01169743      -0.20093910       0.33505005
P        9.85164000       0.16568000       1.49686000      -0.23634059      -0.16215059       0.47764612
P        5.55284000       4.87104000      11.23484000      -0.06823325      -0.26781380      -0.10332917
P        3.40593000       4.49130000      10.97803000       0.06386553      -0.31539352      -0.24065250
P        2.83521000       6.52081000      11.58142000      -0.57439746       0.15781597      -0.02195485
P        0.61386000       6.22169000      11.34855000      -0.28788622       0.40540662       0.17070716
P        6.32144000       2.84485000      10.69659000      -0.16161389       0.30403049      -0.40806350
P        4.67563000       2.71812000       0.97598000       0.00592659      -0.18762275      -0.09486488
P        2.84625000       3.11579000      12.67312000      -0.47335786       0.35992704       0.01305983
P        1.91349000       4.47241000       1.33028000      -0.08689467      -0.11172642      -0.12561414
P        0.02843000       4.88597000       0.18546000      -0.09132341      -0.00984849       0.41853498
P        5.98915000       1.47291000      12.46076000       0.04443325       0.27253391       0.16117973
P        5.84247000       4.51125000       0.51147000       0.39809336       0.24847653       0.35072211
P        2.80712000       6.43084000       0.91496000      -0.01152238       0.20096606       0.33506258
P        4.90134000       6.24872000       1.49686000       0.23630573       0.16218775       0.47760463
104
Lattice="14.889483 0.0 0.0 0.0 12.391801 -1e-06 0.0 -2e-06 13.347013" Properties=species:S:1:pos:R:3:forces:R:3 energy=-570.9089064174498 hash=2a03cfe65dbe78e74669f4a756e0817d virial="26.3757318784 0.0 0.0 0.0 11.6352465281 -0.0 0.0 -0.0 5.35105200861" config_type=rss_3c pressure=0.005869352902749718 uploaded="2020-04-10 10:56:53.293000" hash_structure=389247ae759652655bed27dccf1a710e filename=rss_3c/rss_3c_mbd2.xyz username=gabor stress="-0.009490557250455384 7.3332217242775654e-09 -3.739215111192814e-09 7.3332217242775654e-09 -0.005891514990043989 -8.829955200358986e-08 -3.739215111192814e-09 -8.829955200358986e-08 -0.000979524461785438" volume=2462.6241389572056 n_atoms=104 free_energy=-569.77517532 modified="2020-04-10 10:56:53.293000" formula=P104 miguel_caro=T pbc="T T T"
P       13.33855000       1.06165000      11.95313000      -0.30128207       0.21304624       0.17159714
P       11.16165000       1.34697000      11.59177000      -0.30677523       0.18742514       0.01291628
P       10.27593000      11.89413000      12.35433000      -0.16747076       0.32743090      -0.36815653
P        8.16584000       0.09854000      11.85261000      -0.05273769      -0.12122397       0.51633513
P       13.77690000       3.12620000      11.20159000      -0.02880304       0.09806418      -0.54865300
P       12.15737000       3.40535000       0.98354000       0.04678787      -0.01997167       0.24476839
P       10.45252000       2.90202000      13.05469000      -0.11819250      -0.27389457      -0.31307244
P        9.40458000       1.86157000       1.37042000      -0.07593079      -0.07575783      -0.08919587
P        7.55619000       1.51609000       0.15572000       0.04313954       0.03305984       0.35312584
P       13.37872000       4.56250000      12.87660000       0.14289655       0.02606997      -0.18550427
P       13.41294000       1.59319000       0.76070000       0.52686807       0.09593876       0.16173730
P       10.24094000      12.20672000       1.19632000      -0.21637769      -0.14985702       0.20489576
P       12.35360000      12.32120000       1.74348000       0.28306325      -0.25384314       0.30316248
P        1.55096000       5.13427000      11.95313000       0.30148934      -0.21305113       0.17157390
P        3.72788000       4.84895000      11.59177000       0.30663663      -0.18734619       0.01294699
P        4.61360000       6.69360000      12.35433000       0.16745282      -0.32751991      -0.36818215
P        6.72369000       6.09738000      11.85261000       0.05272418       0.12129476       0.51634734
P        1.11262000       3.06972000      11.20159000       0.02880761      -0.09807611      -0.54864733
P        2.73215000       2.79057000       0.98354000      -0.04669301       0.02004675       0.24473837
P        4.43701000       3.29390000      13.05469000       0.11810461       0.27389251      -0.31305399
P        5.48494000       4.33435000       1.37042000       0.07601511       0.07593465      -0.08921295
P        7.33334000       4.67984000       0.15572000      -0.04320914      -0.03311303       0.35318130
P        1.51081000       1.63342000      12.87660000      -0.14298194      -0.02606366      -0.18552201
P        1.47659000       4.60274000       0.76070000      -0.52688996      -0.09597418       0.16174848
P        4.64859000       6.38102000       1.19632000       0.21639241       0.14970082       0.20491579
P        2.53593000       6.26653000       1.74348000      -0.28305071       0.25385731       0.30315259
P        5.89381000       5.13427000       8.06739000      -0.30130211      -0.21302524      -0.17156532
P        3.71691000       4.84895000       8.42875000      -0.30680412      -0.18735887      -0.01294420
P        2.83119000       6.69360000       7.66619000      -0.16745916      -0.32750750       0.36820422
P        0.72110000       6.09738000       8.16790000      -0.05274201       0.12132118      -0.51619660
P        6.33215000       3.06972000       8.81893000      -0.02870467      -0.09805897       0.54866111
P        4.71263000       2.79057000       5.68996000       0.04681946       0.02003566      -0.24467825
P        3.00778000       3.29390000       6.96583000      -0.11815634       0.27390801       0.31304825
P        1.95984000       4.33435000       5.30309000      -0.07591391       0.07592823       0.08918731
P        0.11145000       4.67984000       6.51779000       0.04312374      -0.03313734      -0.35320903
P        5.93398000       1.63342000       7.14392000       0.14286093      -0.02603180       0.18546540
P        5.96820000       4.60274000       5.91281000       0.52680030      -0.09601504      -0.16181542
P        2.79620000       6.38102000       5.47719000      -0.21648171       0.14968025      -0.20492956
P        4.90885000       6.26653000       4.93003000       0.28315087       0.25377809      -0.30319927
P        8.99570000       1.06165000       8.06739000       0.30151120       0.21308414      -0.17157105
P       11.17262000       1.34698000       8.42875000       0.30664079       0.18728863      -0.01290520
P       12.05834000      11.89413000       7.66619000       0.16742626       0.32748980       0.36818014
P       14.16843000       0.09854000       8.16790000       0.05273776      -0.12121143      -0.51619059
P        8.55736000       3.12620000       8.81893000       0.02875227       0.09809126       0.54865991
P       10.17689000       3.40535000       5.68996000      -0.04665717      -0.01998449      -0.24465471
P       11.88175000       2.90202000       6.96583000       0.11807210      -0.27379888       0.31301787
P       12.92968000       1.86157000       5.30309000       0.07605381      -0.07578498       0.08915995
P       14.77808000       1.51609000       6.51779000      -0.04317953       0.03308663      -0.35320863
P        8.95555000       4.56250000       7.14392000      -0.14293099       0.02608410       0.18551664
P        8.92133000       1.59319000       5.91281000      -0.52692897       0.09589962      -0.16177682
P       12.09333000      12.20672000       5.47719000       0.21635384      -0.14988718      -0.20492324
P        9.98067000      12.32120000       4.93003000      -0.28305490      -0.25383906      -0.30320656
P        1.55096000      11.33017000       1.39388000       0.30148635      -0.21306440      -0.17158413
P        3.72788000      11.04485000       1.75524000       0.30663391      -0.18730537      -0.01291300
P        4.61360000       0.49770000       0.99268000       0.16742861      -0.32750689       0.36819453
P        6.72369000      12.29329000       1.49440000       0.05272266       0.12121604      -0.51634040
P        1.11262000       9.26562000       2.14542000       0.02881854      -0.09803700       0.54868293
P        2.73215000       8.98647000      12.36347000      -0.04661142       0.02001672      -0.24471283
P        4.43701000       9.48980000       0.29233000       0.11812499       0.27391550       0.31293011
P        5.48494000      10.53025000      11.97659000       0.07598798       0.07590350       0.08926971
P        7.33334000      10.87574000      13.19129000      -0.04321322      -0.03310494      -0.35317287
P        1.51081000       7.82933000       0.47041000      -0.14296493      -0.02618136       0.18552673
P        1.47659000      10.79863000      12.58631000      -0.52688886      -0.09583168      -0.16177289
P        4.64859000       0.18512000      12.15069000       0.21639848       0.14967797      -0.20491390
P        2.53593000       0.07063000      11.60353000      -0.28305709       0.25376195      -0.30314994
P       13.33855000       7.25756000       1.39388000      -0.30129092       0.21297075      -0.17160861
P       11.16165000       7.54288000       1.75524000      -0.30678435       0.18729272      -0.01287839
P       10.27593000       5.69823000       0.99268000      -0.16744248       0.32748865       0.36819218
P        8.16584000       6.29444000       1.49440000      -0.05273298      -0.12119494      -0.51633710
P       13.77690000       9.32210000       2.14542000      -0.02880338       0.09812523       0.54867214
P       12.15737000       9.60125000      12.36347000       0.04673774      -0.01999075      -0.24472353
P       10.45252000       9.09792000       0.29233000      -0.11818987      -0.27382942       0.31293364
P        9.40458000       8.05747000      11.97659000      -0.07589405      -0.07581608       0.08924491
P        7.55619000       7.71199000      13.19129000       0.04312920       0.03300819      -0.35314637
P       13.37872000      10.75840000       0.47041000       0.14289653       0.02609621       0.18550700
P       13.41294000       7.78909000      12.58631000       0.52686713       0.09595378      -0.16174641
P       10.24094000       6.01081000      12.15069000      -0.21639490      -0.14976262      -0.20491463
P       12.35360000       6.12530000      11.60353000       0.28305006      -0.25386459      -0.30316283
P        8.99570000       7.25755000       5.27962000       0.30150351       0.21309788       0.17166808
P       11.17262000       7.54288000       4.91827000       0.30662124       0.18728725       0.01281180
P       12.05834000       5.69823000       5.68082000       0.16743652       0.32747286      -0.36807139
P       14.16843000       6.29444000       5.17911000       0.05275458      -0.12119971       0.51628154
P        8.55736000       9.32210000       4.52808000       0.02875786       0.09808802      -0.54865380
P       10.17689000       9.60125000       7.65705000      -0.04665637      -0.01996920       0.24468491
P       11.88175000       9.09792000       6.38118000       0.11808245      -0.27379081      -0.31299420
P       12.92968000       8.05747000       8.04392000       0.07602937      -0.07575531      -0.08909885
P       14.77808000       7.71199000       6.82923000      -0.04315727       0.03304224       0.35313392
P        8.95555000      10.75840000       6.20309000      -0.14295080       0.02605969      -0.18548113
P        8.92133000       7.78909000       7.43421000      -0.52693656       0.09589419       0.16166887
P       12.09333000       6.01082000       7.86983000       0.21635532      -0.14991519       0.20481778
P        9.98067000       6.12530000       8.41699000      -0.28305931      -0.25386030       0.30316795
P        5.89381000      11.33017000       5.27962000      -0.30129383      -0.21304006       0.17165973
P        3.71691000      11.04485000       4.91827000      -0.30679398      -0.18735145       0.01284663
P        2.83119000       0.49770000       5.68082000      -0.16744646      -0.32749290      -0.36808935
P        0.72110000      12.29329000       5.17911000      -0.05276497       0.12121786       0.51627080
P        6.33215000       9.26562000       4.52808000      -0.02871113      -0.09805782      -0.54865628
P        4.71263000       8.98647000       7.65705000       0.04681560       0.02002016       0.24470834
P        3.00778000       9.48980000       6.38118000      -0.11816779       0.27390489      -0.31302312
P        1.95984000      10.53025000       8.04392000      -0.07588929       0.07591948      -0.08913442
P        0.11145000      10.87574000       6.82923000       0.04312883      -0.03309936       0.35306765
P        5.93398000       7.82932000       6.20309000       0.14288140      -0.02600207      -0.18543132
P        5.96820000      10.79864000       7.43421000       0.52680693      -0.09600008       0.16170899
P        2.79620000       0.18512000       7.86983000      -0.21648686       0.14969295       0.20483124
P        4.90885000       0.07063000       8.41699000       0.28315604       0.25379540       0.30316070
104
Lattice="12.943911 0.24864 -0.016578 0.24758 13.078507 -0.10008 -0.023239 -0.133746 16.279084" Properties=species:S:1:pos:R:3:forces:R:3 energy=-568.2265799824735 hash=e4724269cb8291177014383e86479694 virial="9.43688046502 -2.29643045408 -1.48755793306 -2.29643045408 17.2412984863 -0.689551531013 -1.48755793306 -0.689551531013 -1.39997563866" config_type=rss_3c pressure=0.0030588429534144515 uploaded="2020-04-10 10:56:53.299000" hash_structure=2f85a93544bd858272d2942ccbbe2898 filename=rss_3c/rss_3c_mbd2.xyz username=gabor stress="-0.0024764627095010495 0.00011749347152063357 0.0002392834506669495 0.00011749347152063357 -0.005789919434188742 0.0005794594855558128 0.0002392834506669495 0.0005794594855558128 -0.004848675534976497" volume=2754.658509512892 n_atoms=104 free_energy=-568.50559371 modified="2020-04-10 10:56:53.299000" formula=P104 miguel_caro=T pbc="T T T"
P       11.56466000      11.71978000       2.43582000      -0.36299954       0.12540109      -0.48093183
P       11.51399000      10.28244000       4.11301000      -0.10967715      -0.51908691      -0.07307922
P       11.50866000      11.84246000       5.67230000      -0.28087694      -0.09836786       0.55250058
P       11.32961000      10.55544000       7.56835000      -0.16975123       0.22935344       0.17995353
P       11.36653000      10.43519000       0.54418000      -0.04241620       0.16294990      -0.22218969
P        8.41953000      10.30399000       2.34860000       0.68277940      -0.19781419      -0.00251989
P        9.47892000       9.35829000       4.07124000      -0.26865502      -0.04671693      -0.00346093
P        8.37528000      10.36833000       5.72777000       0.72568871      -0.25996924       0.13312639
P        9.52161000       9.27819000       7.32820000      -0.58903037      -0.20774777      -0.06616994
P        9.55102000       9.18788000       0.76564000      -0.57986351      -0.56014541       0.12950642
P        9.42757000      12.27072000       2.11207000      -0.03313751       0.30972601       0.05575387
P        9.36073000      12.35953000       5.93696000      -0.10524113       0.25693981      -0.10060802
P        8.55582000      12.90350000       3.99024000      -0.43848694       0.39204378       0.04114311
P        1.67220000       1.41810000       2.34905000       0.28073755       0.10459927      -0.55848000
P        1.66806000       2.97743000       3.90906000       0.10007422       0.51381184       0.08035697
P        1.61706000       1.53883000       5.58569000       0.36298977      -0.11661432       0.48489399
P        1.81424000       2.82386000       7.47870000       0.02003478      -0.17249826       0.20901981
P        1.84999000       2.70680000       0.45327000       0.16562899      -0.22553522      -0.17297454
P        4.80419000       2.89448000       2.29303000      -0.71864648       0.25624526      -0.12864695
P        3.70225000       3.90173000       3.95210000       0.27193629       0.04908005      -0.00061810
P        4.76254000       2.95520000       5.67444000      -0.68842569       0.20030423      -0.00359961
P        3.62796000       4.07029000       7.25545000       0.59829795       0.58352253      -0.11826767
P        3.65850000       3.98484000       0.69258000       0.58482655       0.19225261       0.07133540
P        3.81996000       0.90254000       2.08223000       0.10763388      -0.25812357       0.10648480
P        3.75452000       0.98849000       5.90958000       0.02884930      -0.31167059      -0.06238056
P        4.62487000       0.35887000       4.02936000       0.44179834      -0.40141465      -0.03188133
P       11.41600000       1.89460000      13.69041000      -0.17420765       0.52946492       0.45959062
P        9.95914000       2.00931000      12.04039000      -0.65767634       0.04131993       0.00977905
P       11.45166000       2.02195000      10.44108000      -0.25436230       0.43706693      -0.61240194
P       10.03836000       2.21202000       8.63452000       0.42814609       0.11317296      -0.24317327
P       10.04498000       2.01667000      15.52042000       0.14203803       0.02027902       0.51104653
P        9.97948000       5.06385000      13.83963000      -0.18435858      -0.68471933       0.08392198
P        9.02188000       4.06409000      12.10844000      -0.14144436      -0.07317254       0.06768386
P        9.95475000       5.17064000      10.43283000      -0.18319539      -0.55105324      -0.12142556
P        8.74879000       4.00422000       8.89693000       0.17159663       0.62391860       0.20741129
P        8.76321000       3.83317000      15.32729000       0.15015873       0.67372691      -0.22862243
P       11.95476000       4.03374000      14.03792000       0.23352071       0.08052359       0.00286830
P       11.94706000       4.18053000      10.21152000       0.25586002       0.05781756      -0.09328423
P       12.64760000       4.88573000      12.15138000       0.47695234       0.30585929       0.06136700
P        1.70872000      11.10480000      13.86087000       0.25437431      -0.43337341       0.62401945
P        3.20044000      11.11226000      12.26045000       0.65282851      -0.05707433      -0.00501909
P        1.74096000      11.23315000      10.61258000       0.17195445      -0.53388863      -0.45500122
P        3.10908000      11.10916000       8.78138000      -0.13477589      -0.02020835      -0.51113433
P        3.12012000      10.91159000      15.66957000      -0.42628255      -0.09843261       0.22962042
P        3.19611000       7.95153000      13.87593000       0.19001513       0.54946908       0.10009467
P        4.12529000       9.05142000      12.19393000       0.16108426       0.08878316      -0.07630080
P        3.16668000       8.05938000      10.45833000       0.20144237       0.68182874      -0.06617298
P        4.39014000       9.29231000       8.97700000      -0.15105420      -0.67260359       0.23024557
P        4.40873000       9.11986000      15.40567000      -0.17830879      -0.62821722      -0.20896280
P        1.20749000       8.94784000      14.09532000      -0.26924182      -0.05130347       0.08547176
P        1.19460000       9.09534000      10.26306000      -0.23518833      -0.07236342       0.00825286
P        0.50942000       8.24536000      12.15346000      -0.47755767      -0.31262601      -0.06719782
P       10.84316000       2.22637000       2.48414000      -0.39438800       0.06645976       0.23223716
P       11.28758000       3.80122000       3.98025000       0.41760915      -0.36894349       0.08538429