2
Lattice="20.0 0.0 0.0 0.0 20.0 0.0 0.0 0.0 20.0" Properties=species:S:1:pos:R:3:forces:R:3 energy=-7.97816078920246 cutoff=-1.0 nneightol=1.2 stress="-0.002377577814912212 -0.0 -0.0 -0.0 -0.0 -0.0 -0.0 -0.0 -0.0" pbc="T T T"
P       10.85000000      10.00000000      10.00000000      11.18860940       0.00000000       0.00000000
P        9.15000000      10.00000000      10.00000000     -11.18860940       0.00000000       0.00000000
2
Lattice="20.0 0.0 0.0 0.0 20.0 0.0 0.0 0.0 20.0" Properties=species:S:1:pos:R:3:forces:R:3 energy=-8.783007904431695 cutoff=-1.0 nneightol=1.2 stress="-0.00114762676741304 -0.0 -0.0 -0.0 -0.0 -0.0 -0.0 -0.0 -0.0" pbc="T T T"
P       10.90000000      10.00000000      10.00000000       5.10057116       0.00000000       0.00000000
P        9.10000000      10.00000000      10.00000000      -5.10057116       0.00000000       0.00000000
4
Lattice="20.0 0.0 0.0 0.0 20.0 0.0 0.0 0.0 20.0" Properties=species:S:1:pos:R:3:forces:R:3 energy=-12.54894070002481 cutoff=-1.0 nneightol=1.2 stress="-0.003952474979256016 -0.0 -0.0 -0.0 -0.003952474979255963 7.216449660063518e-17 -0.0 7.216449660063518e-17 -0.002540534921118426" pbc="T T T"
P       11.10000000      10.00000000       9.57218260      14.37266218       0.00000000     -11.87674665
P        8.90000000      10.00000000       9.57218260     -14.37266218       0.00000000     -11.87674665
P       10.00000000      11.10000000      10.42781740       0.00000000      14.37266218      11.87674665
P       10.00000000       8.90000000      10.42781740       0.00000000     -14.37266218      11.87674665
4
Lattice="20.0 0.0 0.0 0.0 20.0 0.0 0.0 0.0 20.0" Properties=species:S:1:pos:R:3:forces:R:3 energy=-17.598848318908875 cutoff=-1.0 nneightol=1.2 stress="0.00040428035875121604 -0.0 -1.3877787807814457e-20 -0.0 0.00040428035875135574 -1.3963830092222906e-16 -1.3877787807814457e-20 -1.3963830092222906e-16 0.0012614519598442763" pbc="T T T"
P       11.10000000      10.00000000       8.82218260      -1.47008611      -0.00000000       2.14200186
P        8.90000000      10.00000000       8.82218260       1.47008611      -0.00000000       2.14200186
P       10.00000000      11.10000000      11.17781740       0.00000000      -1.47008611      -2.14200186
P       10.00000000       8.90000000      11.17781740       0.00000000       1.47008611      -2.14200186
4
Lattice="20.0 0.0 0.0 0.0 20.0 0.0 0.0 0.0 20.0" Properties=species:S:1:pos:R:3:forces:R:3 energy=-15.867859614231614 cutoff=-1.0 nneightol=1.2 stress="0.0012287987801166873 -2.168404344971009e-22 -0.0 -2.168404344971009e-22 0.0012287987801166717 -1.5641654638187675e-16 -0.0 -1.5641654638187675e-16 -0.00024402188439245185" pbc="T T T"
P       11.10000000      10.00000000       8.37218260      -4.46833557      -0.00000000      -0.29982969
P        8.90000000      10.00000000       8.37218260       4.46833557      -0.00000000      -0.29982969
P       10.00000000      11.10000000      11.62781740       0.00000000      -4.46833557       0.29982969
P       10.00000000       8.90000000      11.62781740       0.00000000       4.46833557       0.29982969
248
Lattice="19.207643 0.0 0.0 0.0 19.207643 0.0 0.0 0.0 19.207643" Properties=species:S:1:pos:R:3:forces:R:3 energy=-1311.759469641453 hash=0a52d05be110f62b0b8ba1dd06f580af virial="0.494352900131 -7.65209813893 7.72109612803 -7.65209813893 14.1363610828 -13.2346104406 7.72109612803 -13.2346104406 19.6957855958" config_type=liq_12_03_01_liqP4 pressure=0.0016146784108647724 uploaded="2020-04-10 10:56:38.097000" hash_structure=7256de5227695c2198da4cf346617eea filename=liq_12_03_01_liqP4/liq_12_03_01_liqP4_mbd2.xyz username=gabor stress="-0.0006897356815362153 0.0006826104981987117 -0.0012836939416072419 0.0006826104981987117 -0.0017806066730992292 0.0019321990812721486 -0.0012836939416072419 0.0019321990812721486 -0.003224744697391864" volume=7086.343911736328 n_atoms=248 free_energy=-1310.85738039 modified="2020-04-10 10:56:38.097000" formula=P248 miguel_caro=T pbc="T T T"
P       19.07786000       1.83802000       2.14603000       0.78718645       0.44429387      -0.15451900
P        1.84009000       2.77358000       1.36927000      -0.82038680      -1.00224194       0.63350615
P        1.74336000       0.66243000       2.09671000      -0.28160889      -0.65241285      -1.22685166
P        1.56765000       2.19952000       3.55407000      -0.20520055       0.76399481       0.06295319
P       17.28258000      18.89348000       5.16478000      -0.16628158       0.85810925       0.78433349
P       15.20283000      18.88955000       4.58162000      -0.53094810       0.56922200      -1.70988852
P       16.13352000       1.63244000       5.24472000      -0.23266507      -0.52213675      -0.64639175
P       15.56991000       0.04130000       6.60745000       0.96548193      -0.33149618       1.39800918
P        2.46893000       6.49209000       9.63336000      -0.42911206       0.53451774       0.22168915
P        0.67446000       6.85221000      11.06187000       0.84753558       1.16039590       0.49239483
P        1.57443000       4.92107000      10.78613000       1.01300826      -2.01011589       1.85511118
P        0.45238000       5.76483000       9.27418000      -1.57873537      -0.21417232      -3.01719206
P        2.46336000      18.93916000      13.69707000      -0.35251817       0.91631751       0.08382078
P        0.72883000       0.26124000      12.17388000       1.59934989      -1.57394687       1.55060576
P        1.05738000      17.37769000      13.20124000      -0.48782143       0.72431047      -0.83814557
P        2.49231000      18.17408000      11.69484000      -0.00531041      -0.49140615      -0.64003115
P        1.38800000       9.37700000       6.05427000       0.13190600      -0.23912958      -1.06744438
P        2.10276000       9.39052000       3.85828000      -1.61081788       0.15736806       1.46435757
P        1.78441000      11.24473000       4.98965000      -0.55984101      -0.14161516      -0.14703897
P       19.02665000      10.08705000       4.61127000       2.64394336      -0.45244322      -0.30044392
P       17.12988000       8.17216000       9.35508000      -1.10269822      -0.14916549      -0.67490515
P       16.12170000       6.39269000       8.45186000       0.07911143       0.33755532      -0.05229847
P       15.74389000       8.45077000       7.56637000       0.23748196      -1.27910386       0.83946002
P       14.90429000       7.89065000       9.53083000       0.60739644      -0.09553858       0.14291126
P        3.95699000       6.81330000      12.71951000      -1.10417382       0.31854075       0.29933866
P        5.58345000       8.01383000      12.12671000       1.93861578       0.78102408       0.42334983
P        4.26220000       8.76199000      13.83772000      -0.02914772      -0.59216572      -2.16646343
P        3.67527000       8.78640000      11.58075000      -0.67626327      -0.23101152       1.41508378
P        1.01983000       8.93949000      14.88483000      -1.77195450      -0.35756964      -0.66599437
P        2.45900000       8.55236000      16.32550000       0.66439687      -1.07346649       1.53669031
P        1.53976000       6.79518000      15.20026000       0.21859432       0.87722018       0.70726039
P        0.39531000       7.81703000      16.83387000       0.54266053       0.60926035      -1.31854711
P        6.11089000      12.48537000       4.19445000       0.78005592      -2.43993514       1.48518800
P        5.05776000      13.62600000       2.84621000      -0.62929165       2.12532106      -0.68926161
P        6.35435000      14.57964000       4.48239000      -0.77058269       0.28897637      -0.35425605
P        4.35606000      13.64102000       4.95309000       0.94612689      -0.51359439      -0.66645905
P        9.90000000      12.31790000       7.53923000      -0.59051318       0.80222985       0.03290728
P        8.94634000      14.24892000       6.79370000      -0.21050275      -1.24802133       0.92203690
P        8.91260000      13.71602000       9.04242000      -1.04488932      -1.07051148      -2.70588722
P        7.66022000      12.40318000       7.32798000       1.52184827       1.67349212       1.52650585
P        2.69679000      14.27808000      15.94839000      -1.24268209      -0.52290306      -0.39756320
P        2.86109000      12.91954000      14.26064000       1.47478759      -0.10207847      -1.50226120
P        1.32900000      14.50106000      14.14683000       0.34577447      -0.16501215       0.47565349
P        1.11737000      12.66089000      15.38832000      -0.62795885       0.75028839       1.19721530
P        0.19580000      11.36124000      18.52324000      -0.74608162      -0.09254385      -1.01805485
P        0.73462000      13.00233000       0.61568000      -0.23161065      -0.08956568       0.40862240
P        1.50957000      10.97325000       0.94404000       0.88287756      -0.19293986       0.67201099
P       18.60458000      11.35195000       1.36954000       0.19545459       0.45333437      -0.34717180
P        1.19715000      17.04527000       4.98874000       0.93052410      -0.19338427       0.53434530
P       18.42777000      16.21705000       5.00572000      -0.67464407      -1.31471156       1.04223755
P        0.94096000      14.88444000       4.38589000      -0.10632690       0.43214765       0.59910792
P        0.21693000      16.52856000       3.16165000      -0.11464329       0.37260704      -1.91282516
P        1.01236000       9.92171000       9.41814000      -0.46400784      -1.80920749       0.17716938
P        2.74727000      11.18371000       9.52578000      -0.11907985       0.68953442       0.63833376
P        0.64855000      11.77436000      10.43653000       1.77326942       0.92593174      -0.14309595
P        1.06560000      11.70892000       8.28212000      -0.32342823       1.00834586      -1.30350977
P        3.80117000      14.58010000       9.21055000       1.64302163       0.07668823       2.05162251
P        2.24618000      16.10580000       9.15115000      -0.14865918      -0.53733967      -1.10487529
P        3.10839000      14.84849000       7.29066000      -1.62758102       1.91201993      -0.49430468
P        4.19877000      16.60672000       8.25185000      -0.26219584      -1.08778522       0.14332141
P       18.95602000      17.58850000      16.76564000       2.49563807      -0.12180089      -0.51767019
P        0.17738000      16.52856000      18.76414000      -1.26657256       1.37099296      -1.07277974
P       17.30463000      17.17667000      17.94221000      -0.93272483      -1.39031925       1.58021673
P       18.68312000      18.71819000      18.61599000       0.61622222      -0.34481599       0.48775423
P        3.75807000       6.26861000      18.83772000      -0.68921384       0.39908927       0.53807838
P        2.61018000       7.54484000       1.11055000       0.19881024       0.36286545      -0.43762608
P        3.24836000       5.54686000       1.67318000      -0.33913458      -0.13933963      -0.30065124
P        1.62066000       5.81509000       0.21568000       0.47314157       0.09843022      -0.20476500
P        5.73652000       1.66169000       1.67546000      -0.19005375       1.04394490       0.93849990
P        6.35060000       3.33481000       0.45547000       0.01376835       0.65159825      -1.86124909
P        7.57211000       2.81834000       2.13116000       1.52088864      -1.54455837      -0.51787016
P        5.87254000       3.90499000       2.45391000      -2.67707342       0.17370235       0.63477270
P        5.42576000       3.49020000      10.25292000       0.73335213       1.05351056       0.38737870
P        7.27570000       2.17394000      10.41615000      -1.81738294       0.12138267      -1.01974690
P        5.46932000       1.76824000       8.99459000       0.44147624      -1.11121386       0.34129271
P        5.29405000       1.57762000      11.22531000       0.10912742      -0.58355066      -0.32500910
P        3.35427000       1.64202000      17.24673000      -0.10289413       1.48849372      -0.06579676
P        3.59075000       3.92502000      16.73871000      -0.68779785      -0.86205899       0.23666172
P        2.51259000       2.49734000      15.35809000       0.35319380       0.40560740       0.30688373
P        4.70537000       2.43007000      15.66162000      -0.51159593      -1.18778017       0.76743164
P        6.00329000       7.31035000       2.68615000       0.59229113       0.27970179       0.35537525
P        5.65367000       9.45857000       3.28249000       0.34409442      -0.61300944       0.00823805
P        5.80178000       8.87166000       1.18198000      -0.24510051       0.10266136      -0.73241100
P        7.62584000       8.86331000       2.39779000      -0.81047365      -0.63605961       0.76647482
P        4.12384000       5.69345000       5.02247000      -0.32464832      -0.31245484      -0.15552045
P        2.54302000       4.19741000       5.60064000      -0.38132757       0.61323891      -0.26343145
P        3.89429000       5.02163000       7.08019000       0.44777743      -0.04774501       0.94347516
P        4.63139000       3.59978000       5.52944000       0.44873416      -0.29357410       0.19013582
P        7.16902000       4.87340000      14.62399000      -0.11490312      -0.20701444      -0.65406578
P        7.99426000       2.85086000      14.67026000      -0.62020894      -0.14613204       1.01848408
P        8.00457000       3.76558000      12.78294000       0.10969811       1.95359125      -0.87728469
P        6.05554000       3.22750000      13.59782000       0.56718945       0.82638404      -0.24206339
P        5.93879000       7.92982000      16.15797000       0.80355469       0.02673933       0.24924141
P        7.04761000       9.53081000      17.26331000       0.51670245      -0.75366369      -1.43136399
P        7.50927000       9.02606000      14.99429000       0.28522149      -0.88106946       2.47832798
P        8.04625000       7.56964000      16.84954000      -0.70418955       1.23301005      -1.40775616
P        4.94900000       8.97033000       8.68462000       0.13637229       2.83304640       3.02000707
P        4.30612000       8.13572000       6.96665000      -1.86423509      -2.27426642      -2.78534514
P        6.42211000       8.21559000       7.41553000       1.06006269      -0.05292665      -1.52220871
P        5.27188000      10.02001000       6.64058000       0.73639372      -0.08697816       1.45013805
P       12.80679000      14.04805000      13.05353000       0.35683608      -1.40869248      -1.35681215
P       10.75922000      14.57376000      12.07256000       0.62644080      -1.06029720      -0.58695448
P       12.40551000      15.95804000      12.13510000       0.86209678       1.39778338      -0.65025796
P       11.41981000      15.30227000      13.95082000      -1.15865018       1.74656347       2.03499921
P        8.03025000      13.40002000      12.30374000      -1.84313547      -0.70476278       0.01459997
P        6.64961000      11.78925000      13.22450000       0.87166494       0.20021196      -1.31813706
P        7.13134000      11.85532000      10.93656000       0.81594831      -0.82664360       0.79007535
P        5.78934000      13.24394000      11.81660000       0.03227955       1.23675585       0.52787362
P        4.09323000      13.02198000      18.91425000       1.23381700      -0.70016256      -0.91710688
P        5.98284000      11.70095000      18.94398000       0.03691936       1.31453624       0.54915403
P        5.46713000      12.80773000      17.08314000      -0.10408979       0.86410949       0.80057725
P        4.32896000      11.12687000      17.74827000      -1.71885880      -0.94715426      -0.15284252
P        5.05559000      16.96031000       4.90175000      -1.05172790       1.97977113      -1.81279570
P        5.77822000      17.89196000       2.94540000       0.35616516      -0.30571996       0.61268009
P        4.94873000      19.19351000       4.50598000      -0.21994305      -0.32545892      -0.06266169
P        3.61741000      17.96637000       3.18682000       1.07883377      -0.69079970       1.51050465
P        0.99805000       0.25706000       8.63286000       0.19156635       0.30061531      -0.45692334
P        1.84415000       2.32447000       8.51112000       0.07596845      -0.65504325      -0.46266124
P        2.82366000       0.61126000       7.39644000      -0.35685896       0.36277332       0.44759759
P        0.88468000       1.38543000       6.71146000      -0.05239855       0.01514528       0.44275454
P        5.76379000      16.61532000      12.49207000       1.61115394       0.66708097      -0.38872742
P        6.89284000      18.36218000      13.30051000       0.02497829      -0.28746493      -0.53600020
P        8.05816000      17.05147000      11.85371000      -2.28936671      -0.03491343       0.60071359
P        7.45823000      16.35327000      13.88960000      -0.07323017      -0.09702269      -0.59336805
P        5.17089000      18.70417000      18.39844000       0.13570477      -0.21987560      -0.16795238
P        4.29921000      17.60734000      16.68145000      -0.90398088       0.44871473      -0.38824099
P        3.66363000      17.11822000      18.77146000       0.49316873      -0.07525660      -0.81973214
P        5.69981000      16.61851000      17.92467000       0.11696529      -0.57540745       1.21110705
P       11.22598000       4.75562000       0.52796000      -0.72315368      -0.55689231       0.94562097
P        9.93014000       6.37344000      19.08786000       0.39929607       0.70842494       0.46904596
P       11.47311000       6.67458000       1.53461000       0.23118072       0.78158930      -0.67948638
P        9.59330000       5.70135000       1.96221000       0.30166536      -0.97786825      -0.54199987
P       13.37881000       1.11059000       9.08733000       0.47607742      -0.17533706       0.36267002
P       11.75761000       0.80025000       7.67933000      -0.32776155      -0.98742403      -0.72984992
P       12.14276000       2.75668000       8.37330000       0.02454525       1.29336768       1.02008365
P       11.29240000       1.22808000       9.80404000       0.05477266       0.79427905      -1.39822541
P       12.24635000       1.09512000      12.66199000      -0.80860697      -0.86434395      -0.05667329
P       11.42555000      18.95326000      14.18471000      -0.37860682      -0.32243487      -0.22016245
P       10.49367000      18.88655000      12.07665000       1.09087325       0.57036896       2.09148553
P       10.20658000       1.44516000      13.47368000       0.94844088      -1.44814622      -0.87724090
P        8.86675000       2.64612000      17.78822000       0.98928375      -1.64509153       0.40054306
P        8.52097000       0.89704000      16.51900000      -0.94058995      -0.91288265      -0.60668780
P        9.08289000       0.40184000      18.52637000       0.87394109       1.29932324      -0.03166740
P       10.58322000       1.28693000      17.01063000      -0.87581608       0.38726051       1.24706279
P       11.96338000       8.97750000       5.44827000      -0.58331322       1.05913498       1.25272300
P       11.69152000       9.50398000       3.42885000      -0.58869376       0.17986650      -1.25443586
P       11.37769000      11.17190000       4.84640000      -0.33406332      -1.58421252       0.53638651
P        9.87307000       9.44157000       4.74175000       1.28103993       0.48031563      -0.25043777
P        7.55811000       3.09112000       7.15441000       0.32969959      -0.28021048      -0.95334222
P        9.65009000       3.68199000       6.76873000      -0.07392687       0.01536215      -0.31371673
P        8.06466000       5.18320000       6.92929000       0.06422200       0.55517451      -0.27936416
P        8.19354000       3.92545000       5.11067000      -0.34909041      -0.05533568       1.31703984
P       10.81156000       6.90340000      10.11828000      -0.31929943       0.09635371      -1.36524355
P        9.33618000       7.97780000      11.22671000      -0.83474186       0.80685079       1.45758637
P        8.63184000       6.58352000       9.72151000      -0.34139466      -1.56705902       0.55399706
P        9.40589000       8.45430000       9.11547000       1.36695158       0.59027272      -0.38512669
P       13.15428000      10.56645000      14.22044000      -0.43060318       0.85555726       0.71533840
P       11.21571000      10.51292000      13.24626000      -0.45693405      -0.07243694       0.28273501
P       11.48807000      12.07750000      14.81499000       0.56461137      -0.78468830      -0.31494994
P       11.39912000       9.96333000      15.40614000      -0.48435806      -0.55075949      -0.33834143
P        9.55008000       9.70564000       0.50564000      -0.36966269       0.19908839      -0.89945708
P       11.43249000      10.57081000      19.07062000       0.37897630       0.37182436      -0.46635718
P       10.21666000      11.61198000       1.32834000       0.48924320       0.34962746       1.74483136
P        9.55110000      11.64830000      18.54070000      -0.14523867      -1.36391070      -1.13102350
P       12.88308000      10.26326000       8.96941000      -1.98607447      -1.31523665      -0.49197873
P       13.99480000      12.01897000       9.03791000       0.69410121       1.59922536       0.92602598
P       13.95881000      10.62830000      10.80361000      -1.24510244       1.28742061      -0.53247584
P       12.06924000      11.99888000      10.20258000       1.89309468      -1.69404964      -0.25176384
P       16.11458000      17.37923000      12.66646000       0.33499930      -0.41497945      -0.22617910
P       16.28637000      15.86478000      14.30823000       0.94569727       0.47918847      -0.24270271
P       16.92145000      18.09185000      14.61581000      -0.60020877      -1.19389317      -0.45983129
P       14.82067000      17.41593000      14.39838000      -0.85949847       1.00759443       0.58705437
P       15.10673000      12.38953000      16.69332000       0.82783780       0.95041225      -0.52956532
P       15.92314000      13.81202000      18.29684000      -1.54283741      -0.43726700      -1.11582627
P       13.82737000      12.92986000      18.28495000      -0.03100079       1.07878558       0.86485379
P       14.33578000      14.52693000      16.79253000       0.72127754      -1.16564946       0.69477735
P        8.85910000      14.38026000       2.94845000      -0.29476546      -0.09412107       0.69666521
P       10.02418000      16.07734000       3.91173000      -0.30225809      -1.31656239      -2.56745381
P        9.32493000      16.02121000       1.59164000      -0.00536495       1.04867007       1.52775011
P       10.85001000      14.66000000       2.24194000       1.19575050       0.34856482       0.73619253
P        7.35910000      17.10546000       8.34280000       1.11067783      -0.33040576      -0.04059567
P        8.86465000      17.63154000       6.71042000       0.36164281      -1.22026285      -0.03474245
P        8.81610000      18.82140000       8.52222000      -1.77881302       0.05275135      -0.52364764
P        7.05385000      18.75987000       6.95397000       0.08228101       1.22214742       0.68338458
P       15.89359000      10.95022000      12.93066000       1.26288737       0.62926187       0.17297093
P       17.86874000      10.90178000      11.83193000      -1.45330464      -0.82168185      -0.76319570
P       17.90694000      11.16431000      13.90770000      -0.32654913       0.32000612       1.30721123
P       17.15663000      12.81163000      12.64841000      -0.07375053      -0.48281295       0.26302573
P        9.02317000      16.54675000      17.69035000      -0.96320187      -0.93529892      -0.32434834
P       10.10480000      14.82033000      16.90386000       0.46403872      -0.57288052       0.74949079
P        8.02054000      14.93310000      16.35162000       0.29666024       0.38039210       0.93517937
P        8.52372000      14.43449000      18.50218000       0.50804366       1.04432762      -1.22186917
P        9.98052000       0.91229000       4.78868000      -0.52555604      -0.15607589      -1.19177700
P        9.76943000      19.03733000       2.71946000       1.50110465       0.76468619       1.49659185
P       11.78431000       0.93543000       3.55416000      -1.30662705      -0.69292536      -0.97023470
P        9.91124000       1.98745000       2.78328000       2.15826537      -0.33380931       1.11416655
P       16.41151000       3.71180000      11.35452000      -0.05355047      -1.10765155      -0.02831583
P       16.02521000       1.47939000      11.39098000      -2.09057134      -0.28638812       1.34116604
P       17.96472000       2.11518000      11.00496000       1.01997042       1.33884229      -1.00206143
P       16.29290000       2.44114000       9.51842000       0.71431544       0.57946081      -0.50733631
P       17.78877000       1.72056000      14.44572000       0.23748603       0.00184078      -0.16811920
P       18.37134000       1.89136000      16.57890000      -1.48490693       0.36560465      -0.19350890
P       16.38994000       2.88979000      15.70916000       1.98501781      -0.34213849       0.31148017
P       18.50470000       3.63685000      15.30711000      -0.62991370       0.37532971      -0.31964576
P       12.32407000       5.95145000      14.41021000       0.46165318       2.25909582      -1.28347121
P       11.59373000       4.69360000      15.89847000       0.28134317      -1.79546755       0.05713546
P       13.66084000       4.34281000      14.92716000      -0.34028528      -0.33499871       0.87667030
P       11.89696000       3.91373000      13.74073000      -0.61904548       0.74864718       0.44492558
P        0.22156000       6.28063000       3.02048000      -0.64205246       0.99811072       1.46625935
P       17.67966000       6.87054000       4.55448000       1.50449592      -0.14639924      -1.01702768
P       17.40846000       5.51499000       2.84815000      -0.69572268       0.66185869      -0.61151257
P       17.81947000       7.75472000       2.49021000      -0.25346726      -1.50782929       0.17026202
P       14.09780000       3.98284000       6.20048000       0.02022625       0.06785496       0.39683832
P       12.36285000       4.29617000       4.90383000       1.28324112       1.57691848       0.62118495
P       14.42100000       5.29084000       4.47173000      -1.88214558       0.25660892       1.27929541
P       13.09669000       5.99980000       6.41213000       0.57629752      -1.93289297      -2.39884023
P       15.72891000       8.22235000      14.34060000      -0.56261687       1.73810974      -0.45313503
P       15.03467000       6.77304000      12.76465000       0.59103720       0.96272589      -0.39986228
P       16.11610000       6.19548000      14.51760000       1.80819140      -1.77158703      -0.00645462
P       17.25029000       7.45975000      12.87041000      -1.54652478      -0.79926886       1.08995061
P       15.87546000       1.93586000       0.19323000       0.59812202      -1.30645445      -0.23082334
P       16.16498000       4.02419000      18.94146000       0.20726246       0.48811247      -0.20958212
P       14.52177000       3.36155000       1.02344000      -0.59514962       0.66421870       0.34890481
P       14.46105000       2.92363000      18.07343000      -0.09541818       0.34528232       0.33001816
P       14.24185000      15.90057000       2.23156000      -0.13991200      -1.33259477       0.26520354
P       15.75255000      15.02278000       3.57084000       1.68861609      -0.00683583      -0.56557433
P       14.53652000      13.62016000       2.34641000       0.76299678       0.30223461      -1.30359826
P       13.74989000      14.61396000       4.00151000      -2.44003488       0.86007207       1.75671443
P       17.36657000      12.14807000       5.20848000      -0.09989815       0.13237495       0.20018486
P       16.67008000      11.03775000       7.02773000       0.21117507       2.26979912       0.06891963
P       15.71051000      10.68473000       5.17485000      -0.12912273       0.85235246      -0.80172335
P       15.44099000      12.86230000       5.95187000       0.35215127      -1.78761908       0.52109165
P       16.63801000      14.76949000       9.99372000       0.48301680      -0.40162171      -1.01247795
P       17.62311000      16.67805000       9.67581000      -0.03781513       1.15468441      -0.77739261
P       18.22682000      15.03718000       8.30414000      -1.44069473       0.06413587      -0.77848664
P       18.79349000      15.01723000      10.30507000       1.27332865      -0.74740187       2.25835929
P       14.25793000       8.24436000       0.29885000       0.72032107      -0.44760504       0.31636514
P       15.29435000       9.56155000      18.04078000      -0.90903476      -1.13727295      -0.40114980
P       13.39339000       8.37584000      17.54196000       0.50518222       0.57551628      -0.55504457
P       15.31600000       7.31613000      17.73457000      -0.06492081       0.39230881       0.71683977
P       12.09672000      17.65250000      19.19712000       0.76332801      -2.21218175      -0.76757231
P       13.07278000       0.20349000      18.74188000       0.64166287       1.89198699      -1.54299637
P       13.11498000      17.77546000      17.07300000      -0.73409582       0.91460168       1.94515640
P       14.42997000      17.70393000      18.86940000      -1.54775927      -0.27307566       0.33788287
P       14.12663000      16.08888000       7.23556000       0.96084643      -0.49003385       0.75734536
P       12.52932000      15.00409000       8.35433000      -0.00407591       0.29258159      -0.99141834
P       12.14626000      16.78241000       6.97946000      -1.09944421      -0.06772028       0.75431845