12
Lattice="7.515744401943834 -1.2993569748256903 0.26678439607483545 -4.126599400337724 6.414508552110018 -0.26678418507673646 -1.9336160101667905 -2.3991930644045647 6.982185771111149" Properties=species:S:1:pos:R:3:initial_magmoms:R:1:castep_labels:S:1:forces:R:3 n_minim_iter=1 energy=-58.192481858958 stress="0.00025617296666205063 0.000245293291423407 0.00010622701314295298 0.000245293291423407 0.0004638546200672019 -7.03507834449717e-05 0.00010622701314295298 -7.03507834449717e-05 0.00011390285763647457" free_energy=-58.192481858958 pbc="T T T"
P        3.35523928       3.28709565       1.35916608       0.00000000 NULL      -0.84264300       0.01802100       0.31926100
P        1.91677205       0.58052544       1.08593049       0.00000000 NULL       0.56108300       0.16853100      -0.68489800
P       -1.35991299       2.75155787       4.71686676       0.00000000 NULL      -0.34510100       0.76894500       0.31926100
P        4.69830832      -1.28312984       4.71041558       0.00000000 NULL       0.06354300      -0.58239300      -0.68489400
P       -0.21301822       0.38209761       1.55485275       0.00000000 NULL      -0.58787300      -0.53020900       0.33845100
P       -4.85342516       2.97477448       6.45106444       0.00000000 NULL       0.71774100       0.44416500      -0.16980400
P       -3.46501861       2.05485828       4.91255353       0.00000000 NULL       0.25906900       0.74806300       0.33845200
P       -1.60142476       1.30201380       3.09336366       0.00000000 NULL      -0.12920200      -0.83410800      -0.16980700
P        3.26559328       2.12629662       3.46841071       0.00000000 NULL      -0.41785600      -0.18899500       0.40788500
P        4.19402286       0.29188345       1.81751661       0.00000000 NULL       0.56954800       0.08848800      -0.21089700
P        3.80068949      -3.12785432       7.09289565       0.00000000 NULL       0.01113800       0.45847300       0.40788600
P        1.72531064       3.14684133       5.17521744       0.00000000 NULL       0.14055500      -0.55898100      -0.21089600
12
Lattice="7.472545941765967 -1.3315412837425353 0.24238051426336313 -4.139396016050073 6.36218089691076 -0.2423803067513512 -1.9246951428859338 -2.344297455485967 6.962076658796689" Properties=species:S:1:pos:R:3:initial_magmoms:R:1:castep_labels:S:1:forces:R:3 n_minim_iter=2 energy=-58.634262697605 stress="-0.0028761542682534925 -0.0016707361116935853 0.0015621607847715816 -0.0016707361116935853 -0.00429070447343218 -0.0010349801433683894 0.0015621607847715816 -0.0010349801433683894 -0.0014714993631399778" free_energy=-58.634262697605 pbc="T T T"
P        3.23308222       3.22982935       1.38021300       0.00000000 NULL      -0.47784700      -0.41741800      -0.01073700
P        1.94653352       0.57739766       1.01761374       0.00000000 NULL       0.34012000       0.50866800      -0.16811600
P       -1.41273434       2.80314698       4.74006108       0.00000000 NULL       0.19810300       0.60277100      -0.01073700
P        4.66765494      -1.34021742       4.61984232       0.00000000 NULL      -0.33582800      -0.51151900      -0.16811000
P       -0.27003616       0.33560701       1.58148264       0.00000000 NULL       0.17920300       0.05559300       0.13332600
P       -4.79492872       3.02028547       6.43568235       0.00000000 NULL       0.02270100      -0.18936500       0.12886400
P       -3.44637315       2.12677333       4.94133081       0.00000000 NULL       0.01866400      -0.18670100       0.13332900
P       -1.61859174       1.22911916       3.07583418       0.00000000 NULL       0.18323700       0.05292600       0.12885800
P        3.18315142       2.06937420       3.48887823       0.00000000 NULL      -0.52182600       0.10992800       0.38069600
P        4.20885656       0.27198839       1.78196830       0.00000000 NULL       0.45764900      -0.06740600      -0.46403600
P        3.77583126      -3.06064440       7.09110668       0.00000000 NULL      -0.30466600       0.43768200       0.38069800
P        1.69148158       3.05770954       5.14181651       0.00000000 NULL       0.24048900      -0.39515900      -0.46403500
12
Lattice="7.565271282415393 -1.2998833821874596 0.1705884832748571 -4.146392475398982 6.4599114464828435 -0.1705882704256199 -2.031165801273969 -2.366848123761304 7.016018975261889" Properties=species:S:1:pos:R:3:initial_magmoms:R:1:castep_labels:S:1:forces:R:3 n_minim_iter=3 energy=-58.721382877522 stress="0.006926196881281659 -0.0012316672565004592 -0.0014037942614621701 -0.0012316672565004592 0.0058833193618702435 0.0009301012675869404 -0.0014037942614621701 0.0009301012675869404 0.007474888537836098" free_energy=-58.721382877522 pbc="T T T"
P        3.26911472       3.32228729       1.38580486       0.00000000 NULL      -0.36815400       0.10509700      -0.11347200
P        1.98473319       0.62194555       0.99709221       0.00000000 NULL      -0.00629300       0.14300000      -0.37278800
P       -1.45483388       2.90089869       4.80852011       0.00000000 NULL      -0.24030900       0.29805200      -0.11347200
P        4.67751598      -1.32351397       4.59039593       0.00000000 NULL      -0.13413800      -0.04995300      -0.37278900
P       -0.29157383       0.34210721       1.60519418       0.00000000 NULL       0.34985100      -0.28925600       0.04919100
P       -4.88369222       3.08686749       6.54181647       0.00000000 NULL       0.03754900       0.03257600       0.45388900
P       -3.51748916       2.18166266       5.02790952       0.00000000 NULL       0.40276100      -0.20940200       0.04919100
P       -1.65777689       1.24731205       3.11910113       0.00000000 NULL      -0.01536300      -0.04727900       0.45389000
P        3.19686916       2.15600279       3.51195393       0.00000000 NULL      -0.58685900       0.15459800       0.51520700
P        4.27209205       0.32056273       1.74749652       0.00000000 NULL       0.57390700      -0.14601600      -0.53202700
P        3.73739677      -3.03780151       7.10525752       0.00000000 NULL      -0.37115600       0.48015400       0.51520800
P        1.70039864       3.14751891       5.17021190       0.00000000 NULL       0.35820300      -0.47157100      -0.53202700
12
Lattice="7.5066452487948965 -1.1661925657250478 0.09439716317696673 -4.000424126872254 6.4580441960362105 -0.0943969448900564 -2.130055770136245 -2.39617358416701 6.887659499907988" Properties=species:S:1:pos:R:3:initial_magmoms:R:1:castep_labels:S:1:forces:R:3 n_minim_iter=4 energy=-58.876173993012 stress="0.003804432316195397 0.005478383859650124 -0.0003585289015836876 0.005478383859650124 0.008442993097299782 0.00023751836180269413 -0.0003585289015836876 0.00023751836180269413 0.00010631049062565526" free_energy=-58.876173993012 pbc="T T T"
P        3.27624498       3.42413779       1.35364718       0.00000000 NULL      -0.24681300       0.31897900      -0.10180900
P        1.99960072       0.69521393       0.94439329       0.00000000 NULL      -0.13097800      -0.06866600      -0.38879100
P       -1.43496429       2.97085286       4.75027835       0.00000000 NULL      -0.38996600       0.10292700      -0.10180800
P        4.58075422      -1.24767472       4.43542161       0.00000000 NULL       0.01217200       0.14738500      -0.38879400
P       -0.29591482       0.33972929       1.58876414       0.00000000 NULL       0.57268200      -0.53287600       0.24239200
P       -4.84769603       3.06827163       6.48604978       0.00000000 NULL       0.22115500       0.00690400       0.78848700
P       -3.49345256       2.17099086       4.98539541       0.00000000 NULL       0.71397900      -0.31962000       0.24238700
P       -1.65015829       1.23701006       3.08941851       0.00000000 NULL       0.07985900      -0.20634900       0.78849200
P        3.16420670       2.26885830       3.45598142       0.00000000 NULL      -0.71928700       0.38312900       0.24872300
P        4.27683160       0.41590206       1.65378523       0.00000000 NULL       0.30324300      -0.10747000      -0.78899800
P        3.58565036      -2.93362628       6.94700961       0.00000000 NULL      -0.63323400       0.51300900       0.24871700
P        1.72533217       3.22221305       5.05041654       0.00000000 NULL       0.21718900      -0.23735200      -0.78899800
12
Lattice="7.470940465696898 -1.1494929559623654 -0.25478555680962156 -3.971126170034491 6.431674924032787 0.25478577469766195 -2.4144534897470376 -2.200782922825337 6.8211560640555655" Properties=species:S:1:pos:R:3:initial_magmoms:R:1:castep_labels:S:1:forces:R:3 n_minim_iter=5 energy=-59.486025069008 stress="-0.0014705575635977324 0.013219104046571046 0.0015811431131524329 0.013219104046571046 0.009722115383846031 -0.0010476169330136042 0.0015811431131524329 -0.0010476169330136042 -0.009927914211216964" free_energy=-59.486025069008 pbc="T T T"
P        3.09726591       3.41900556       1.30316951       0.00000000 NULL      -0.09484600       0.33712100       0.11044400
P        2.01786859       0.79291393       0.79449079       0.00000000 NULL      -0.01700700      -0.26301300      -0.25569500
P       -1.63397079       3.21251228       4.84114033       0.00000000 NULL      -0.34742200      -0.04408900       0.11044400
P        4.33465179      -1.20137571       4.07767603       0.00000000 NULL       0.23557100       0.11819600      -0.25569400
P       -0.33112291       0.34038216       1.62535615       0.00000000 NULL       0.77873300      -0.44774300       0.72672200
P       -5.05998678       3.23160401       6.74200763       0.00000000 NULL       0.51335100      -0.40835000       0.95118000
P       -3.63532971       2.28766931       5.16332706       0.00000000 NULL       0.71590800      -0.54256100       0.72672100
P       -1.75577998       1.28431686       3.20403672       0.00000000 NULL       0.57617400      -0.31353200       0.95118100
P        2.87542115       2.39210874       3.43839518       0.00000000 NULL      -0.39980400       0.43263000      -0.89163100
P        4.30753758       0.44973273       1.34454842       0.00000000 NULL      -0.78042700       0.34935500      -0.64102000
P        3.19631273      -2.61453008       6.72158030       0.00000000 NULL      -0.55426500       0.19950700      -0.89163300
P        1.57219251       3.25558863       4.88251937       0.00000000 NULL      -0.62596600       0.58247800      -0.64101900
12
Lattice="7.312200555760484 -1.1703408559126733 -0.6341730525907485 -3.9284389274353098 6.2773674428776 0.6341732632536947 -2.6637297255259607 -1.909595821439782 6.670692459962743" Properties=species:S:1:pos:R:3:initial_magmoms:R:1:castep_labels:S:1:forces:R:3 n_minim_iter=6 energy=-59.787794293712 stress="-0.01698129111762728 0.017972562939379013 -0.007662900561247322 0.017972562939379013 -0.0017638682604226212 0.005077136113285097 -0.007662900561247322 0.005077136113285097 -0.030349161570043182" free_energy=-59.787794293712 pbc="T T T"
P        2.83324418       3.29228537       1.25511451       0.00000000 NULL      -0.07991600       0.20073400       0.07890100
P        2.01067830       0.84728264       0.64105535       0.00000000 NULL       0.00923400      -0.15390000      -0.17069000
P       -1.83955461       3.39833055       4.90754729       0.00000000 NULL      -0.21601000      -0.00466500       0.07889700
P        4.01974737      -1.16835836       3.65931503       0.00000000 NULL       0.14532400       0.05149900      -0.17069300
P       -0.36606306       0.38578584       1.66187389       0.00000000 NULL       1.27566500      -0.49338000       1.19800400
P       -5.24289906       3.33054277       6.91978704       0.00000000 NULL       0.74540400      -0.84572400       1.42656600
P       -3.79405698       2.37058381       5.31430675       0.00000000 NULL       0.95167000      -0.98238200       1.19800400
P       -1.81490514       1.34574479       3.26735418       0.00000000 NULL       1.06940200      -0.35672000       1.42656700
P        2.56016013       2.41675987       3.28295840       0.00000000 NULL      -0.70238900       0.58400800      -1.50816500
P        4.16538158       0.47610394       1.05668833       0.00000000 NULL      -1.24799800       0.70826100      -1.02461600
P        2.78867152      -2.28623219       6.30121797       0.00000000 NULL      -0.81162700       0.41913700      -1.50816000
P        1.27314047       3.26950019       4.70912122       0.00000000 NULL      -1.13875800       0.87313200      -1.02461700
12
Lattice="7.242795614139478 -1.1742909447159917 -0.6723424150786715 -3.905018589068418 6.211914122928976 0.6723426228787529 -2.668782923530641 -1.856312013326233 6.612170239067191" Properties=species:S:1:pos:R:3:initial_magmoms:R:1:castep_labels:S:1:forces:R:3 n_minim_iter=7 energy=-59.97294863588 stress="-0.02468791622508653 0.01846480257314578 0.0029212960992701133 0.01846480257314578 -0.009053673245941527 -0.001935585030472348 0.0029212960992701133 -0.001935585030472348 -0.03636566632866802" free_energy=-59.97294863588 pbc="T T T"
P        2.71837930       3.21948044       1.25743125       0.00000000 NULL      -0.07614100       0.29222100      -0.12582500
P        2.03884787       0.87765785       0.58587154       0.00000000 NULL      -0.20104500      -0.10856600      -0.23413000
P       -1.85409200       3.45700210       4.89968760       0.00000000 NULL      -0.29878400      -0.04380700      -0.12582500
P        3.94253625      -1.21617582       3.55578543       0.00000000 NULL       0.02159800       0.22746200      -0.23413000
P       -0.34519552       0.38954664       1.68742959       0.00000000 NULL       0.97905400      -0.35814600       0.84026900
P       -5.21240338       3.29275024       6.91672729       0.00000000 NULL       0.49758900      -0.62023400       1.07730500
P       -3.78020132       2.34381646       5.32968601       0.00000000 NULL       0.71149800      -0.76196300       0.84027000
P       -1.77739758       1.33848042       3.27447087       0.00000000 NULL       0.76514500      -0.21641700       1.07730300
P        2.46286073       2.39673537       3.24544183       0.00000000 NULL       0.07384300      -0.24523300      -1.62536300
P        4.13174584       0.48301071       0.98388785       0.00000000 NULL      -1.27330100       1.03995800       0.06774400
P        2.70895755      -2.19885968       6.21535562       0.00000000 NULL       0.25461800       0.02760500      -1.62536200
P        1.21686609       3.22229374       4.62614430       0.00000000 NULL      -1.45407500       0.76712000       0.06774400
12
Lattice="7.2252043559338395 -1.173936775091607 -0.8985399607999001 -3.8978344065618917 6.195852814881179 0.8985401679520678 -2.850570852570005 -1.7245635423354386 6.57945332083129" Properties=species:S:1:pos:R:3:initial_magmoms:R:1:castep_labels:S:1:forces:R:3 n_minim_iter=8 energy=-60.456136450368 stress="-0.016520114967610237 0.011486082499879835 -0.0037869373588841327 0.011486082499879835 -0.006794790844953603 0.0025090699756754016 -0.0037869373588841327 0.0025090699756754016 -0.024851844584107673" free_energy=-60.456136450368 pbc="T T T"
P        2.52062646       3.21647371       1.23262400       0.00000000 NULL       0.02010700       0.62203300      -0.41924400
P        2.08030659       0.96161781       0.42122939       0.00000000 NULL      -0.61937300      -0.22497600      -0.35896500
P       -2.02612711       3.68241661       4.97162067       0.00000000 NULL      -0.56497700      -0.26102000      -0.41924800
P        3.77648931      -1.22888864       3.26168604       0.00000000 NULL      -0.03429200       0.65807500      -0.35896500
P       -0.29703037       0.39372189       1.73210233       0.00000000 NULL       0.49503600      -0.29416500       0.81585600
P       -5.36899711       3.36041649       7.15147047       0.00000000 NULL       0.62445600      -0.44757700       0.63791900
P       -3.85257064       2.35567816       5.47109906       0.00000000 NULL       0.46388100      -0.34118400       0.81585500
P       -1.81345684       1.39846022       3.41247374       0.00000000 NULL       0.65561100      -0.40055700       0.63792000
P        2.29039919       2.38502778       3.16960316       0.00000000 NULL      -0.20487600      -0.32718700      -0.63518600
P        4.12537938       0.59060179       0.84101455       0.00000000 NULL      -0.31534900       0.67187200      -0.04038000
P        2.54761062      -1.97728194       6.01005972       0.00000000 NULL       0.22142700       0.31622300      -0.63518300
P        1.01759709       3.22834796       4.58001132       0.00000000 NULL      -0.74165100       0.02846300      -0.04037900
12
Lattice="7.235860730814047 -1.20294769174446 -1.0500439195225815 -3.928704317216829 6.1943559487889415 1.0500441254163146 -2.968008466760248 -1.624802594669153 6.59229081331614" Properties=species:S:1:pos:R:3:initial_magmoms:R:1:castep_labels:S:1:forces:R:3 n_minim_iter=9 energy=-60.77954302639 stress="-0.0031993947594746897 0.008855517473515725 -0.0031473915741833942 0.008855517473515725 0.004298615527933559 0.0020853945521121715 -0.0031473915741833942 0.0020853945521121715 -0.009666342648261642" free_energy=-60.77954302639 pbc="T T T"
P        2.39774807       3.22688019       1.19124496       0.00000000 NULL       0.02450700       0.47550600       0.06279100
P        2.06553996       0.99851010       0.31011153       0.00000000 NULL      -0.15825700      -0.38688700      -0.23647800
P       -2.17798228       3.81013963       5.01241236       0.00000000 NULL      -0.42832700      -0.20794700       0.06279100
P        3.67326184      -1.20955193       3.08123494       0.00000000 NULL       0.29457700       0.29656700      -0.23647800
P       -0.28849718       0.43932792       1.82581730       0.00000000 NULL       0.27423100      -0.44264000       0.48358600
P       -5.46183606       3.37066889       7.30520985       0.00000000 NULL       0.49079700      -0.06424500       0.50988300
P       -3.96539521       2.37917244       5.64698476       0.00000000 NULL       0.51452700      -0.07996800       0.48358600
P       -1.78493803       1.43082438       3.48404239       0.00000000 NULL       0.25050100      -0.42691600       0.50988400
P        2.14682326       2.33574991       3.15940080       0.00000000 NULL       0.06598000      -0.29896300      -0.96299900
P        4.16927934       0.66202129       0.74802674       0.00000000 NULL      -0.69725800       0.71722900       0.14321700
P        2.47351821      -1.80573393       5.93052413       0.00000000 NULL       0.30102900       0.05579300      -0.96300100
P        0.87457591       3.17870253       4.56919422       0.00000000 NULL      -0.93230800       0.36247200       0.14321700
12
Lattice="6.979893467185055 -1.2833990791502476 -1.0446890630033632 -3.9029998931709775 5.927277405629498 1.044689254561615 -2.837280013670437 -1.4613717458243989 6.424300428257361" Properties=species:S:1:pos:R:3:initial_magmoms:R:1:castep_labels:S:1:forces:R:3 n_minim_iter=10 energy=-61.521516080951 stress="-0.008263262678323589 -0.0036690131519628126 0.009802784747646757 -0.0036690131519628126 -0.011369874630002528 -0.006495048008156448 0.009802784747646757 -0.006495048008156448 -0.003964955183629454" free_energy=-61.521516080951 pbc="T T T"
P        2.11348064       2.97233169       1.11545741       0.00000000 NULL      -0.33038200       0.94261700       0.43308500
P        1.98258203       0.99627591       0.20803909       0.00000000 NULL       0.07919500      -0.77618800      -0.75927700
P       -2.20644419       3.77179802       4.84995219       0.00000000 NULL      -0.99683700      -0.06324500       0.43308300
P        3.46522684      -1.26456217       2.89784474       0.00000000 NULL       0.74564700       0.22967400      -0.75927800
P       -0.21548125       0.47190345       1.95266602       0.00000000 NULL       0.62693700      -0.21060000      -0.03407800
P       -5.24009400       3.14279562       7.18464532       0.00000000 NULL      -0.16477200      -0.09561600       0.63425100
P       -3.88871115       2.24741021       5.68716084       0.00000000 NULL       0.43835400      -0.49522700      -0.03408100
P       -1.56686409       1.36728886       3.45015050       0.00000000 NULL       0.02381400       0.18901000       0.63424800
P        1.81809183       1.83040237       2.96550653       0.00000000 NULL      -0.54751700      -0.18843300       0.07159600
P        4.11052164       0.92401230       0.73774642       0.00000000 NULL       0.33653700       0.32822100      -0.34557000
P        2.63297222      -1.43827582       5.65531214       0.00000000 NULL      -0.03992700       0.57765700       0.07159600
P        0.45836124       2.73131874       4.47224125       0.00000000 NULL      -0.17104900      -0.43787000      -0.34557400
12
Lattice="6.905351963733355 -1.2706477518084718 -1.0783257473324113 -3.862197103273678 5.86360508382701 1.0783259367901912 -2.8437982800996098 -1.4204153126075787 6.352672630585064" Properties=species:S:1:pos:R:3:initial_magmoms:R:1:castep_labels:S:1:forces:R:3 n_minim_iter=11 energy=-61.827577772121 stress="-0.018464490373443113 -0.0037333186630425655 0.0139921895514582 -0.0037333186630425655 -0.021625476402392277 -0.009270791544962239 0.0139921895514582 -0.009270791544962239 -0.013325499125455869" free_energy=-61.827577772121 pbc="T T T"
P        2.03450876       2.95250665       1.10051819       0.00000000 NULL      -0.45901000       0.84237700       0.40600900
P        1.97327027       1.00131978       0.15214608       0.00000000 NULL       0.14551200      -0.63466300      -0.81311900
P       -2.23557184       3.78997130       4.81601742       0.00000000 NULL      -0.95467200       0.09428600       0.40601000
P        3.39955258      -1.25656018       2.78931948       0.00000000 NULL       0.64117400       0.11342900      -0.81311900
P       -0.19106410       0.48895481       1.99276034       0.00000000 NULL       0.75647800      -0.40698900      -0.27182000
P       -5.18851249       3.07538984       7.16073000       0.00000000 NULL      -0.32571100       0.12157700       0.83121100
P       -3.87775194       2.20691953       5.70825960       0.00000000 NULL       0.66970300      -0.53795500      -0.27181700
P       -1.50182465       1.35742512       3.44523074       0.00000000 NULL      -0.23893700       0.25254200       0.83121400
P        1.70471871       1.70729802       2.88404422       0.00000000 NULL      -0.41929300       0.00772800       0.18570600
P        4.10210558       1.05453524       0.70486611       0.00000000 NULL       0.30202500       0.06997100      -0.33799300
P        2.64473772      -1.28448695       5.52121759       0.00000000 NULL      -0.17058000       0.38310400       0.18570700
P        0.31828829       2.62590490       4.42036536       0.00000000 NULL       0.05331200      -0.30540700      -0.33799000
12
Lattice="6.901424441636541 -1.1881699750801744 -1.0964036991570811 -3.7847141220018115 5.8921427174275225 1.096403893194206 -2.892377128630611 -1.4681039505852476 6.302565637966511" Properties=species:S:1:pos:R:3:initial_magmoms:R:1:castep_labels:S:1:forces:R:3 n_minim_iter=12 energy=-62.110277060718 stress="-0.005286402210885505 -0.004475473211571927 0.009229052601847483 -0.004475473211571927 -0.009075782343069856 -0.006114896293715489 0.009229052601847483 -0.006114896293715489 -0.0005629999092621583" free_energy=-62.110277060718 pbc="T T T"
P        2.04287896       3.05172236       1.09129012       0.00000000 NULL      -0.49074600       0.20065800       0.27643000
P        1.99407629       1.04252382       0.10374314       0.00000000 NULL       0.32134400      -0.08841700      -0.49641700
P       -2.23566653       3.84502352       4.79077483       0.00000000 NULL      -0.37609900       0.37369000       0.27643200
P        3.38024466      -1.21888129       2.70682407       0.00000000 NULL       0.20669800      -0.26145000      -0.49641600
P       -0.15884072       0.46234628       2.00242913       0.00000000 NULL       0.34506400      -0.23618400      -0.18986300
P       -5.15189450       3.05638616       7.17089481       0.00000000 NULL      -0.18188500       0.12806700       0.40176500
P       -3.82623425       2.17804376       5.70191387       0.00000000 NULL       0.35202100      -0.22568400      -0.18986000
P       -1.48450096       1.34068867       3.47141007       0.00000000 NULL      -0.18884200       0.11756600       0.40176700
P        1.69203985       1.70787884       2.82081486       0.00000000 NULL      -0.31782100       0.20403200       0.35633000
P        4.12743603       1.20532290       0.68900551       0.00000000 NULL       0.32404400      -0.20815600      -0.34825000
P        2.64978449      -1.20013545       5.42389577       0.00000000 NULL      -0.31179300       0.21312900       0.35633000
P        0.27731426       2.64523324       4.38849024       0.00000000 NULL       0.31801500      -0.21725200      -0.34824800
12
Lattice="6.814541776370348 -1.0947911810539925 -1.3423524371993394 -3.6648521627884785 5.848538744889206 1.342352633289657 -3.1050702476168173 -1.3629928585258064 6.1594842838209996" Properties=species:S:1:pos:R:3:initial_magmoms:R:1:castep_labels:S:1:forces:R:3 n_minim_iter=13 energy=-62.615186377071 stress="-0.03144219259735351 -0.028377451971479895 0.002889626411278673 -0.028377451971479895 -0.05546950755892201 -0.0019145498301764011 0.002889626411278673 -0.0019145498301764011 -0.01208965317999106" free_energy=-62.615186377071 pbc="T T T"
P        1.77003944       3.05134702       1.01179879       0.00000000 NULL      -0.80760700       0.53576000      -0.14580700
P        2.05939967       1.25201901      -0.12907370       0.00000000 NULL      -0.05752800       0.03745300      -0.97765900
P       -2.35512510       4.17694964       4.76271721       0.00000000 NULL      -0.80821700       0.53484000      -0.14580500
P        3.07949396      -1.23657646       2.27949218       0.00000000 NULL      -0.05691500       0.03837300      -0.97765800
P       -0.12691125       0.40028035       2.07731372       0.00000000 NULL      -0.64444300      -0.89605400       0.03957300
P       -5.16767737       3.10775383       7.34039647       0.00000000 NULL       0.64485300       0.89578000      -0.03903500
P       -3.80304693       2.20359096       5.82823216       0.00000000 NULL       0.57391700       0.94278100       0.03957100
P       -1.49154169       1.30444322       3.58947803       0.00000000 NULL      -0.57350200      -0.94305700      -0.03903700
P        1.49541898       1.67673875       2.66595033       0.00000000 NULL       0.38917800       0.79790300       1.14798400
P        4.11572328       1.44612447       0.53050031       0.00000000 NULL       0.47554300      -1.37084000      -0.02505300
P        2.46850873      -0.88279949       5.07451620       0.00000000 NULL      -0.58304800      -0.66945300       1.14798000
P        0.03756328       2.64266985       4.28141872       0.00000000 NULL       1.44776900       0.09651500      -0.02505300
12
Lattice="6.777479160934077 -1.0023045379077338 -1.4677560399628629 -3.565234368502743 5.850465064778611 1.46775623994768 -3.2351501255800725 -1.3447359228553362 6.067836098577095" Properties=species:S:1:pos:R:3:initial_magmoms:R:1:castep_labels:S:1:forces:R:3 n_minim_iter=14 energy=-62.896643831752 stress="-0.054932452385594015 -0.03715731750766467 -0.0062121543417580725 -0.03715731750766467 -0.08639389818462696 0.0041160201495486146 -0.0062121543417580725 0.0041160201495486146 -0.031496553611457014" free_energy=-62.896643831752 pbc="T T T"
P        1.66893646       3.09242615       0.96940366       0.00000000 NULL      -0.62627000       0.87994100      -0.42211100
P        2.10571155       1.38310296      -0.23906482       0.00000000 NULL      -0.49836300      -0.13479200      -1.03834200
P       -2.38504527       4.35854264       4.73719979       0.00000000 NULL      -1.05446700       0.23366800      -0.42211500
P        2.92454316      -1.22774946       2.06097515       0.00000000 NULL      -0.07016700       0.51148100      -1.03833900
P       -0.12350248       0.36702031       2.11077669       0.00000000 NULL      -0.73091700      -1.36900600      -0.03869300
P       -5.15745680       3.13198347       7.39794618       0.00000000 NULL       0.81148400       1.31563300       0.14331400
P       -3.78632067       2.22351013       5.87857285       0.00000000 NULL       0.97573600       1.20680500      -0.03869600
P       -1.49463861       1.27549365       3.63015003       0.00000000 NULL      -0.89516800      -1.26017900       0.14331500
P        1.42106910       1.70197356       2.57391637       0.00000000 NULL       0.47265300       1.09046000       1.44879100
P        4.11786967       1.60458966       0.44753622       0.00000000 NULL       0.57141200      -1.78223500      -0.09295700
P        2.36399126      -0.72159210       4.87395635       0.00000000 NULL      -0.81991500      -0.86038300       1.44879100
P       -0.06020261       2.68341940       4.21533234       0.00000000 NULL       1.86398200       0.16860700      -0.09295900
12
Lattice="6.773028629946226 -0.9078800251314848 -1.549393065269867 -3.4765460276806803 5.883178566350006 1.54939327049908 -3.341424094878228 -1.365797718736749 6.005685926059663" Properties=species:S:1:pos:R:3:initial_magmoms:R:1:castep_labels:S:1:forces:R:3 n_minim_iter=15 energy=-63.251395118852 stress="-0.060531450819807917 -0.0343524609420032 -0.01550981533412138 -0.0343524609420032 -0.089617811721183 0.010276309361517383 -0.01550981533412138 0.010276309361517383 -0.040725022929575035" free_energy=-63.251395118852 pbc="T T T"
P        1.63629167       3.14706280       0.94167011       0.00000000 NULL      -0.32464200       1.09445500      -0.32851100
P        2.15549150       1.50006451      -0.29847097       0.00000000 NULL      -0.62014200      -0.46847000      -0.89838900
P       -2.37264060       4.50026793       4.71920967       0.00000000 NULL      -1.13441800      -0.12772200      -0.32851400