12
Lattice="7.026419879568117 3.4135383805636927e-07 2.669042005685476e-07 -2.739286514683311 6.4704625579988 -1.6154858758082555e-14 -2.5300423970193426 -2.9791645502911206 5.839010222252017" Properties=species:S:1:pos:R:3:initial_magmoms:R:1:castep_labels:S:1 n_minim_iter=1 pbc="T T T"
P        3.93723033       4.36651286       1.07180721       0.00000000 NULL
P        1.90873506       1.07111492       0.95249741       0.00000000 NULL
P       -0.83359865       2.88810231       3.99131218       0.00000000 NULL
P        4.14952164      -0.42963908       3.87200266       0.00000000 NULL
P       -0.12260019       0.49903007       1.24421895       0.00000000 NULL
P       -4.40281386       2.49937237       5.56084153       0.00000000 NULL
P       -3.14200572       1.66399902       4.16372404       0.00000000 NULL
P       -1.38340833       1.33440342       2.64133645       0.00000000 NULL
P        3.53985818       3.11546607       2.82646599       0.00000000 NULL
P        4.04039148       1.17307722       1.44998585       0.00000000 NULL
P        2.90282932      -2.72870263       5.74597106       0.00000000 NULL
P        2.14737795       4.03808136       4.36949101       0.00000000 NULL
12
Lattice="7.040542261356924 -0.0037917417446637343 0.0014386701910181314 -2.748284238464313 6.481989158941549 -0.001438402967787742 -2.53232437507497 -2.983217561862308 5.852947805937426" Properties=species:S:1:pos:R:3:initial_magmoms:R:1:castep_labels:S:1 n_minim_iter=2 pbc="T T T"
P        3.94292596       4.37102712       1.07458146       0.00000000 NULL
P        1.91220026       1.07166093       0.95496455       0.00000000 NULL
P       -0.83605045       2.89256874       4.00033602       0.00000000 NULL
P        4.15885229      -0.43309825       3.88215779       0.00000000 NULL
P       -0.12264241       0.49964559       1.24738035       0.00000000 NULL
P       -4.41171219       2.50468059       5.57321695       0.00000000 NULL
P       -3.14822885       1.66753472       4.17313503       0.00000000 NULL
P       -1.38612575       1.33679145       2.64746227       0.00000000 NULL
P        3.54574287       3.11824349       2.83341206       0.00000000 NULL
P        4.04799183       1.17249498       1.45389660       0.00000000 NULL
P        2.91104836      -2.73525978       5.76060512       0.00000000 NULL
P        2.15036196       4.04278069       4.37965134       0.00000000 NULL
12
Lattice="7.38805022053209 -0.10106448576157867 0.040206578863994695 -2.973338195876138 6.764078657617146 -0.040206304017141765 -2.583993960582442 -3.0819584083149847 6.198356575856258" Properties=species:S:1:pos:R:3:initial_magmoms:R:1:castep_labels:S:1 n_minim_iter=3 pbc="T T T"
P        4.08104287       4.47754954       1.14378555       0.00000000 NULL
P        1.99726595       1.08321554       1.01656695       0.00000000 NULL
P       -0.89620656       3.00034293       4.22286054       0.00000000 NULL
P        4.39052141      -0.52153627       4.13584852       0.00000000 NULL
P       -0.12312433       0.51403150       1.32592698       0.00000000 NULL
P       -4.62908888       2.63464120       5.87775337       0.00000000 NULL
P       -3.30002615       1.75404442       4.40500209       0.00000000 NULL
P       -1.45218707       1.39462829       2.79867826       0.00000000 NULL
P        3.68984964       3.18240559       3.00618090       0.00000000 NULL
P        4.23492439       1.15494728       1.55199734       0.00000000 NULL
P        3.11728998      -2.89857662       6.12546230       0.00000000 NULL
P        2.22349009       4.15397109       4.63107253       0.00000000 NULL
12
Lattice="7.474312869221081 -0.17836159497102125 0.11543369252026031 -3.0781492049859867 6.813381191493333 -0.11543341882817316 -2.5197671540340343 -3.1043710767222534 6.3185555604421895" Properties=species:S:1:pos:R:3:initial_magmoms:R:1:castep_labels:S:1 n_minim_iter=4 pbc="T T T"
P        4.09132355       4.44135461       1.17716975       0.00000000 NULL
P        2.01810476       1.05850747       1.04768158       0.00000000 NULL
P       -0.89770800       2.99043683       4.27873069       0.00000000 NULL
P        4.48736916      -0.59494583       4.26467620       0.00000000 NULL
P       -0.11358935       0.50523609       1.35303303       0.00000000 NULL
P       -4.64685185       2.64888822       5.93763708       0.00000000 NULL
P       -3.30850150       1.76213775       4.45459408       0.00000000 NULL
P       -1.45193970       1.39198656       2.83607604       0.00000000 NULL
P        3.72570217       3.13560037       3.08136195       0.00000000 NULL
P        4.28578761       1.10401310       1.61351262       0.00000000 NULL
P        3.24033963      -2.97719729       6.29835639       0.00000000 NULL
P        2.25138299       4.11243968       4.71507374       0.00000000 NULL
12
Lattice="7.4973031171678715 -0.28331698476355893 0.2028479455820159 -3.183762985364933 6.793634955347511 -0.2028476770338244 -2.4109029277933303 -3.0867784877204003 6.4023679583480355" Properties=species:S:1:pos:R:3:initial_magmoms:R:1:castep_labels:S:1 n_minim_iter=5 pbc="T T T"
P        4.05034066       4.33573736       1.20569322       0.00000000 NULL
P        2.01872254       1.01142394       1.07403503       0.00000000 NULL
P       -0.89742330       2.94357399       4.30545323       0.00000000 NULL
P        4.55558357      -0.68319119       4.37664298       0.00000000 NULL
P       -0.10297983       0.48750066       1.37210475       0.00000000 NULL
P       -4.62405316       2.64448838       5.95412648       0.00000000 NULL
P       -3.28640796       1.75820512       4.47186487       0.00000000 NULL
P       -1.44062502       1.37378392       2.85436636       0.00000000 NULL
P        3.72147644       3.03246520       3.14231884       0.00000000 NULL
P        4.29907007       1.02170207       1.67161202       0.00000000 NULL
P        3.35828240      -3.03913034       6.44492661       0.00000000 NULL
P        2.25136118       4.00651911       4.77137221       0.00000000 NULL
12
Lattice="7.490404089150537 -0.4327581104517376 0.28260604352394963 -3.3186901270507296 6.729021399010172 -0.2826057838054341 -2.2787769151603587 -3.0203089879706573 6.485230031762716" Properties=species:S:1:pos:R:3:initial_magmoms:R:1:castep_labels:S:1 n_minim_iter=6 pbc="T T T"
P        3.96276564       4.16520741       1.23297783       0.00000000 NULL
P        2.00340750       0.94210131       1.09731297       0.00000000 NULL
P       -0.91775466       2.87757503       4.33428983       0.00000000 NULL
P        4.60515089      -0.79057530       4.48123101       0.00000000 NULL
P       -0.09709718       0.46437969       1.39207181       0.00000000 NULL
P       -4.60257654       2.64948192       5.97642978       0.00000000 NULL
P       -3.26422360       1.76272973       4.49338391       0.00000000 NULL
P       -1.43545012       1.35113188       2.87511768       0.00000000 NULL
P        3.67846482       2.87844958       3.20125239       0.00000000 NULL
P        4.28700737       0.90418384       1.72533470       0.00000000 NULL
P        3.47504381      -3.08799132       6.58517025       0.00000000 NULL
P        2.21165147       3.85031575       4.82664687       0.00000000 NULL
12
Lattice="7.493533853748229 -0.6001565488247979 0.3229596817950604 -3.474063508710946 6.666642363247487 -0.32295943155478013 -2.1753936394848554 -2.9234828800121524 6.583194575583952" Properties=species:S:1:pos:R:3:initial_magmoms:R:1:castep_labels:S:1 n_minim_iter=7 pbc="T T T"
P        3.86239888       3.98569938       1.25783114       0.00000000 NULL
P        1.98406724       0.87027410       1.11471178       0.00000000 NULL
P       -0.96981718       2.82742860       4.38794858       0.00000000 NULL
P        4.64088966      -0.89493800       4.56778891       0.00000000 NULL
P       -0.10204943       0.44512533       1.41726191       0.00000000 NULL
P       -4.62368654       2.68600434       6.04252057       0.00000000 NULL
P       -3.27441843       1.79202009       4.54737946       0.00000000 NULL
P       -1.45131754       1.33910958       2.91240301       0.00000000 NULL
P        3.61682766       2.72287037       3.25849888       0.00000000 NULL
P        4.27049483       0.78089318       1.76430679       0.00000000 NULL
P        3.57141812      -3.12075266       6.71157584       0.00000000 NULL
P        2.14051073       3.70103333       4.89442441       0.00000000 NULL
12
Lattice="7.518271481953889 -0.8446967859884972 0.3449384648621171 -3.7088988725931764 6.59408735558673 -0.34493822770189764 -2.06235277145685 -2.7702305221098413 6.740135397868294" Properties=species:S:1:pos:R:3:initial_magmoms:R:1:castep_labels:S:1 n_minim_iter=8 pbc="T T T"
P        3.71878679       3.74053752       1.29311472       0.00000000 NULL
P        1.95894896       0.77093194       1.13314799       0.00000000 NULL
P       -1.07103638       2.77850861       4.49071319       0.00000000 NULL
P        4.68641936      -1.03726967       4.67568492       0.00000000 NULL
P       -0.12018142       0.42272533       1.45956437       0.00000000 NULL
P       -4.69430098       2.76720504       6.17809645       0.00000000 NULL
P       -3.32175691       1.85779884       4.65716294       0.00000000 NULL
P       -1.49272550       1.33213153       2.98049788       0.00000000 NULL
P        3.52219902       2.51358013       3.34137519       0.00000000 NULL
P        4.25207936       0.60878337       1.80746463       0.00000000 NULL
P        3.69109742      -3.15621007       6.88391196       0.00000000 NULL
P        2.02082819       3.50834304       5.00506326       0.00000000 NULL
12
Lattice="7.574844329478253 -1.179764295301324 0.34116971504096477 -4.039509770567725 6.515556106117652 -0.34116949494154014 -1.9437883172944335 -2.551203710638813 6.971338019858906" Properties=species:S:1:pos:R:3:initial_magmoms:R:1:castep_labels:S:1 n_minim_iter=9 pbc="T T T"
P        3.51804662       3.42769283       1.34680159       0.00000000 NULL
P        1.93445123       0.63784436       1.14283312       0.00000000 NULL
P       -1.24126607       2.74197862       4.66188575       0.00000000 NULL
P        4.74997559      -1.22764513       4.79908699       0.00000000 NULL
P       -0.16274437       0.39565584       1.52766305       0.00000000 NULL
P       -4.82295369       2.90771685       6.39799212       0.00000000 NULL
P       -3.41944588       1.97779501       4.84274730       0.00000000 NULL
P       -1.56625219       1.32557768       3.08290787       0.00000000 NULL
P        3.38937100       2.24354810       3.46031502       0.00000000 NULL
P        4.23920151       0.38018761       1.85517736       0.00000000 NULL
P        3.83852939      -3.19343824       7.11656874       0.00000000 NULL
P        1.84625480       3.26597023       5.17026166       0.00000000 NULL
12
Lattice="7.4107128884567555 -1.2544073051760587 0.28883153263297806 -4.044259231971842 6.335311404193035 -0.2888313230475766 -1.8965337962670132 -2.3991215759911717 6.871899452108707" Properties=species:S:1:pos:R:3:initial_magmoms:R:1:castep_labels:S:1 n_minim_iter=10 pbc="T T T"
P        3.34500888       3.26335005       1.33364831       0.00000000 NULL
P        1.88662697       0.58174054       1.08848357       0.00000000 NULL
P       -1.30501477       2.69642585       4.62518227       0.00000000 NULL
P        4.64011682      -1.25045684       4.66884906       0.00000000 NULL
P       -0.19362816       0.37766453       1.51984940       0.00000000 NULL
P       -4.76819312       2.90988812       6.33451463       0.00000000 NULL
P       -3.39366579       1.99916788       4.81138345       0.00000000 NULL
P       -1.56815549       1.28838478       3.04298057       0.00000000 NULL
P        3.24853064       2.11347045       3.41233454       0.00000000 NULL
P        4.13631385       0.30496899       1.80596112       0.00000000 NULL
P        3.76052853      -3.10175454       6.99269989       0.00000000 NULL
P        1.72778216       3.12107240       5.09749522       0.00000000 NULL
12
Lattice="7.57229709702986 -1.3046208105715538 0.25750653908233584 -4.153494107729969 6.464534445088315 -0.2575063262378204 -1.9594573911665605 -2.414277619800304 7.031345440914387" Properties=species:S:1:pos:R:3:initial_magmoms:R:1:castep_labels:S:1 n_minim_iter=11 pbc="T T T"
P        3.39101270       3.31408977       1.36369566       0.00000000 NULL
P        1.92586766       0.58821501       1.10115402       0.00000000 NULL
P       -1.36753483       2.77032392       4.75061511       0.00000000 NULL
P        4.72495780      -1.28229676       4.74558001       0.00000000 NULL
P       -0.21212594       0.38964452       1.56211393       0.00000000 NULL
P       -4.90364828       2.99991269       6.50666284       0.00000000 NULL
P       -3.49798857       2.06856507       4.94903348       0.00000000 NULL
P       -1.61778566       1.32099215       3.11974329       0.00000000 NULL
P        3.29076062       2.15013184       3.48478310       0.00000000 NULL
P        4.21811829       0.29982076       1.82660306       0.00000000 NULL
P        3.81873648      -3.14811577       7.12920895       0.00000000 NULL
P        1.73068504       3.18379074       5.21352265       0.00000000 NULL
12
Lattice="7.521249152577256 -1.2969683496486284 0.2659370297167961 -4.126545828486273 6.420508963699476 -0.2659368183726542 -1.9373150689818557 -2.4027780865608594 6.985378014763966" Properties=species:S:1:pos:R:3:initial_magmoms:R:1:castep_labels:S:1 n_minim_iter=12 pbc="T T T"
P        3.36451152       3.29158123       1.35767563       0.00000000 NULL
P        1.91585123       0.58257827       1.09104807       0.00000000 NULL
P       -1.35669325       2.75086729       4.71739612       0.00000000 NULL
P        4.69974093      -1.27948587       4.71670559       0.00000000 NULL
P       -0.21070523       0.38396866       1.55322157       0.00000000 NULL
P       -4.86005233       2.97576188       6.45586686       0.00000000 NULL
P       -3.46766262       2.05320656       4.91294215       0.00000000 NULL
P       -1.60309493       1.30652398       3.09614627       0.00000000 NULL
P        3.27085695       2.13131774       3.46706705       0.00000000 NULL
P        4.19444035       0.29516998       1.81901978       0.00000000 NULL
P        3.80179974      -3.13106269       7.09272443       0.00000000 NULL
P        1.72618249       3.15477233       5.17874042       0.00000000 NULL
12
Lattice="7.515744401943834 -1.2993569748256906 0.26678439607483523 -4.1265994003377235 6.414508552110015 -0.26678418507673796 -1.9336160101667919 -2.3991930644045625 6.9821857711111495" Properties=species:S:1:pos:R:3:initial_magmoms:R:1:castep_labels:S:1 n_minim_iter=13 pbc="T T T"
P        3.35523928       3.28709565       1.35916608       0.00000000 NULL
P        1.91677205       0.58052544       1.08593049       0.00000000 NULL
P       -1.35991299       2.75155787       4.71686676       0.00000000 NULL
P        4.69830832      -1.28312984       4.71041558       0.00000000 NULL
P       -0.21301822       0.38209761       1.55485275       0.00000000 NULL
P       -4.85342516       2.97477448       6.45106444       0.00000000 NULL
P       -3.46501861       2.05485828       4.91255353       0.00000000 NULL
P       -1.60142476       1.30201380       3.09336366       0.00000000 NULL
P        3.26559328       2.12629662       3.46841071       0.00000000 NULL
P        4.19402286       0.29188345       1.81751661       0.00000000 NULL
P        3.80068949      -3.12785432       7.09289565       0.00000000 NULL
P        1.72531064       3.14684133       5.17521744       0.00000000 NULL
