11
Lattice="5.531134565698044 -0.6546592279206338 -1.3469536020006199 -1.2319016119192712 4.949216111734703 0.30319294996371876 -3.2446677548300187 -1.7084642459936648 9.590390833070154" Properties=species:S:1:pos:R:3:initial_magmoms:R:1:castep_labels:S:1:forces:R:3 n_minim_iter=1 energy=-58.769525242153 stress="0.00029485400577801077 -0.00012854693855963748 0.00012294492626711837 -0.00012854693855963748 0.00020449483040325565 -4.289174297249382e-05 0.00012294492626711837 -4.289174297249382e-05 8.565519558714367e-05" free_energy=-58.769525242153 pbc="T T T"
P       -2.31741137       2.00142994       4.97221514       0.00000000 NULL      -0.00688200       0.00577700       0.00348100
P        0.54185066       0.83382990       8.82129446       0.00000000 NULL      -0.03051300       0.02760300       0.00026400
P       -0.17315482       2.19006213       4.29108062       0.00000000 NULL      -0.00426700       0.00868500      -0.00506100
P       -1.20850802       1.81620347       7.92789148       0.00000000 NULL       0.02219000      -0.01508500       0.02092500
P        4.20005287      -0.62344939      -0.01744269       0.00000000 NULL       0.00926500      -0.00841500      -0.01738500
P        0.40565310       0.14754472       5.02356928       0.00000000 NULL       0.00614700      -0.00724000       0.00198100
P        3.84171606      -1.41281794       3.63812068       0.00000000 NULL      -0.00113200      -0.00336400      -0.00417300
P        2.14558515       1.29811531       1.67363493       0.00000000 NULL       0.01203500       0.00226200      -0.01072600
P        1.54676382       3.48259383       1.91154410       0.00000000 NULL       0.00322800      -0.00041000       0.00278500
P        0.37801944       0.48741306       2.82224432       0.00000000 NULL      -0.00659500      -0.00154900       0.00168000
P        2.02412353      -2.19903922       7.48807973       0.00000000 NULL      -0.00347600      -0.00826400       0.00622800
11
Lattice="5.529470363430356 -0.6538138496767377 -1.3475902190577793 -1.2308682270001652 4.9479728785022745 0.3035557017877642 -3.245142468098343 -1.7080951685063626 9.589858222673401" Properties=species:S:1:pos:R:3:initial_magmoms:R:1:castep_labels:S:1:forces:R:3 n_minim_iter=2 energy=-58.769561233834 stress="-4.6684260937108945e-05 -3.915316109757533e-05 4.137825877743753e-05 -3.915316109757533e-05 -0.00016880789128954609 -2.59737363783915e-05 4.137825877743753e-05 -2.59737363783915e-05 -0.00014082300893127915" free_energy=-58.769561233834 pbc="T T T"
P       -2.31708933       2.00092594       4.97217187       0.00000000 NULL      -0.00565100       0.00185200       0.00765900
P        0.54048920       0.83425465       8.82045094       0.00000000 NULL      -0.01787800       0.01289600       0.00528300
P       -0.17338385       2.18979471       4.29078632       0.00000000 NULL      -0.00248600       0.01337000      -0.00448700
P       -1.20881954       1.81593360       7.92750141       0.00000000 NULL       0.00557600      -0.01245400       0.01288600
P        4.19868152      -0.62277205      -0.01810429       0.00000000 NULL       0.00558000      -0.00360200      -0.01419000
P        0.40490986       0.14776647       5.02306941       0.00000000 NULL       0.01121300      -0.01101900       0.00550900
P        3.83981874      -1.41182509       3.63719440       0.00000000 NULL      -0.00338300      -0.00073700      -0.00055800
P        2.14491914       1.29821388       1.67320814       0.00000000 NULL       0.01007800      -0.00125300      -0.01474300
P        1.54651717       3.48212857       1.91133718       0.00000000 NULL      -0.00022600       0.00450700      -0.00095600
P        0.37756405       0.48748107       2.82196491       0.00000000 NULL      -0.00432000      -0.00229200       0.00051300
P        2.02217412      -2.19796978       7.48705081       0.00000000 NULL       0.00149700      -0.00126600       0.00308400
11
Lattice="5.528979504171941 -0.6530715993618152 -1.3490147279666391 -1.2298774880967145 4.948919225332484 0.3043085332415321 -3.2468627205885476 -1.70821824281348 9.592755615584794" Properties=species:S:1:pos:R:3:initial_magmoms:R:1:castep_labels:S:1:forces:R:3 n_minim_iter=3 energy=-58.769587641432 stress="-2.7803289060072687e-06 6.407588771075213e-05 -7.50261061713346e-05 6.407588771075213e-05 4.2218225080448835e-05 -5.4323349394295874e-06 -7.50261061713346e-05 -5.4323349394295874e-06 6.377646767472059e-05" free_energy=-58.769587641432 pbc="T T T"
P       -2.31745644       2.00144970       4.97413787       0.00000000 NULL      -0.00320200       0.00313200       0.00527600
P        0.53868435       0.83555756       8.82273517       0.00000000 NULL      -0.00702400       0.01007900       0.01004000
P       -0.17379164       2.19081501       4.29205471       0.00000000 NULL      -0.00286400       0.00653600      -0.00454800
P       -1.20968985       1.81668117       7.93010776       0.00000000 NULL      -0.00234300      -0.00577700       0.00764800
P        4.19818343      -0.62220816      -0.01913283       0.00000000 NULL       0.00315700      -0.00495900      -0.01457800
P        0.40409244       0.14820016       5.02435254       0.00000000 NULL       0.00917500      -0.00925100       0.00080100
P        3.83842152      -1.41113508       3.63726965       0.00000000 NULL      -0.00229400      -0.00171400      -0.00351700
P        2.14474416       1.29905471       1.67318091       0.00000000 NULL       0.00669800       0.00166100      -0.00863300
P        1.54663875       3.48343376       1.91185546       0.00000000 NULL       0.00270300       0.00463300      -0.00428200
P        0.37702773       0.48789155       2.82267152       0.00000000 NULL      -0.00118100       0.00142600       0.00341100
P        2.02016538      -2.19746755       7.48844331       0.00000000 NULL      -0.00282600      -0.00576500       0.00838400
11
Lattice="5.528381846998171 -0.6543417073536819 -1.3477150207517659 -1.2306076987009376 4.949717688880381 0.304749608118013 -3.243961725266586 -1.7063589980536742 9.591459944042656" Properties=species:S:1:pos:R:3:initial_magmoms:R:1:castep_labels:S:1:forces:R:3 n_minim_iter=4 energy=-58.76962312115 stress="-9.003864869694719e-05 -2.5535901791960793e-05 5.15423143372073e-05 -2.5535901791960793e-05 8.263879775890831e-05 6.582873175515522e-05 5.15423143372073e-05 6.582873175515522e-05 1.642510266015569e-05" free_energy=-58.76962312115 pbc="T T T"
P       -2.31661585       2.00296807       4.97400900       0.00000000 NULL      -0.00651800       0.00227900       0.00093900
P        0.54013593       0.83743704       8.82312751       0.00000000 NULL      -0.00038600      -0.00602200       0.01226000
P       -0.17324001       2.19212442       4.29203774       0.00000000 NULL       0.00078600       0.00071100      -0.00402800
P       -1.20788620       1.81791983       7.93034820       0.00000000 NULL      -0.01069100      -0.00540400       0.00528700
P        4.19819471      -0.62324675      -0.01884087       0.00000000 NULL       0.00227600       0.00371300      -0.00601200
P        0.40570281       0.14847960       5.02445622       0.00000000 NULL       0.00582500      -0.00221100      -0.00209600
P        3.83919606      -1.41149272       3.63779713       0.00000000 NULL      -0.00179000      -0.00450800      -0.00454700
P        2.14513706       1.29909825       1.67339367       0.00000000 NULL       0.00781900       0.00490000      -0.00074300
P        1.54645911       3.48400623       1.91260041       0.00000000 NULL      -0.00020800      -0.00100700       0.00001800
P        0.37749727       0.48830730       2.82287585       0.00000000 NULL      -0.00370800       0.00288500       0.00270300
P        2.02220226      -2.19713116       7.48871791       0.00000000 NULL       0.00659500       0.00466500      -0.00378100
11
Lattice="5.529676499480492 -0.6541474139159605 -1.347769795762961 -1.230940518142785 4.94897532471747 0.30422621822287427 -3.2449840884007677 -1.7071496141834035 9.59140109301393" Properties=species:S:1:pos:R:3:initial_magmoms:R:1:castep_labels:S:1:forces:R:3 n_minim_iter=5 energy=-58.769636279054 stress="6.552651753919596e-05 2.9384280384743877e-05 1.817804827294927e-05 2.9384280384743877e-05 -1.4414122983491539e-05 -1.2232757190737627e-05 1.817804827294927e-05 -1.2232757190737627e-05 -3.20789087169693e-06" free_energy=-58.769636279054 pbc="T T T"
P       -2.31745555       2.00221598       4.97378509       0.00000000 NULL      -0.00290800       0.00086600      -0.00190000
P        0.53976638       0.83646025       8.82295532       0.00000000 NULL       0.00088100      -0.01166500       0.00894300
P       -0.17347480       2.19148291       4.29152234       0.00000000 NULL      -0.00126900      -0.00042100      -0.00194100
P       -1.20851735       1.81658467       7.93011657       0.00000000 NULL      -0.00531900      -0.00417100       0.00268300
P        4.19924239      -0.62323046      -0.01921133       0.00000000 NULL      -0.00024800       0.00916700       0.00018800
P        0.40585369       0.14771073       5.02425839       0.00000000 NULL       0.00139800      -0.00075100      -0.00294200
P        3.83989562      -1.41180170       3.63760538       0.00000000 NULL       0.00088500      -0.00103500      -0.00325000
P        2.14577281       1.29876854       1.67293350       0.00000000 NULL       0.00456600       0.00152500       0.00121200
P        1.54674111       3.48333203       1.91204644       0.00000000 NULL       0.00132400      -0.00014400      -0.00071600
P        0.37740572       0.48795024       2.82277373       0.00000000 NULL      -0.00039700       0.00385400       0.00162100
P        2.02248534      -2.19768759       7.48868905       0.00000000 NULL       0.00108800       0.00277400      -0.00389700
11
Lattice="5.529116844946668 -0.6552544577723758 -1.3484744169299352 -1.231796877348721 4.949304622547307 0.30426406679518486 -3.2453338452234037 -1.7067545664198913 9.592037477813683" Properties=species:S:1:pos:R:3:initial_magmoms:R:1:castep_labels:S:1:forces:R:3 n_minim_iter=6 energy=-58.769647430686 stress="-6.544876291759286e-06 -5.5866721810703456e-05 -5.3813427287798576e-05 -5.5866721810703456e-05 7.01970065018104e-05 -5.8989440564287946e-05 -5.3813427287798576e-05 -5.8989440564287946e-05 -6.514932413300258e-05" free_energy=-58.769647430686 pbc="T T T"
P       -2.31832155       2.00268150       4.97416682       0.00000000 NULL      -0.00111800       0.00013400      -0.00037700
P        0.53826796       0.83593833       8.82350131       0.00000000 NULL      -0.00005000      -0.00425300       0.00625800
P       -0.17449774       2.19157038       4.29142200       0.00000000 NULL       0.00166000      -0.00176100      -0.00038100
P       -1.20992380       1.81639096       7.93063143       0.00000000 NULL      -0.00748900      -0.00689800      -0.00050600
P        4.19878855      -0.62388454      -0.01997472       0.00000000 NULL      -0.00038800       0.00776000       0.00209200
P        0.40535699       0.14732875       5.02423934       0.00000000 NULL       0.00131100       0.00400600      -0.00320400
P        3.83909784      -1.41278877       3.63706704       0.00000000 NULL       0.00066200      -0.00184300      -0.00057500
P        2.14526628       1.29840529       1.67253858       0.00000000 NULL       0.00035100       0.00113100      -0.00034800
P        1.54560435       3.48307843       1.91174283       0.00000000 NULL       0.00075700      -0.00084900      -0.00361000
P        0.37681497       0.48794036       2.82286927       0.00000000 NULL       0.00233400       0.00416700       0.00159900
P        2.02175090      -2.19826529       7.48858600       0.00000000 NULL       0.00197100      -0.00159500      -0.00094900
11
Lattice="5.528154654701499 -0.6558299037229073 -1.348788124730227 -1.2319713533551295 4.9482799022010076 0.30535065879645196 -3.2441728289644183 -1.7040536861050712 9.594678285078523" Properties=species:S:1:pos:R:3:initial_magmoms:R:1:castep_labels:S:1:forces:R:3 n_minim_iter=7 energy=-58.769664389874 stress="2.053464455140799e-06 -4.3507778143295684e-05 -1.0096200237775596e-05 -4.3507778143295684e-05 -5.189275800178728e-05 -2.3957085309975986e-06 -1.0096200237775596e-05 -2.3957085309975986e-06 8.611716558746726e-05" free_energy=-58.769664389874 pbc="T T T"
P       -2.31815928       2.00356397       4.97617641       0.00000000 NULL      -0.00000100      -0.00511600      -0.00318200
P        0.53833628       0.83715859       8.82743207       0.00000000 NULL      -0.00084300       0.00064100       0.00543000
P       -0.17450262       2.19211744       4.29305387       0.00000000 NULL       0.00370100       0.00032900      -0.00047900
P       -1.20997172       1.81718738       7.93394093       0.00000000 NULL      -0.00155500      -0.00485000       0.00306700
P        4.19821609      -0.62360907      -0.02024952       0.00000000 NULL       0.00026900       0.00471600      -0.00104200
P        0.40589066       0.14812658       5.02579287       0.00000000 NULL       0.00154500       0.00488200      -0.00443100
P        3.83869435      -1.41215827       3.63789807       0.00000000 NULL      -0.00174500      -0.00096200      -0.00191300
P        2.14533968       1.29843582       1.67327055       0.00000000 NULL      -0.00128900      -0.00029200       0.00596300
P        1.54524617       3.48258228       1.91302480       0.00000000 NULL       0.00020600       0.00255700      -0.00341900
P        0.37677320       0.48866187       2.82410192       0.00000000 NULL       0.00041900       0.00240400      -0.00012100
P        2.02209407      -2.19625324       7.49059228       0.00000000 NULL      -0.00070500      -0.00430900       0.00012700
