8
Lattice="5.092599999999901 -1.0191425169678939e-13 -1.0052660341679922e-06 -0.15501581369638096 5.090240157153986 -1.005266034167992e-06 -2.4687908027487904 -2.5451187482784055 6.537082675967703" Properties=species:S:1:pos:R:3:initial_magmoms:R:1:castep_labels:S:1 n_minim_iter=1 pbc="T T T"
P        0.61884775       1.54796013       1.38819200       0.00000000 NULL
P       -0.94038590      -1.87943931       5.14888849       0.00000000 NULL
P       -1.01789390       0.66568067       4.65673334       0.00000000 NULL
P        3.16514785       1.54796023       1.88034615       0.00000000 NULL
P        0.93811709       0.82634303       4.03829297       0.00000000 NULL
P        3.26619616       3.50795555       2.49878568       0.00000000 NULL
P        0.71989581       3.50795520       0.76975163       0.00000000 NULL
P        1.01562534      -1.71877670       5.76732803       0.00000000 NULL
8
Lattice="5.091632357215827 0.0002598925983178881 -1.0051279122303334e-06 -0.15472658703915987 5.089280873743811 -1.005127912230097e-06 -2.4684515963462172 -2.54476905458473 6.528668922380741" Properties=species:S:1:pos:R:3:initial_magmoms:R:1:castep_labels:S:1 n_minim_iter=2 pbc="T T T"
P        0.61884047       1.54759527       1.38648687       0.00000000 NULL
P       -0.94041116      -1.87910800       5.14217988       0.00000000 NULL
P       -1.01777455       0.66553234       4.65082133       0.00000000 NULL
P        3.16465675       1.54772532       1.87784441       0.00000000 NULL
P        0.93804360       0.82625249       4.03307247       0.00000000 NULL
P        3.26576869       3.50752965       2.49559243       0.00000000 NULL
P        0.71995217       3.50739935       0.76873801       0.00000000 NULL
P        1.01540724      -1.71838759       5.75992789       0.00000000 NULL
8
Lattice="5.062524064785183 0.00862731685520266 -1.0010847846951706e-06 -0.14547700046240425 5.060440769286967 -1.0010847847952459e-06 -2.4585222946529983 -2.534532767302476 6.269122829280261" Properties=species:S:1:pos:R:3:initial_magmoms:R:1:castep_labels:S:1 n_minim_iter=3 pbc="T T T"
P        0.61882915       1.53651326       1.33384636       0.00000000 NULL
P       -0.94155837      -1.86922034       4.93527435       0.00000000 NULL
P       -1.01429696       0.66099995       4.46840777       0.00000000 NULL
P        3.15009127       1.54082702       1.80071193       0.00000000 NULL
P        0.93604466       0.82366085       3.87204624       0.00000000 NULL
P        3.25330975       3.49521642       2.39707263       0.00000000 NULL
P        0.72204739       3.49090242       0.73748482       0.00000000 NULL
P        1.00878349      -1.70655920       5.53163504       0.00000000 NULL
8
Lattice="5.082365841919555 0.025393702909520206 -1.0084134657843705e-06 -0.1293223560064543 5.080783711150776 -1.0084134660207382e-06 -2.4765205571794042 -2.553087484592166 6.007056349131169" Properties=species:S:1:pos:R:3:initial_magmoms:R:1:castep_labels:S:1 n_minim_iter=4 pbc="T T T"
P        0.62761865       1.53929493       1.28109031       0.00000000 NULL
P       -0.95704378      -1.87890494       4.72596396       0.00000000 NULL
P       -1.02170504       0.66148683       4.28461848       0.00000000 NULL
P        3.16880165       1.55199187       1.72243478       0.00000000 NULL
P        0.94622235       0.83080040       3.70980782       0.00000000 NULL
P        3.27813442       3.52416139       2.29724459       0.00000000 NULL
P        0.73695118       3.51146421       0.70627965       0.00000000 NULL
P        1.01088384      -1.70959113       5.30077378       0.00000000 NULL
8
Lattice="5.216309520540229 0.08656326248165905 -1.0473016285728436e-06 -0.07225831009696343 5.216527288255282 -1.0473016286720367e-06 -2.5720245656915743 -2.6515442036991175 5.266179949107831" Properties=species:S:1:pos:R:3:initial_magmoms:R:1:castep_labels:S:1 n_minim_iter=5 pbc="T T T"
P        0.66774787       1.56584709       1.13294298       0.00000000 NULL
P       -1.02722938      -1.93644273       4.13323501       0.00000000 NULL
P       -1.06335861       0.67182084       3.76603295       0.00000000 NULL
P        3.27590270       1.60912880       1.50014399       0.00000000 NULL
P        0.99599788       0.86731202       3.25301702       0.00000000 NULL
P        3.40861787       3.67348186       2.01315904       0.00000000 NULL
P        0.80046284       3.63019994       0.61992704       0.00000000 NULL
P        1.03212731      -1.74095134       4.64625006       0.00000000 NULL
8
Lattice="5.314569864312025 0.059182292915362006 -1.061125928193725e-06 -0.10261758001253514 5.313908638537231 -1.061125928269031e-06 -2.6059751226437076 -2.6865444147000495 5.164739820809723" Properties=species:S:1:pos:R:3:initial_magmoms:R:1:castep_labels:S:1 n_minim_iter=6 pbc="T T T"
P        0.67730200       1.57596314       1.11718437       0.00000000 NULL
P       -1.05135939      -1.96158530       4.04755351       0.00000000 NULL
P       -1.10266825       0.69536894       3.69955428       0.00000000 NULL
P        3.33458700       1.60555436       1.46518253       0.00000000 NULL
P        1.01880163       0.87922865       3.19536981       0.00000000 NULL
P        3.45378539       3.73163797       1.96936610       0.00000000 NULL
P        0.79650019       3.70204655       0.61299990       0.00000000 NULL
P        1.07011069      -1.77772539       4.55173707       0.00000000 NULL
8
Lattice="5.226666054737684 0.04476904402989957 -1.0408408426494765e-06 -0.11434840860768647 5.225606831411965 -1.040840842751104e-06 -2.5561578089286288 -2.6351868922303683 5.137537477713106" Properties=species:S:1:pos:R:3:initial_magmoms:R:1:castep_labels:S:1 n_minim_iter=7 pbc="T T T"
P        0.66429918       1.54542364       1.11277854       0.00000000 NULL
P       -1.03167162      -1.92415419       4.02475702       0.00000000 NULL
P       -1.08884590       0.68864916       3.68154727       0.00000000 NULL
P        3.27763227       1.56780823       1.45598724       0.00000000 NULL
P        0.99989274       0.86233674       3.18126193       0.00000000 NULL
P        3.38765956       3.66086612       1.95627169       0.00000000 NULL
P        0.77432627       3.63848133       0.61249319       0.00000000 NULL
P        1.05706720      -1.75046641       4.52504147       0.00000000 NULL
8
Lattice="5.249874921047706 0.04056209892528739 -1.0445660977937174e-06 -0.11925986880610298 5.248676886054923 -1.0445660979003002e-06 -2.5653065036533818 -2.6446184384109195 5.179741933677808" Properties=species:S:1:pos:R:3:initial_magmoms:R:1:castep_labels:S:1 n_minim_iter=8 pbc="T T T"
P        0.66711465       1.54919647       1.12281836       0.00000000 NULL
P       -1.03713494      -1.93065672       4.05692164       0.00000000 NULL
P       -1.09676494       0.69368165       3.71268933       0.00000000 NULL
P        3.29205218       1.56947759       1.46704963       0.00000000 NULL
P        1.00489315       0.86537765       3.20917894       0.00000000 NULL
P        3.39969556       3.67538834       1.97055912       0.00000000 NULL
P        0.77475783       3.65510701       0.61930797       0.00000000 NULL
P        1.06452335      -1.75896052       4.56043113       0.00000000 NULL
