30
Lattice="5.494343995064426 6.976373933377359e-40 7.311119778015185e-39 -1.4592266813682592e-39 11.492350368224436 1.9300321526561577e-13 -1.2514031997885067e-38 -5.746175184112387 9.952667368073714" Properties=species:S:1:pos:R:3:initial_magmoms:R:1:castep_labels:S:1:forces:R:3 n_minim_iter=1 energy=-160.451595238088 stress="-0.00017670726224459555 -0.0 0.0 -0.0 -0.00011775180014498037 0.0 0.0 0.0 -0.00011773588773955538" free_energy=-160.451595238088 pbc="T T T"
P        1.15558544       7.41686287       2.25843266       0.00000000 NULL       0.00251800      -0.00429400      -0.00767500
P        1.15558544       3.99360380       2.40025936       0.00000000 NULL       0.00251800      -0.00450000       0.00755600
P        1.15558544       5.82805886       5.29397534       0.00000000 NULL       0.00251800       0.00879400       0.00011900
P        2.65051894      -0.38853115       8.02961071       0.00000000 NULL      -0.00151500       0.00346700       0.01003900
P        2.65051894       1.40193724       6.27433985       0.00000000 NULL      -0.00151400       0.00696100      -0.00802200
P        2.65051894      -1.01340611       5.60138417       0.00000000 NULL      -0.00151400      -0.01042800      -0.00201800
P        3.22078820       1.26565071       1.10456780       0.00000000 NULL      -0.00324100      -0.00287200       0.00929300
P        3.22078820      -5.42241677       8.30429779       0.00000000 NULL      -0.00324200       0.00948100      -0.00215800
P        3.22078820       4.15676604      10.49646913       0.00000000 NULL      -0.00324100      -0.00661100      -0.00713300
P        5.08612271       0.52612075       2.14521242       0.00000000 NULL      -0.00418200       0.00276600       0.00207400
P        5.08612271      -4.15142711       8.42442721       0.00000000 NULL      -0.00418100       0.00041500      -0.00343200
P        5.08612271       3.62530634       9.33569509       0.00000000 NULL      -0.00418200      -0.00317800       0.00135600
P        0.36156907      -0.25951979       7.90964053       0.00000000 NULL      -0.00658000      -0.00056500      -0.00461400
P        0.36156907       1.23353434       6.22259782       0.00000000 NULL      -0.00658000      -0.00371300       0.00279600
P        0.36156907      -0.97401457       5.77309638       0.00000000 NULL      -0.00658000       0.00427800       0.00181800
P        4.18425774       3.01333621       0.04778722       0.00000000 NULL       0.00350300       0.00403000      -0.00853700
P        4.18425774       4.28089202       7.31914805       0.00000000 NULL       0.00350200      -0.00941100       0.00077900
P        4.18425774       9.94429731       2.58573210       0.00000000 NULL       0.00350200       0.00537800       0.00776000
P        2.38009954      -0.49252445       3.38758164       0.00000000 NULL      -0.00111900      -0.00345600      -0.00338200
P        2.38009954      -2.56618121       8.68541522       0.00000000 NULL      -0.00112000      -0.00120000       0.00468400
P        2.38009954       3.05870564       7.83233787       0.00000000 NULL      -0.00111800       0.00465800      -0.00130200
P        3.67499571       5.63998684       2.04392290       0.00000000 NULL      -0.00410100      -0.00232300       0.00660300
P        3.67499571       4.69627091       4.04633403       0.00000000 NULL      -0.00410100       0.00688000      -0.00129000
P        3.67499571       6.90226779       3.86241043       0.00000000 NULL      -0.00410100      -0.00455700      -0.00531300
P        3.46127283       1.51993615       3.32871514       0.00000000 NULL       0.00773000       0.00065700      -0.00089400
P        3.46127283      -3.62339140       6.97200647       0.00000000 NULL       0.00773000      -0.00110200      -0.00012300
P        3.46127283       2.10345523       9.60461312       0.00000000 NULL       0.00773000       0.00044700       0.00101600
P        0.29857472       5.66410497       1.32891329       0.00000000 NULL       0.00698700       0.00731600      -0.01239500
P        0.29857472       4.06499536       4.38295192       0.00000000 NULL       0.00698700      -0.01439300      -0.00013800
P        0.29857472       7.50942520       4.24080215       0.00000000 NULL       0.00698700       0.00707600       0.01253400
30
Lattice="5.495130766985262 6.4464822675724796e-40 7.34381654358486e-39 -1.5689105538896944e-39 11.49344688504896 1.898878740638277e-13 -1.2403916562587678e-38 -5.746723442524647 9.95361697949943" Properties=species:S:1:pos:R:3:initial_magmoms:R:1:castep_labels:S:1:forces:R:3 n_minim_iter=2 energy=-160.451611754497 stress="-9.226111952667073e-06 -0.0 -0.0 -0.0 3.816110788697984e-05 1.590708957356392e-08 -0.0 1.590708957356392e-08 3.8145200797406285e-05" free_energy=-160.451611754497 pbc="T T T"
P        1.15575416       7.41756500       2.25863824       0.00000000 NULL       0.00023000      -0.00688900      -0.00567500
P        1.15575416       3.99397903       2.40049812       0.00000000 NULL       0.00023000      -0.00147000       0.00880400
P        1.15575416       5.82862628       5.29448060       0.00000000 NULL       0.00023000       0.00835900      -0.00312900
P        2.65089653      -0.38856375       8.03038978       0.00000000 NULL      -0.00450800       0.00256900       0.00794300
P        2.65089653       1.40207998       6.27492816       0.00000000 NULL      -0.00450800       0.00559400      -0.00619600
P        2.65089653      -1.01351625       5.60191601       0.00000000 NULL      -0.00450800      -0.00816300      -0.00174700
P        3.22124522       1.26576777       1.10468517       0.00000000 NULL      -0.00058200      -0.00273000       0.01065900
P        3.22124522      -5.42292191       8.30508734       0.00000000 NULL      -0.00058200       0.01059700      -0.00296500
P        3.22124522       4.15715412      10.49746143       0.00000000 NULL      -0.00058200      -0.00786800      -0.00769500
P        5.08684563       0.52617452       2.14541978       0.00000000 NULL      -0.00861400       0.00242200       0.00252500
P        5.08684563      -4.15182268       8.42522659       0.00000000 NULL      -0.00861500       0.00097600      -0.00336000
P        5.08684563       3.62564815       9.33658759       0.00000000 NULL      -0.00861500      -0.00339800       0.00083600
P        0.36161236      -0.25954528       7.91038926       0.00000000 NULL      -0.00336300      -0.00014100      -0.00793300
P        0.36161236       1.23364724       6.22319514       0.00000000 NULL      -0.00336300      -0.00679900       0.00408900
P        0.36161236      -0.97410198       5.77364955       0.00000000 NULL      -0.00336300       0.00694000       0.00384400
P        4.18486143       3.01362892       0.04778077       0.00000000 NULL       0.00158100       0.00154700      -0.01025100
P        4.18486143       4.28128834       7.31984739       0.00000000 NULL       0.00158100      -0.00965100       0.00378400
P        4.18486143       9.94525306       2.58598881       0.00000000 NULL       0.00158000       0.00810400       0.00646600
P        2.38043892      -0.49257590       3.38790049       0.00000000 NULL       0.00191600      -0.00291100      -0.00321200
P        2.38043892      -2.56642761       8.68624996       0.00000000 NULL       0.00191600      -0.00132600       0.00412700
P        2.38043892       3.05900349       7.83308349       0.00000000 NULL       0.00191600       0.00423700      -0.00091500
P        3.67551667       5.64052197       2.04412643       0.00000000 NULL      -0.00127200      -0.00203900       0.00952100
P        3.67551667       4.69672787       4.04671844       0.00000000 NULL      -0.00127200       0.00926500      -0.00299400
P        3.67551667       6.90292048       3.86277210       0.00000000 NULL      -0.00127200      -0.00722600      -0.00652600
P        3.46177844       1.52008202       3.32903159       0.00000000 NULL       0.00811900      -0.00234500      -0.00362700
P        3.46177844      -3.62373854       6.97267153       0.00000000 NULL       0.00812000      -0.00196900       0.00384500
P        3.46177844       2.10365650       9.60553083       0.00000000 NULL       0.00811900       0.00431600      -0.00021700
P        0.29862648       5.66465484       1.32902410       0.00000000 NULL       0.00649400       0.00723500      -0.00831700
P        0.29862648       4.06536465       4.38336993       0.00000000 NULL       0.00649400      -0.01082100      -0.00210800
P        0.29862648       7.51015082       4.24122294       0.00000000 NULL       0.00649400       0.00358500       0.01042500
30
Lattice="5.496550233201615 6.246594950400785e-40 7.374716491173433e-39 -1.609579865791984e-39 11.49199704351732 1.872704508868521e-13 -1.2331048389922152e-38 -5.745998521758825 9.95236137990157" Properties=species:S:1:pos:R:3:initial_magmoms:R:1:castep_labels:S:1:forces:R:3 n_minim_iter=3 energy=-160.451632653525 stress="0.00010956739363138942 0.0 0.0 0.0 -5.7535607253881474e-05 -1.5906996752524598e-08 0.0 -1.5906996752524598e-08 -5.7535607253881474e-05" free_energy=-160.451632653525 pbc="T T T"
P        1.15605962       7.41654794       2.25827899       0.00000000 NULL      -0.00020700      -0.00455400      -0.00453100
P        1.15605962       3.99345152       2.40030295       0.00000000 NULL      -0.00020700      -0.00164700       0.00620900
P        1.15605962       5.82799608       5.29377943       0.00000000 NULL      -0.00020700       0.00620100      -0.00167800
P        2.65153031      -0.38848110       8.02947959       0.00000000 NULL      -0.00764300       0.00386700       0.00753600
P        2.65153031       1.40197533       6.27405608       0.00000000 NULL      -0.00764300       0.00459300      -0.00711700
P        2.65153031      -1.01349424       5.60118708       0.00000000 NULL      -0.00764300      -0.00846000      -0.00041900
P        3.22206535       1.26557378       1.10467641       0.00000000 NULL       0.00079800      -0.00198800       0.00815600
P        3.22206535      -5.42210759       8.30400412       0.00000000 NULL       0.00079800       0.00805700      -0.00235700
P        3.22206535       4.15653379      10.49604222       0.00000000 NULL       0.00079600      -0.00606600      -0.00579700
P        5.08805993       0.52613897       2.14517985       0.00000000 NULL      -0.00946600       0.00278700       0.00225200
P        5.08805993      -4.15128777       8.42412173       0.00000000 NULL      -0.00946500       0.00055500      -0.00354200
P        5.08805993       3.62514878       9.33542117       0.00000000 NULL      -0.00946500      -0.00334400       0.00128600
P        0.36165810      -0.25951505       7.90929830       0.00000000 NULL      -0.00018600      -0.00083800      -0.00419300
P        0.36165810       1.23341225       6.22245885       0.00000000 NULL      -0.00018600      -0.00321200       0.00282200
P        0.36165810      -0.97389722       5.77296561       0.00000000 NULL      -0.00018600       0.00405000       0.00137100
P        4.18596556       3.01327246       0.04764987       0.00000000 NULL      -0.00032900       0.00336100      -0.00893600
P        4.18596556       4.28062829       7.31896594       0.00000000 NULL      -0.00032900      -0.00942200       0.00156200
P        4.18596556       9.94409480       2.58574556       0.00000000 NULL      -0.00032900       0.00606400       0.00737900
P        2.38107237      -0.49255104       3.38743275       0.00000000 NULL       0.00347600      -0.00320600      -0.00480300
P        2.38107237      -2.56612019       8.68520671       0.00000000 NULL       0.00347500      -0.00255700       0.00517600
P        2.38107237       3.05867121       7.83208329       0.00000000 NULL       0.00347600       0.00576200      -0.00037500
P        3.67644523       5.63978450       2.04398220       0.00000000 NULL       0.00312000      -0.00233500       0.00369600
P        3.67644523       4.69624678       4.04617362       0.00000000 NULL       0.00312000       0.00436800       0.00017400
P        3.67644523       6.90196427       3.86220555       0.00000000 NULL       0.00312000      -0.00203300      -0.00387000
P        3.46277332       1.51986631       3.32857121       0.00000000 NULL       0.00782400      -0.00027900      -0.00031100
P        3.46277332      -3.62330446       6.97183293       0.00000000 NULL       0.00782300      -0.00013000       0.00039600
P        3.46277332       2.10343813       9.60431861       0.00000000 NULL       0.00782400       0.00040600      -0.00008700
P        0.29878555       5.66403068       1.32874548       0.00000000 NULL       0.00261300       0.00491300      -0.00791600
P        0.29878555       4.06471051       4.38279417       0.00000000 NULL       0.00261300      -0.00931200      -0.00029600
P        0.29878555       7.50925435       4.24082172       0.00000000 NULL       0.00261300       0.00440000       0.00821300
30
Lattice="5.49574686923975 6.183653983491689e-40 7.381373235595992e-39 -1.6229447899781122e-39 11.493607905717484 1.777476512740036e-13 -1.2311976735171046e-38 -5.746803952858898 9.95375642748891" Properties=species:S:1:pos:R:3:initial_magmoms:R:1:castep_labels:S:1:forces:R:3 n_minim_iter=4 energy=-160.451704549413 stress="-6.361944677959192e-07 0.0 0.0 0.0 3.0855431688102076e-06 -0.0 0.0 -0.0 3.0696383071153095e-06" free_energy=-160.451704549413 pbc="T T T"
P        1.15591175       7.41723774       2.25826941       0.00000000 NULL      -0.00000000      -0.00062700       0.00481400
P        1.15591175       3.99390375       2.40110540       0.00000000 NULL      -0.00000100       0.00448200      -0.00186400
P        1.15591175       5.82927034       5.29438161       0.00000000 NULL      -0.00000000      -0.00385500      -0.00295000
P        2.65085034      -0.38836010       8.03107548       0.00000000 NULL      -0.00560600       0.00102500       0.00319000
P        2.65085034       1.40249148       6.27454839       0.00000000 NULL      -0.00560600       0.00225000      -0.00248300
P        2.65085034      -1.01413139       5.60188898       0.00000000 NULL      -0.00560600      -0.00327500      -0.00070700
P        3.22156491       1.26560239       1.10540617       0.00000000 NULL      -0.00167700       0.00290900       0.00193900
P        3.22156491      -5.42229533       8.30500952       0.00000000 NULL      -0.00167700       0.00022500      -0.00348900
P        3.22156491       4.15669293      10.49709717       0.00000000 NULL      -0.00167900      -0.00313200       0.00155200
P        5.08682830       0.52636181       2.14562085       0.00000000 NULL       0.00151000       0.00089100      -0.00017000
P        5.08682830      -4.15182270       8.42510329       0.00000000 NULL       0.00151100      -0.00059500      -0.00068900
P        5.08682830       3.62546087       9.33678870       0.00000000 NULL       0.00151200      -0.00029800       0.00085600
P        0.36143753      -0.25957302       7.91002240       0.00000000 NULL      -0.00189400      -0.00194300       0.00032800
P        0.36143753       1.23326289       6.22354205       0.00000000 NULL      -0.00189400       0.00125500       0.00151800
P        0.36143753      -0.97368989       5.77394840       0.00000000 NULL      -0.00189400       0.00068700      -0.00184600
P        4.18542876       3.01382856       0.04708936       0.00000000 NULL       0.00059800      -0.00028200      -0.00123600
P        4.18542876       4.28067025       7.32015964       0.00000000 NULL       0.00059800      -0.00093200       0.00086400
P        4.18542876       9.94591304       2.58650742       0.00000000 NULL       0.00059700       0.00121600       0.00037500
P        2.38084105      -0.49279788       3.38769469       0.00000000 NULL      -0.00030600      -0.00053300       0.00046700
P        2.38084105      -2.56657536       8.68668456       0.00000000 NULL      -0.00030700       0.00067100       0.00022600
P        2.38084105       3.05937322       7.83313360       0.00000000 NULL      -0.00030600      -0.00013800      -0.00069500
P        3.67588331       5.64044975       2.04471646       0.00000000 NULL       0.00490800      -0.00185400      -0.00290300
P        3.67588331       4.69735547       4.04662542       0.00000000 NULL       0.00490800      -0.00158700       0.00305700
P        3.67588331       6.90260662       3.86241454       0.00000000 NULL       0.00490800       0.00344100      -0.00015400
P        3.46273409       1.51999312       3.32889423       0.00000000 NULL       0.00212000       0.00128700       0.00431300
P        3.46273409      -3.62389355       6.97295665       0.00000000 NULL       0.00211900       0.00309100      -0.00327200
P        3.46273409       2.10390041       9.60566197       0.00000000 NULL       0.00212000      -0.00438000      -0.00104200
P        0.29906439       5.66521165       1.32842696       0.00000000 NULL       0.00034800      -0.00546200      -0.00006800
P        0.29906439       4.06464962       4.38332573       0.00000000 NULL       0.00034800       0.00267200       0.00476400
P        0.29906439       7.51055057       4.24200373       0.00000000 NULL       0.00034800       0.00279000      -0.00469600
