32
Lattice="8.849720981764387 1.287022741349685e-06 -1.744010883964579 -7.812184062249838e-07 7.899562846743363 1.8654425494033027e-06 -5.125861787664897 -3.9497844688805923 10.75014045521525" Properties=species:S:1:pos:R:3:initial_magmoms:R:1:castep_labels:S:1:forces:R:3 n_minim_iter=1 energy=-171.251502829278 stress="0.0004732328071425976 -1.4686180900058888e-08 -7.980470701092e-05 -1.4686180900058888e-08 -0.00043921961217806114 -0.0 -7.980470701092e-05 -0.0 0.0006124724882560559" free_energy=-171.251502829278 pbc="T T T"
P        0.68155579       2.46080473       4.84775921       0.00000000 NULL       0.01440300      -0.03230300       0.12596400
P        3.04230292      -1.48897629       4.15837153       0.00000000 NULL      -0.01440200      -0.03230300      -0.12596400
P        3.78497738      -3.11217501       6.55579216       0.00000000 NULL      -0.05507800      -0.01729600       0.06226500
P       -0.06111835       0.83760700       2.45033782       0.00000000 NULL       0.05507700      -0.01729500      -0.06226500
P       -3.25182939       4.46833434       6.96328745       0.00000000 NULL       0.04443500       0.04834400      -0.03025700
P        6.97568770       0.51855509       2.04284424       0.00000000 NULL      -0.04443500       0.04833800       0.03025700
P        5.23632146       2.34446098       4.54765411       0.00000000 NULL      -0.03076800      -0.03830000      -0.05033500
P       -1.51246351       6.29424176       4.45847844       0.00000000 NULL       0.03076700      -0.03829700       0.05033500
P        2.94772767       0.37442118       2.91917519       0.00000000 NULL       0.02811200      -0.00614200      -0.03616400
P        0.77613067       4.32420165       6.08695644       0.00000000 NULL      -0.02811200      -0.00614100       0.03616400
P        4.74057873       2.60667265       1.19636976       0.00000000 NULL       0.01008900      -0.02840400       0.05017900
P       -1.01672005      -1.34311091       7.80976105       0.00000000 NULL      -0.01008800      -0.02840400      -0.05017800
P       -3.19468512      -0.47739992       7.61668120       0.00000000 NULL       0.06078000       0.00223000       0.00485800
P        6.91854363       3.47238398       1.38945002       0.00000000 NULL      -0.06078000       0.00222900      -0.00485700
P        0.13358212       0.09595490       9.09936372       0.00000000 NULL      -0.01267700       0.01978400       0.09961800
P        3.59027627       4.04573883      -0.09323223       0.00000000 NULL       0.01267700       0.01978300      -0.09961800
P       -0.74637248       1.52119078       7.58268886       0.00000000 NULL       0.00406600       0.03879700       0.02339800
P        4.47023059       5.47097417       1.42344330       0.00000000 NULL      -0.00406700       0.03879800      -0.02339900
P       -1.61543505       2.37280205       5.12648966       0.00000000 NULL      -0.04019800      -0.00548400       0.04679900
P        5.33929377      -1.57697839       3.87964104       0.00000000 NULL       0.04019800      -0.00548700      -0.04679900
P        0.19155073       3.47872032       8.06162568       0.00000000 NULL       0.03459500      -0.01859300      -0.10854500
P        3.53230777      -0.47105909       0.94450555       0.00000000 NULL      -0.03459500      -0.01859600       0.10854600
P        0.18333503      -1.42404269       5.92769637       0.00000000 NULL      -0.02166300      -0.00645400       0.00759100
P        3.54052367       2.52573974       3.07843440       0.00000000 NULL       0.02166300      -0.00645300      -0.00759100
P        3.42689008      -0.87949544       6.26255000       0.00000000 NULL       0.03116400       0.09549600       0.04224500
P        0.29696850       3.07028651       2.74358103       0.00000000 NULL      -0.03116400       0.09549800      -0.04224500
P        7.88720958       1.00113913      -1.27167597       0.00000000 NULL      -0.06765800       0.00426000       0.11344700
P       -4.16335058      -2.94864621      10.27780602       0.00000000 NULL       0.06765800       0.00426000      -0.11344800
P       -2.83914581       1.61830103       8.37158819       0.00000000 NULL       0.03179100      -0.00697400      -0.05635900
P        6.56300390       5.56808521       0.63454402       0.00000000 NULL      -0.03179100      -0.00697400       0.05635900
P       -1.63039818      -3.30075732       8.59754248       0.00000000 NULL       0.02405500      -0.04895900      -0.01419800
P        5.35425725       0.64902672       0.40858741       0.00000000 NULL      -0.02405300      -0.04895800       0.01419700
32
Lattice="8.840025392293056 1.2851253574680367e-06 -1.7400364221756999 -7.819880428682092e-07 7.907345296319316 1.8672803361943758e-06 -5.118505479606188 -3.9536756892414466 10.734473687867409" Properties=species:S:1:pos:R:3:initial_magmoms:R:1:castep_labels:S:1:forces:R:3 n_minim_iter=2 energy=-171.252527868244 stress="-0.0004573732648870953 -1.4707481667216392e-08 0.00010140808609545702 -1.4707481667216392e-08 -0.0002425410801740655 -0.0 0.00010140808609545702 -0.0 -0.0004446512932449531" free_energy=-171.252527868244 pbc="T T T"
P        0.68174681       2.46312260       4.84164334       0.00000000 NULL       0.03119500      -0.03024100       0.13675800
P        3.03977261      -1.49054965       4.15279510       0.00000000 NULL      -0.03119500      -0.03024100      -0.13675900
P        3.78195431      -3.11529805       6.54767769       0.00000000 NULL      -0.07292400      -0.00689900       0.04457000
P       -0.06043456       0.83837519       2.44675997       0.00000000 NULL       0.07292300      -0.00689600      -0.04457000
P       -3.24699081       4.47289575       6.95305224       0.00000000 NULL       0.04740500       0.03689700      -0.04803300
P        6.96850984       0.51922528       2.04138715       0.00000000 NULL      -0.04740500       0.03689400       0.04803300
P        5.23148047       2.34664446       4.54218426       0.00000000 NULL      -0.03314300      -0.02762700      -0.03854500
P       -1.50996180       6.30031647       4.45225599       0.00000000 NULL       0.03314300      -0.02762300       0.03854600
P        2.94521609       0.37476981       2.91557750       0.00000000 NULL       0.02438900       0.00171600      -0.01665300
P        0.77630297       4.32844150       6.07886181       0.00000000 NULL      -0.02438800       0.00171400       0.01665300
P        4.73579898       2.60914706       1.19574029       0.00000000 NULL       0.01261600      -0.03581600       0.02975400
P       -1.01427958      -1.34452771       7.79869822       0.00000000 NULL      -0.01261600      -0.03581600      -0.02975400
P       -3.18973660      -0.47786289       7.60567511       0.00000000 NULL       0.06753200       0.01700200       0.00735400
P        6.91125582       3.47581223       1.38876381       0.00000000 NULL      -0.06753100       0.01699900      -0.00735300
P        0.13502487       0.09611463       9.08722945       0.00000000 NULL       0.00608800       0.01769800       0.09093600
P        3.58649424       4.04978979      -0.09279026       0.00000000 NULL      -0.00608800       0.01769900      -0.09093600
P       -0.74421266       1.52281729       7.57222785       0.00000000 NULL       0.01955800       0.04536600       0.01258900
P        4.46573149       5.47649190       1.42221201       0.00000000 NULL      -0.01955800       0.04536500      -0.01258900
P       -1.61293819       2.37512160       5.11932053       0.00000000 NULL      -0.04358300      -0.01085600       0.04791100
P        5.33445763      -1.57855007       3.87511786       0.00000000 NULL       0.04358300      -0.01085700      -0.04791200
P        0.19290192       3.48208619       8.05024128       0.00000000 NULL       0.03968100      -0.03060600      -0.09675400
P        3.52861730      -0.47158445       0.94419763       0.00000000 NULL      -0.03968200      -0.03060500       0.09675400
P        0.18412864      -1.42546688       5.91962040       0.00000000 NULL       0.00048100      -0.01320600       0.00070400
P        3.53739077       2.52820677       3.07481806       0.00000000 NULL      -0.00048100      -0.01320700      -0.00070500
P        3.42447795      -0.88004716       6.25470815       0.00000000 NULL       0.01566200       0.08699400       0.06427600
P        0.29704136       3.07362601       2.73973058       0.00000000 NULL      -0.01566200       0.08699300      -0.06427600
P        7.87839654       1.00213946      -1.26814864       0.00000000 NULL      -0.09165700       0.00625800       0.10366200
P       -4.15687683      -2.95153710      10.26258639       0.00000000 NULL       0.09165800       0.00625800      -0.10366200
P       -2.83453477       1.61987236       8.35940849       0.00000000 NULL       0.01436500      -0.01699400      -0.04269600
P        6.55605358       5.57354776       0.63503141       0.00000000 NULL      -0.01436500      -0.01699500       0.04269500
P       -1.62705390      -3.30417050       8.58540736       0.00000000 NULL       0.02019000      -0.03968500      -0.00957500
P        5.34857369       0.64950477       0.40903022       0.00000000 NULL      -0.02018900      -0.03968400       0.00957500
32
Lattice="8.843340930941194 1.2857304687429887e-06 -1.7412103822000644 -7.833645365450707e-07 7.921264192365185 1.8705672141969623e-06 -5.121734736675618 -3.960635137724176 10.735068407437426" Properties=species:S:1:pos:R:3:initial_magmoms:R:1:castep_labels:S:1:forces:R:3 n_minim_iter=3 energy=-171.253612063482 stress="0.0002258443136939022 -1.4676651526767756e-08 6.911235203954937e-05 -1.4676651526767756e-08 0.0011448962323000991 -0.0 6.911235203954937e-05 -0.0 0.00012709980222180877" free_energy=-171.253612063482 pbc="T T T"
P        0.68152394       2.46721047       4.84255675       0.00000000 NULL       0.02278300      -0.01393600       0.12649600
P        3.04008176      -1.49342123       4.15130245       0.00000000 NULL      -0.02278300      -0.01393600      -0.12649700
P        3.78187259      -3.12087161       6.54752393       0.00000000 NULL      -0.06536800       0.02031700       0.02663100
P       -0.06026656       0.83976107       2.44633450       0.00000000 NULL       0.06536700       0.02032000      -0.02663000
P       -3.24869275       4.48110153       6.95310721       0.00000000 NULL       0.03623300       0.02820700      -0.05096500
P        6.97029806       0.52047160       2.04075294       0.00000000 NULL      -0.03623300       0.02820400       0.05096600
P        5.23243755       2.35051923       4.54109596       0.00000000 NULL      -0.02681100      -0.01195500      -0.02835700
P       -1.51083261       6.31115068       4.45276506       0.00000000 NULL       0.02681100      -0.01195200       0.02835700
P        2.94605599       0.37541678       2.91495867       0.00000000 NULL       0.03381800       0.00131200      -0.00510000
P        0.77554935       4.33604792       6.07890142       0.00000000 NULL      -0.03381800       0.00131200       0.00510100
P        4.73738033       2.61347938       1.19539683       0.00000000 NULL       0.01003400      -0.04409300       0.01332000
P       -1.01577465      -1.34715485       7.79846244       0.00000000 NULL      -0.01003300      -0.04409300      -0.01332000
P       -3.19135944      -0.47861821       7.60608771       0.00000000 NULL       0.06243400       0.02313400       0.00032100
P        6.91296494       3.48201635       1.38777197       0.00000000 NULL      -0.06243400       0.02313200      -0.00032000
P        0.13383413       0.09643182       9.08788136       0.00000000 NULL      -0.00666000       0.01634600       0.07598400
P        3.58777126       4.05706642      -0.09402141       0.00000000 NULL       0.00666000       0.01634600      -0.07598400
P       -0.74538824       1.52583717       7.57239769       0.00000000 NULL       0.01907300       0.05132700       0.01883700
P        4.46699334       5.48647123       1.42146293       0.00000000 NULL      -0.01907300       0.05132700      -0.01883700
P       -1.61452380       2.37923396       5.11986858       0.00000000 NULL      -0.03760300      -0.01231700       0.03435900
P        5.33612953      -1.58139716       3.87399058       0.00000000 NULL       0.03760300      -0.01231800      -0.03436000
P        0.19218290       3.48801206       8.04933903       0.00000000 NULL       0.02038400      -0.03422900      -0.09414300
P        3.52942260      -0.47261803       0.94452065       0.00000000 NULL      -0.02038500      -0.03422900       0.09414300
P        0.18332559      -1.42805859       5.91957250       0.00000000 NULL       0.00377500      -0.03038600       0.00722200
P        3.53828010       2.53257451       3.07428673       0.00000000 NULL      -0.00377500      -0.03038700      -0.00722300
P        3.42500568      -0.88087468       6.25462839       0.00000000 NULL       0.02817900       0.05280000       0.04833900
P        0.29659991       3.07975794       2.73923109       0.00000000 NULL      -0.02817800       0.05280000      -0.04833900
P        7.88066701       1.00394662      -1.26834346       0.00000000 NULL      -0.07400900       0.00772500       0.08980100
P       -4.15906102      -2.95668939      10.26220196       0.00000000 NULL       0.07401000       0.00772500      -0.08980200
P       -2.83647601       1.62262201       8.35933279       0.00000000 NULL       0.02052400      -0.03119900      -0.04849000
P        6.55808110       5.58325686       0.63452788       0.00000000 NULL      -0.02052400      -0.03119900       0.04849000
P       -1.62860384      -3.31033394       8.58545989       0.00000000 NULL       0.02973900      -0.02305300      -0.02301400
P        5.35020991       0.65030078       0.40839845       0.00000000 NULL      -0.02973800      -0.02305200       0.02301400
32
Lattice="8.846571305613052 1.2886714976007699e-06 -1.7523118840575251 -7.822934991403276e-07 7.910434023663934 1.8680097236045943e-06 -5.137456835847917 -3.9552200544903386 10.733213479785014" Properties=species:S:1:pos:R:3:initial_magmoms:R:1:castep_labels:S:1:forces:R:3 n_minim_iter=4 energy=-171.259256492521 stress="0.0004187236382546949 -1.470805571866574e-08 -0.0007334760306341418 -1.470805571866574e-08 -5.7008423965548406e-05 -0.0 -0.0007334760306341418 -0.0 -0.000629225331700239" free_energy=-171.259256492521 pbc="T T T"
P        0.67601354       2.46232983       4.84475823       0.00000000 NULL      -0.00348700      -0.01497700       0.03391100
P        3.03310044      -1.49288678       4.13614454       0.00000000 NULL       0.00348800      -0.01497700      -0.03391100
P        3.76920514      -3.11679812       6.53911586       0.00000000 NULL      -0.03438500       0.02356900      -0.05840900
P       -0.06009084       0.83841948       2.44178614       0.00000000 NULL       0.03438400       0.02357100       0.05840900
P       -3.25642318       4.47712236       6.94939426       0.00000000 NULL      -0.02410600       0.00437800      -0.02016000
P        6.96553676       0.52190752       2.03150946       0.00000000 NULL       0.02410500       0.00437300       0.02016000
P        5.22469429       2.34578690       4.52757077       0.00000000 NULL      -0.00267500       0.00305000      -0.02739700
P       -1.51558107       6.30100326       4.45333381       0.00000000 NULL       0.00267500       0.00305300       0.02739700
P        2.94371171       0.37485800       2.90717361       0.00000000 NULL       0.01628500       0.01232200       0.01584200
P        0.76540190       4.33007405       6.07373004       0.00000000 NULL      -0.01628500       0.01232200      -0.01584200
P        4.73670359       2.60791309       1.18942382       0.00000000 NULL      -0.01351100      -0.01212100      -0.00131800
P       -1.02758964      -1.34730605       7.79147901       0.00000000 NULL       0.01351200      -0.01212100       0.00131800
P       -3.19887670      -0.47718253       7.60441729       0.00000000 NULL       0.03091400      -0.01540000       0.00145300
P        6.90799048       3.47803695       1.37648595       0.00000000 NULL      -0.03091300      -0.01540200      -0.00145200
P        0.12073905       0.09730976       9.08496626       0.00000000 NULL       0.00729700       0.00062600       0.05052800
P        3.58837461       4.05252928      -0.10406274       0.00000000 NULL      -0.00729700       0.00062600      -0.05052800
P       -0.75541839       1.52626229       7.56798116       0.00000000 NULL      -0.00022200      -0.00383900      -0.00256000
P        4.46453177       5.48148127       1.41292303       0.00000000 NULL       0.00022100      -0.00383900       0.00256000
P       -1.62424906       2.37544537       5.12027545       0.00000000 NULL      -0.00819100      -0.00272500       0.03289800
P        5.33336305      -1.57977066       3.86062728       0.00000000 NULL       0.00819100      -0.00272700      -0.03289800
P        0.18260879       3.48168572       8.03664566       0.00000000 NULL       0.02155700       0.00457000      -0.01768500
P        3.52650499      -0.47352929       0.94425759       0.00000000 NULL      -0.02155800       0.00456900       0.01768500
P        0.17459998      -1.42696520       5.91451704       0.00000000 NULL       0.02257700      -0.00117500       0.02336000
P        3.53451399       2.52825282       3.06638576       0.00000000 NULL      -0.02257600      -0.00117500      -0.02336000
P        3.41769934      -0.87511507       6.24741122       0.00000000 NULL       0.03436200       0.02138500      -0.03086300
P        0.29141452       3.08010247       2.73349184       0.00000000 NULL      -0.03436100       0.02138500       0.03086300
P        7.87867137       1.00291035      -1.27271317       0.00000000 NULL       0.01793600       0.01244000      -0.03058900
P       -4.16955710      -2.95231058      10.25361525       0.00000000 NULL      -0.01793600       0.01244000       0.03058800
P       -2.84742976       1.61942949       8.35355291       0.00000000 NULL       0.02432100      -0.00005300      -0.02408000
P        6.55654312       5.57464926       0.62735132       0.00000000 NULL      -0.02432100      -0.00005300       0.02407900
P       -1.63964245      -3.30796526       8.57966671       0.00000000 NULL       0.04188500      -0.03204800      -0.00907800
P        5.34875679       0.64725437       0.40123520       0.00000000 NULL      -0.04188400      -0.03204800       0.00907800
32
Lattice="8.836276793595546 1.2854918484816245e-06 -1.7431582501832783 -7.820337413510468e-07 7.907807394759644 1.867389458236004e-06 -5.1191810628890115 -3.953906739661285 10.73927100215711" Properties=species:S:1:pos:R:3:initial_magmoms:R:1:castep_labels:S:1:forces:R:3 n_minim_iter=5 energy=-171.260565141838 stress="-2.8285770386078682e-05 -0.0 1.410611222061854e-05 -0.0 -8.028275338908862e-05 -0.0 1.410611222061854e-05 -0.0 7.133956649635029e-06" free_energy=-171.260565141838 pbc="T T T"
P        0.68182126       2.46112373       4.85305597       0.00000000 NULL      -0.00598000      -0.00344500      -0.01127400
P        3.03527398      -1.49277957       4.14305795       0.00000000 NULL       0.00598000      -0.00344500       0.01127400
P        3.77309874      -3.11572698       6.55193486       0.00000000 NULL      -0.02719400       0.03310100      -0.03324200
P       -0.05600318       0.83817731       2.44417829       0.00000000 NULL       0.02719300       0.03310400       0.03324200
P       -3.24417665       4.47613631       6.95278975       0.00000000 NULL      -0.01602600      -0.00186300      -0.01560300
P        6.96127149       0.52223478       2.04332512       0.00000000 NULL       0.01602500      -0.00186600       0.01560400
P        5.22525557       2.34467527       4.53889896       0.00000000 NULL      -0.01755700       0.00617400      -0.01119600
P       -1.50816109       6.29857832       4.45721678       0.00000000 NULL       0.01755700       0.00617800       0.01119700
P        2.94511058       0.37476319       2.91410630       0.00000000 NULL       0.01078700       0.00646900       0.02778000
P        0.77198429       4.32866593       6.08200851       0.00000000 NULL      -0.01078700       0.00646700      -0.02778000
P        4.73398362       2.60655312       1.19721497       0.00000000 NULL      -0.02519800       0.00244800      -0.02414000
P       -1.01688840      -1.34735270       7.79889902       0.00000000 NULL       0.02519800       0.00244900       0.02414000
P       -3.18541738      -0.47689381       7.60933295       0.00000000 NULL       0.02839900      -0.01807700      -0.01961500
P        6.90251242       3.47701235       1.38678145       0.00000000 NULL      -0.02839800      -0.01807900       0.01961600
P        0.13211457       0.09750884       9.09705537       0.00000000 NULL       0.01316300       0.00265900       0.01549500
P        3.58498036       4.05141505      -0.10094070       0.00000000 NULL      -0.01316300       0.00266000      -0.01549500
P       -0.74496334       1.52631584       7.57609737       0.00000000 NULL       0.02772200      -0.02705000      -0.00822700
P        4.46205798       5.48022150       1.42001797       0.00000000 NULL      -0.02772200      -0.02705200       0.00822800
P       -1.61683253       2.37452542       5.12487733       0.00000000 NULL      -0.00970000      -0.00171100       0.01716300
P        5.33392779      -1.57937729       3.87123656       0.00000000 NULL       0.00970000      -0.00171200      -0.01716400
P        0.19310499       3.48018861       8.04496236       0.00000000 NULL       0.03818700       0.00513400      -0.01110300
P        3.52399005      -0.47371309       0.95115204       0.00000000 NULL      -0.03818800       0.00513700       0.01110300
P        0.18193009      -1.42669354       5.92179295       0.00000000 NULL       0.01743000       0.00494600       0.00965500
P        3.53516514       2.52721116       3.07432100       0.00000000 NULL      -0.01743000       0.00494400      -0.00965600
P        3.42289597      -0.87372506       6.25963433       0.00000000 NULL       0.00868200       0.00573900      -0.05962800
P        0.29419915       3.08017916       2.73647989       0.00000000 NULL      -0.00868200       0.00573700       0.05962800
P        7.86891094       1.00269410      -1.26301221       0.00000000 NULL       0.02923600       0.01146500      -0.00615900
P       -4.15181541      -2.95121350      10.25912545       0.00000000 NULL      -0.02923600       0.01146500       0.00615900
P       -2.83390924       1.61866726       8.35903448       0.00000000 NULL      -0.00094500       0.00607800      -0.01723800
P        6.55100387       5.57257371       0.63708092       0.00000000 NULL       0.00094500       0.00607800       0.01723800
P       -1.62684979      -3.30745741       8.58742128       0.00000000 NULL       0.01866000      -0.03206700      -0.00782300
P        5.34394540       0.64644891       0.40869178       0.00000000 NULL      -0.01865900      -0.03206700       0.00782300
32
Lattice="8.833673112687466 1.2852037951168165e-06 -1.743028815900773 -7.820330030356368e-07 7.907799929035112 1.8673876952423633e-06 -5.117722742548205 -3.9539030064067653 10.738220654236583" Properties=species:S:1:pos:R:3:initial_magmoms:R:1:castep_labels:S:1:forces:R:3 n_minim_iter=6 energy=-171.265810391653 stress="0.0006389265202301558 -1.471502810295154e-08 0.00037676357954797115 -1.471502810295154e-08 -0.000170650180909929 -0.0 0.00037676357954797115 -0.0 -0.0005194846371184981" free_energy=-171.265810391653 pbc="T T T"
P        0.68115657       2.45888236       4.85652236       0.00000000 NULL      -0.00555600      -0.01709300       0.00812200
P        3.03479331      -1.49501720       4.13867064       0.00000000 NULL       0.00555600      -0.01709300      -0.00812200
P        3.76085856      -3.10621239       6.54374593       0.00000000 NULL       0.05262000      -0.00362800       0.00850600
P       -0.04490836       0.84768817       2.45144632       0.00000000 NULL      -0.05262100      -0.00362700      -0.00850600
P       -3.24567765       4.47748335       6.94530158       0.00000000 NULL      -0.02076800      -0.00899500       0.03169700
P        6.96162713       0.52358555       2.04989238       0.00000000 NULL       0.02076700      -0.00900000      -0.03169700
P        5.21735899       2.34524628       4.53327057       0.00000000 NULL       0.00128300       0.01399500       0.01538500
P       -1.50140987       6.29914559       4.46192425       0.00000000 NULL      -0.00128300       0.01399900      -0.01538500
P        2.94885889       0.37663100       2.92072592       0.00000000 NULL      -0.01614600       0.00392700       0.02426100
P        0.76709062       4.33053000       6.07446797       0.00000000 NULL       0.01614600       0.00392700      -0.02426100
P        4.72617154       2.60509839       1.19182230       0.00000000 NULL      -0.02800000      -0.04390800      -0.03319700
P       -1.01022168      -1.34880370       7.80337078       0.00000000 NULL       0.02800000      -0.04390900       0.03319600
P       -3.17321665      -0.48107517       7.60342416       0.00000000 NULL      -0.00299900       0.00204900      -0.02518600
P        6.88916633       3.47282726       1.39176933       0.00000000 NULL       0.00299900       0.00204800       0.02518700
P        0.13544197       0.09915462       9.10522715       0.00000000 NULL       0.02897500       0.00483200      -0.03175400
P        3.58050760       4.05305710      -0.11003339       0.00000000 NULL      -0.02897500       0.00483200       0.03175400
P       -0.73640671       1.52134884       7.57401832       0.00000000 NULL       0.00198800       0.01092900      -0.00718300
P        4.45235600       5.47525078       1.42117611       0.00000000 NULL      -0.00198900       0.01093000       0.00718300
P       -1.62116472       2.37348240       5.13145014       0.00000000 NULL      -0.00282400      -0.00870100      -0.00104200
P        5.33711462      -1.58041658       3.86374283       0.00000000 NULL       0.00282400      -0.00870300       0.00104200
P        0.20507440       3.48005963       8.03587733       0.00000000 NULL       0.00514900      -0.02327700       0.02872600
P        3.51087528      -0.47383834       0.95931616       0.00000000 NULL      -0.00515000      -0.02327900      -0.02872500
P        0.18665100      -1.42642990       5.92431158       0.00000000 NULL       0.01529200       0.04013500       0.02126400
P        3.52929887       2.52747107       3.07088146       0.00000000 NULL      -0.01529100       0.04013600      -0.02126400
P        3.42583007      -0.86824139       6.24517346       0.00000000 NULL      -0.00109800       0.03545600       0.00509800
P        0.29011969       3.08565909       2.75001985       0.00000000 NULL       0.00109900       0.03545700      -0.00509800
P        7.87065286       1.00628075      -1.25972864       0.00000000 NULL       0.01887000       0.00778200       0.04758400
P       -4.15470269      -2.94762312      10.25492096       0.00000000 NULL      -0.01887000       0.00778200      -0.04758400
P       -2.83205914       1.61916470       8.35078297       0.00000000 NULL       0.03745300      -0.02274300      -0.01508100
P        6.54800840       5.57306741       0.64441151       0.00000000 NULL      -0.03745300      -0.02274200       0.01508100
P       -1.61962992      -3.31823127       8.58345115       0.00000000 NULL      -0.00795900       0.00924100      -0.02184600
P        5.33558016       0.63567131       0.41174099       0.00000000 NULL       0.00796100       0.00924200       0.02184600
32
Lattice="8.816033493488721 1.2867704645457335e-06 -1.7570503670073476 -7.823345089189771e-07 7.910848712014438 1.8681076502070201e-06 -5.119995456777585 -3.955427403564743 10.761272409010765" Properties=species:S:1:pos:R:3:initial_magmoms:R:1:castep_labels:S:1:forces:R:3 n_minim_iter=7 energy=-171.267029194205 stress="-8.789292952500019e-05 -1.4719968099983286e-08 -5.3477644107239275e-05 -1.4719968099983286e-08 -1.9415637923877954e-05 -0.0 -5.3477644107239275e-05 -0.0 1.1216615692187264e-05" free_energy=-171.267029194205 pbc="T T T"
P        0.67325733       2.45923285       4.86405434       0.00000000 NULL       0.01855700      -0.01031100       0.01385600
P        3.02278022      -1.49619110       4.14016887       0.00000000 NULL      -0.01855700      -0.01031100      -0.01385500
P        3.74169126      -3.10522360       6.54726463       0.00000000 NULL       0.05025100      -0.00467500       0.01281300
P       -0.04565339       0.85020134       2.45695783       0.00000000 NULL      -0.05025200      -0.00467600      -0.01281300
P       -3.24794858       4.47947843       6.95870567       0.00000000 NULL      -0.02533900      -0.01822500       0.03894400
P        6.94398573       0.52405624       2.04551849       0.00000000 NULL       0.02533800      -0.01823100      -0.03894400
P        5.19834464       2.34635230       4.53241177       0.00000000 NULL       0.00799500       0.01892400       0.02976400
P       -1.50230785       6.30177601       4.47181326       0.00000000 NULL      -0.00799500       0.01892700      -0.02976500
P        2.93946398       0.37722594       2.92314042       0.00000000 NULL      -0.01637000      -0.00561700       0.00249900
P        0.75657320       4.33264934       6.08108368       0.00000000 NULL       0.01636900      -0.00561500      -0.00249900
P        4.71239537       2.60555259       1.18620467       0.00000000 NULL      -0.04904100      -0.06708200      -0.02715900
P       -1.01635785      -1.34987390       7.81801861       0.00000000 NULL       0.04904100      -0.06708200       0.02715900
P       -3.17324621      -0.48221623       7.61784481       0.00000000 NULL      -0.00441200       0.02046900      -0.03620600
P        6.86928356       3.47321059       1.38637888       0.00000000 NULL       0.00441200       0.02046800       0.03620700