44
Lattice="10.920099999999968 -3.9644143098311854e-14 8.527170840607593e-07 -1.0229948621796676 10.872077332412296 8.52717084060759e-07 -4.948553230250547 -5.4360393926957284 8.469283302424737" Properties=species:S:1:pos:R:3:initial_magmoms:R:1:castep_labels:S:1 n_minim_iter=1 pbc="T T T"
P        3.50490553       1.87507711       8.27192824       0.00000000 NULL
P        6.48704487       9.10118879       0.19735761       0.00000000 NULL
P        6.99854200       3.66514979       4.03728659       0.00000000 NULL
P       -1.95514417       1.87507744       4.43199841       0.00000000 NULL
P        4.97755100       5.47538516       7.42773245       0.00000000 NULL
P        0.03645738       0.03255744       1.04155255       0.00000000 NULL
P       -0.47504022       5.46859592       3.19308994       0.00000000 NULL
P       -0.48249883       5.47538534       5.27619505       0.00000000 NULL
P        1.58973302       5.88409330       6.13599615       0.00000000 NULL
P       -0.26225614       7.57000275       2.33328924       0.00000000 NULL
P        0.24924132       2.13396412       1.90135364       0.00000000 NULL
P       -3.87031701       5.88409326       6.56793089       0.00000000 NULL
P        3.19328784       7.43913952       0.27647559       0.00000000 NULL
P        2.15872449      -1.55989591       8.19280947       0.00000000 NULL
P        7.61877478      -1.55989559       4.51111724       0.00000000 NULL
P        3.70478498       2.00310054       3.95816782       0.00000000 NULL
P       10.17339863       3.20976607       0.45451621       0.00000000 NULL
P       -2.70594638       4.99331123       8.01476921       0.00000000 NULL
P        2.75410388       4.99331152       4.68915786       0.00000000 NULL
P       -0.23520420      -2.22627288       3.78012671       0.00000000 NULL
P       -0.54638795       0.10968202       4.57045001       0.00000000 NULL
P        5.10893791       4.90232861       3.89883491       0.00000000 NULL
P        4.59744075      10.33836758       0.33580921       0.00000000 NULL
P        4.91366177       0.10968171       8.13347656       0.00000000 NULL
P        5.49187860       2.44504634       7.95172769       0.00000000 NULL
P        7.89136277       0.26074119       0.51755772       0.00000000 NULL
P        7.37986509       5.69677958       3.71708604       0.00000000 NULL
P        0.03182885       2.44504661       4.75219937       0.00000000 NULL
P        3.31441737       8.73457893       1.82714066       0.00000000 NULL
P        3.43711986      -1.31794205       6.64214464       0.00000000 NULL
P       -2.02293010      -1.31794200       6.06178146       0.00000000 NULL
P        3.82591476       3.29854021       2.40750299       0.00000000 NULL
P        5.43580269       0.21764512       3.24304772       0.00000000 NULL
P        5.67900932      -0.00375185       5.22623730       0.00000000 NULL
P        0.21895914      -0.00375204       7.47768937       0.00000000 NULL
P        4.92430543       5.65368398       0.99159565       0.00000000 NULL
P        3.98066822       3.72787322       7.54748366       0.00000000 NULL
P        8.28712349       9.74842904       0.92180259       0.00000000 NULL
P       -2.12147926       4.31239017       3.31284116       0.00000000 NULL
P       -1.47938159       3.72787343       5.15644339       0.00000000 NULL
P        0.27252163       1.82177907       6.64981616       0.00000000 NULL
P        6.73679065       5.87802651       1.81946918       0.00000000 NULL
P        7.24828804       0.44198780       2.41517451       0.00000000 NULL
P        5.73257168       1.82177912       6.05411084       0.00000000 NULL
44
Lattice="10.980256762694102 0.004140450615775705 8.57769706076179e-07 -1.0245081047209703 10.93235742469948 8.57769706133517e-07 -4.977874993945625 -5.468249668122368 8.515624753005207" Properties=species:S:1:pos:R:3:initial_magmoms:R:1:castep_labels:S:1 n_minim_iter=2 pbc="T T T"
P        3.52468177       1.88651053       8.31731637       0.00000000 NULL
P        6.52589713       9.15415941       0.19831095       0.00000000 NULL
P        7.03815088       3.68798037       4.05950399       0.00000000 NULL
P       -1.96544631       1.88444063       4.45612247       0.00000000 NULL
P        5.00728447       5.50821212       7.46819438       0.00000000 NULL
P        0.03703279       0.03302512       1.04743208       0.00000000 NULL
P       -0.47522144       5.49920365       3.21038114       0.00000000 NULL
P       -0.48284374       5.50614208       5.30524532       0.00000000 NULL
P        1.60068340       5.91757197       6.16953363       0.00000000 NULL
P       -0.26078553       7.61211108       2.34609323       0.00000000 NULL
P        0.25146856       2.14593240       1.91172039       0.00000000 NULL
P       -3.88944502       5.91550171       6.60390560       0.00000000 NULL
P        3.21370204       7.48175268       0.27790381       0.00000000 NULL
P        2.16991609      -1.56778976       8.23772270       0.00000000 NULL
P        7.66004476      -1.56571921       4.53571619       0.00000000 NULL
P        3.72595581       2.01557365       3.97991033       0.00000000 NULL
P       10.23060176       3.23150893       0.45694726       0.00000000 NULL
P       -2.71897969       5.02008940       8.05867962       0.00000000 NULL
P        2.77114895       5.02215991       4.71475964       0.00000000 NULL
P       -0.23740121      -2.23881052       3.80086639       0.00000000 NULL
P       -0.54939061       0.10992336       4.59547984       0.00000000 NULL
P        5.13878124       4.93157204       3.92014654       0.00000000 NULL
P        4.62652746      10.39775106       0.33766832       0.00000000 NULL
P        4.94073749       0.11199328       8.17795891       0.00000000 NULL
P        5.52346318       2.46067350       7.99552132       0.00000000 NULL
P        7.93479737       0.26558101       0.52010555       0.00000000 NULL
P        7.42254307       5.73175945       3.73770895       0.00000000 NULL
P        0.03333505       2.45860355       4.77791793       0.00000000 NULL
P        3.33607295       8.78468512       1.83714205       0.00000000 NULL
P        3.45565524      -1.32389803       6.67848471       0.00000000 NULL
P       -2.03447310      -1.32596821       6.09495357       0.00000000 NULL
P        3.84832695       3.31850636       2.42067233       0.00000000 NULL
P        5.46547654       0.22103633       3.26066229       0.00000000 NULL
P        5.71044077      -0.00196063       5.25496419       0.00000000 NULL
P        0.22031221      -0.00403105       7.51847467       0.00000000 NULL
P        4.95322266       5.68721523       0.99715181       0.00000000 NULL
P        4.00374758       3.75023359       7.58837299       0.00000000 NULL
P        8.33654522       9.80571190       0.92725473       0.00000000 NULL
P       -2.13145768       4.33539253       3.33055975       0.00000000 NULL
P       -1.48638062       3.74816357       5.18506625       0.00000000 NULL
P        0.27478911       1.83227059       6.68649012       0.00000000 NULL
P        6.77634538       5.91347714       1.82913668       0.00000000 NULL
P        7.28859938       0.44729838       2.42867774       0.00000000 NULL
P        5.76491754       1.83434086       6.08694906       0.00000000 NULL
44
Lattice="11.394693598058485 0.037916517484530586 8.930290947529112e-07 -1.0297050115527684 11.348135857713205 8.930290948474873e-07 -5.182494982707689 -5.693026944972478 8.829323453770504" Properties=species:S:1:pos:R:3:initial_magmoms:R:1:castep_labels:S:1 n_minim_iter=3 pbc="T T T"
P        3.66172149       1.96679617       8.62464624       0.00000000 NULL
P        6.79761181       9.52289493       0.20467989       0.00000000 NULL
P        7.31246401       3.84882665       4.20998451       0.00000000 NULL
P       -2.03562499       1.94783825       4.61934072       0.00000000 NULL
P        5.21499601       5.73754733       7.74197825       0.00000000 NULL
P        0.04128110       0.03653011       1.08734698       0.00000000 NULL
P       -0.47357158       5.71059784       3.32731563       0.00000000 NULL
P       -0.48235061       5.71858926       5.50200960       0.00000000 NULL
P        1.67894706       6.14948440       6.39642138       0.00000000 NULL
P       -0.24704156       7.90275731       2.43290426       0.00000000 NULL
P        0.26781098       2.22868942       1.98175876       0.00000000 NULL
P       -4.01839978       6.13052611       6.84756599       0.00000000 NULL
P        3.35797536       7.77750416       0.28759123       0.00000000 NULL
P        2.24623145      -1.62122218       8.54173406       0.00000000 NULL
P        7.94357855      -1.60226359       4.70225296       0.00000000 NULL
P        3.87282757       2.10343590       4.12707233       0.00000000 NULL
P       10.62623329       3.38638525       0.47342957       0.00000000 NULL
P       -2.80646720       5.20371263       8.35589610       0.00000000 NULL
P        2.89087987       5.22267118       4.88809130       0.00000000 NULL
P       -0.25360807      -2.32559949       3.94123348       0.00000000 NULL
P       -0.57012670       0.11119787       4.76497868       0.00000000 NULL
P        5.34661266       5.13582378       4.06434647       0.00000000 NULL
P        4.83176045      10.80989203       0.35031785       0.00000000 NULL
P        5.12721981       0.13015581       8.47900819       0.00000000 NULL
P        5.74246757       2.57111006       8.29215777       0.00000000 NULL
P        8.23404884       0.30296683       0.53716789       0.00000000 NULL
P        7.71919607       5.97703448       3.87749605       0.00000000 NULL
P        0.04512103       2.55215209       4.95182962       0.00000000 NULL
P        3.48959837       9.13232249       1.90466383       0.00000000 NULL
P        3.58276159      -1.36325836       6.92466171       0.00000000 NULL
P       -2.11458516      -1.38221656       6.31932466       0.00000000 NULL
P        4.00445083       3.45825451       2.50999999       0.00000000 NULL
P        5.66979476       0.24715000       3.37981502       0.00000000 NULL
P        5.92711594       0.01290421       5.44951024       0.00000000 NULL
P        0.22976896      -0.00605425       7.79447674       0.00000000 NULL
P        5.15494244       5.92121813       1.03484851       0.00000000 NULL
P        4.16437442       3.90656194       7.86485283       0.00000000 NULL
P        8.68175855      10.20505447       0.96447371       0.00000000 NULL
P       -2.19808273       4.49306981       3.45019021       0.00000000 NULL
P       -1.53297219       3.88760389       5.37913455       0.00000000 NULL
P        0.29133362       1.90496821       6.93500557       0.00000000 NULL
P        7.05179339       6.16153648       1.89432002       0.00000000 NULL
P        7.56664585       0.48746849       2.52034385       0.00000000 NULL
P        5.98868047       1.92392652       6.30898174       0.00000000 NULL
44
Lattice="11.494047902069859 0.08628548198180622 9.049364251022793e-07 -0.9908562665812005 11.451584441397356 9.049364252138735e-07 -5.251596508805455 -5.768935720827724 8.849894037059041" Properties=species:S:1:pos:R:3:initial_magmoms:R:1:castep_labels:S:1 n_minim_iter=4 pbc="T T T"
P        3.70091176       1.99813646       8.64531582       0.00000000 NULL
P        6.89424447       9.64075758       0.20458092       0.00000000 NULL
P        7.38967228       3.91496501       4.22036880       0.00000000 NULL
P       -2.04611188       1.95499406       4.62952704       0.00000000 NULL
P        5.28640603       5.81644431       7.75921214       0.00000000 NULL
P        0.04403991       0.03910838       1.09068370       0.00000000 NULL
P       -0.45138840       5.76490041       3.33426422       0.00000000 NULL
P       -0.46061775       5.77330176       5.51563162       0.00000000 NULL
P        1.71941042       6.21465800       6.41024914       0.00000000 NULL
P       -0.21619796       7.97668800       2.43964711       0.00000000 NULL
P        0.27923020       2.25089582       1.98530122       0.00000000 NULL
P       -4.02761357       6.17151522       6.86459413       0.00000000 NULL
P        3.42049405       7.86527809       0.28857563       0.00000000 NULL
P        2.25866110      -1.62666454       8.56132027       0.00000000 NULL
P        8.00568536      -1.58352147       4.71352265       0.00000000 NULL
P        3.91592188       2.13948554       4.13637325       0.00000000 NULL
P       10.73299128       3.46256153       0.47482032       0.00000000 NULL
P       -2.80972853       5.24122855       8.37507597       0.00000000 NULL
P        2.93729569       5.28437159       4.89976734       0.00000000 NULL
P       -0.26562876      -2.34951647       3.95012804       0.00000000 NULL
P       -0.57544123       0.10874057       4.77662911       0.00000000 NULL
P        5.41376556       5.20621120       4.07326664       0.00000000 NULL
P        4.91833771      10.93200374       0.35168300       0.00000000 NULL
P        5.17158243       0.15188299       8.49821366       0.00000000 NULL
P        5.80535248       2.61897479       8.31284994       0.00000000 NULL
P        8.30606480       0.34251936       0.53704634       0.00000000 NULL
P        7.81063640       6.06831129       3.88790292       0.00000000 NULL
P        0.05832879       2.57583233       4.96199336       0.00000000 NULL
P        3.55946939       9.23426846       1.90773828       0.00000000 NULL
P        3.60861219      -1.36005308       6.94215788       0.00000000 NULL
P       -2.13841171      -1.40319576       6.33268439       0.00000000 NULL
P        4.05489748       3.50847619       2.51721086       0.00000000 NULL
P        5.71823984       0.27442509       3.38713720       0.00000000 NULL
P        5.97998553       0.03615157       5.46275866       0.00000000 NULL
P        0.23296140      -0.00699137       7.81208422       0.00000000 NULL
P        5.22281189       6.00021752       1.03781164       0.00000000 NULL
P        4.21573357       3.96161532       7.88085640       0.00000000 NULL
P        8.80086003      10.33725394       0.96904076       0.00000000 NULL
P       -2.19775994       4.52517602       3.45590848       0.00000000 NULL
P       -1.53129019       3.91847279       5.39398687       0.00000000 NULL
P        0.30229245       1.92526636       6.95309215       0.00000000 NULL
P        7.14007718       6.25025742       1.89680405       0.00000000 NULL
P        7.63550526       0.52446514       2.52814513       0.00000000 NULL
P        6.04931645       1.96840915       6.32175107       0.00000000 NULL
44
Lattice="11.52081010326068 0.13510684092855904 9.112140671365439e-07 -0.9447566891392604 11.482802536497157 9.112140672545829e-07 -5.288027395702007 -5.808955445192793 8.81890511983016" Properties=species:S:1:pos:R:3:initial_magmoms:R:1:castep_labels:S:1 n_minim_iter=5 pbc="T T T"
P        3.71689127       2.01665306       8.61562081       0.00000000 NULL
P        6.94761356       9.69842118       0.20328704       0.00000000 NULL
P        7.41999159       3.95701957       4.20616825       0.00000000 NULL
P       -2.04351347       1.94909998       4.61273869       0.00000000 NULL
P        5.32526691       5.85943948       7.73116871       0.00000000 NULL
P        0.04677463       0.04180643       1.08773823       0.00000000 NULL
P       -0.42560389       5.78320750       3.32171523       0.00000000 NULL
P       -0.43513797       5.79188625       5.49719170       0.00000000 NULL
P        1.74953567       6.24066605       6.38639814       0.00000000 NULL
P       -0.18345773       8.00031558       2.43250921       0.00000000 NULL
P        0.28892065       2.25891435       1.97694467       0.00000000 NULL
P       -4.01086942       6.17311260       6.84196177       0.00000000 NULL
P        3.46231850       7.90385021       0.28811629       0.00000000 NULL
P        2.25671460      -1.62143031       8.53079071       0.00000000 NULL
P        8.01711995      -1.55387656       4.69756885       0.00000000 NULL
P        3.93469654       2.16244861       4.12133815       0.00000000 NULL
P       10.77233601       3.51763372       0.47357902       0.00000000 NULL
P       -2.79501524       5.24553970       8.34532836       0.00000000 NULL
P        2.96539009       5.31309341       4.88303158       0.00000000 NULL
P       -0.27609601      -2.35887469       3.93587489       0.00000000 NULL
P       -0.57744188       0.10532385       4.76064474       0.00000000 NULL
P        5.44698217       5.24391900       4.05826211       0.00000000 NULL
P        4.97460412      10.98532059       0.35119309       0.00000000 NULL
P        5.18296289       0.17287695       8.46771467       0.00000000 NULL
P        5.83193763       2.65071349       8.28533592       0.00000000 NULL
P        8.32550474       0.38076251       0.53357146       0.00000000 NULL
P        7.85312613       6.12216349       3.87588336       0.00000000 NULL
P        0.07153284       2.58316035       4.94302402       0.00000000 NULL
P        3.60794452       9.27837948       1.89921559       0.00000000 NULL
P        3.61155719      -1.34767853       6.91969166       0.00000000 NULL
P       -2.14884781      -1.41523190       6.30866724       0.00000000 NULL
P        4.08032282       3.53697816       2.51023910       0.00000000 NULL
P        5.73033253       0.30075645       3.37456375       0.00000000 NULL
P        5.99539956       0.05945943       5.44434321       0.00000000 NULL
P        0.23499432      -0.00809419       7.78401631       0.00000000 NULL
P        5.25795436       6.04215792       1.03489065       0.00000000 NULL
P        4.24076056       3.99223893       7.85060741       0.00000000 NULL
P        8.86543533      10.40505942       0.96830085       0.00000000 NULL
P       -2.18299663       4.52855110       3.44115394       0.00000000 NULL
P       -1.51964429       3.92468572       5.37775250       0.00000000 NULL
P        0.31159121       1.93348202       6.93113501       0.00000000 NULL
P        7.18381649       6.30030465       1.88777229       0.00000000 NULL
P        7.65619479       0.55890333       2.52168245       0.00000000 NULL
P        6.07199631       2.00103550       6.29722485       0.00000000 NULL
44
Lattice="11.528298049930854 0.22074183930178481 9.191444914917326e-07 -0.8601997534241248 11.498279839691971 9.191444916393694e-07 -5.334049833030024 -5.859511591731468 8.769413643209" Properties=species:S:1:pos:R:3:initial_magmoms:R:1:castep_labels:S:1 n_minim_iter=6 pbc="T T T"
P        3.73183219       2.04070981       8.56847539       0.00000000 NULL
P        7.01618730       9.76610618       0.20094100       0.00000000 NULL
P        7.44628686       4.01696592       4.18376857       0.00000000 NULL
P       -2.03231652       1.93033924       4.58564690       0.00000000 NULL
P        5.37645836       5.91619907       7.68573863       0.00000000 NULL
P        0.05246655       0.04753384       1.08367684       0.00000000 NULL
P       -0.37763350       5.79667357       3.30103089       0.00000000 NULL
P       -0.38769049       5.80582834       5.46838458       0.00000000 NULL
P        1.79646062       6.26488136       6.34740105       0.00000000 NULL
P       -0.12521035       8.01422380       2.42201484       0.00000000 NULL
P        0.30488956       2.26508392       1.96269331       0.00000000 NULL
P       -3.96768844       6.15451040       6.80672166       0.00000000 NULL
P        3.52458708       7.94450468       0.28768512       0.00000000 NULL
P        2.24533453      -1.60618319       8.48173042       0.00000000 NULL
P        8.00948385      -1.49581195       4.67239194       0.00000000 NULL
P        3.95468666       2.19536444       4.09702360       0.00000000 NULL
P       10.80451715       3.60217674       0.47172284       0.00000000 NULL
P       -2.75988116       5.23494315       8.29769308       0.00000000 NULL
P        3.00426813       5.34531437       4.85642967       0.00000000 NULL
P       -0.29368129      -2.36770531       3.91298534       0.00000000 NULL
P       -0.57967974       0.09817334       4.73565032       0.00000000 NULL
P        5.48609519       5.29157727       4.03376507       0.00000000 NULL
P        5.05599561      11.04071751       0.35094442       0.00000000 NULL
P        5.18446900       0.20854394       8.41847189       0.00000000 NULL
P        5.85963873       2.69717811       8.24261322       0.00000000 NULL
P        8.33063549       0.44777344       0.52680270       0.00000000 NULL
P        7.90053535       6.19691308       3.85790639       0.00000000 NULL
P        0.09548997       2.58680748       4.91150952       0.00000000 NULL
P        3.68172466       9.32455215       1.88441103       0.00000000 NULL
P        3.60459265      -1.32045354       6.88500477       0.00000000 NULL
P       -2.15955633      -1.43082441       6.26911693       0.00000000 NULL
P        4.11182449       3.57541218       2.50029794       0.00000000 NULL
P        5.73083976       0.34688277       3.35368290       0.00000000 NULL
P        6.00274103       0.09936439       5.41573259       0.00000000 NULL
P        0.23859182      -0.01100672       7.73838972       0.00000000 NULL
P        5.30074006       6.09602289       1.03102577       0.00000000 NULL
P        4.26983520       4.03290681       7.80048475       0.00000000 NULL
P        8.94922308      10.48837211       0.96893207       0.00000000 NULL
P       -2.14897528       4.51849014       3.41577701       0.00000000 NULL
P       -1.49431363       3.92253610       5.35363797       0.00000000 NULL
P        0.32723334       1.94170763       6.89793958       0.00000000 NULL
P        7.23656302       6.36720471       1.87147626       0.00000000 NULL
P        7.66666284       0.61806474       2.51323276       0.00000000 NULL
P        6.09138241       2.05207861       6.25618308       0.00000000 NULL
44
Lattice="11.504759633057752 0.2877663222583584 9.230557646661472e-07 -0.7912649413442128 11.481123789214218 9.230557648181387e-07 -5.35674803190987 -5.884445809373064 8.78576006548783" Properties=species:S:1:pos:R:3:initial_magmoms:R:1:castep_labels:S:1 n_minim_iter=7 pbc="T T T"
P        3.73261753       2.04926465       8.58612241       0.00000000 NULL
P        7.04732914       9.79262370       0.19964041       0.00000000 NULL
P        7.44296130       4.05206146       4.19324238       0.00000000 NULL
P       -2.01976198       1.90538184       4.59251952       0.00000000 NULL
P        5.40624963       5.94956519       7.69679634       0.00000000 NULL
P        0.06019689       0.05538562       1.08896557       0.00000000 NULL
P       -0.33543575       5.79594732       3.30391539       0.00000000 NULL
P       -0.34613002       5.80568222       5.48184652       0.00000000 NULL
P        1.82823182       6.26771094       6.35465271       0.00000000 NULL
P       -0.07913293       8.00403009       2.43110961       0.00000000 NULL
P        0.31649958       2.26346824       1.96177176       0.00000000 NULL
P       -3.92414803       6.12382774       6.82398965       0.00000000 NULL
P        3.56612366       7.95575573       0.28966537       0.00000000 NULL
P        2.22994675      -1.58870950       8.49609659       0.00000000 NULL
P        7.98232686      -1.44482601       4.68254541       0.00000000 NULL
P        3.96175583       2.21519350       4.10321656       0.00000000 NULL
P       10.80188978       3.65840978       0.47325901       0.00000000 NULL
P       -2.72634748       5.21266103       8.31250334       0.00000000 NULL
P        3.02603260       5.35654449       4.86613905       0.00000000 NULL
P       -0.30723765      -2.36991873       3.91962239       0.00000000 NULL
P       -0.58206584       0.08974406       4.74712625       0.00000000 NULL
P        5.50062471       5.31334623       4.03863556       0.00000000 NULL
P        5.10499253      11.05390844       0.35424714       0.00000000 NULL
P        5.17031369       0.23362690       8.43151560       0.00000000 NULL
P        5.86983796       2.72560091       8.26402454       0.00000000 NULL
P        8.31174121       0.50268073       0.52173781       0.00000000 NULL
P        7.91610848       6.24324234       3.87114450       0.00000000 NULL
P        0.11745840       2.58171803       4.91461785       0.00000000 NULL
P        3.73283579       9.33844627       1.88186712       0.00000000 NULL
P        3.59093938      -1.29319980       6.90389511       0.00000000 NULL
P       -2.16144039      -1.43708291       6.27474623       0.00000000 NULL
P        4.12846821       3.59788432       2.51101507       0.00000000 NULL
P        5.71298743       0.38466469       3.35632412       0.00000000 NULL
P        5.99579258       0.12722025       5.42943781       0.00000000 NULL
P        0.24341259      -0.01666311       7.74920415       0.00000000 NULL
P        5.31735514       6.12522678       1.03655778       0.00000000 NULL
P        4.28021395       4.05612842       7.80565370       0.00000000 NULL
P        8.99406849      10.52581484       0.98010955       0.00000000 NULL
P       -2.11505886       4.49748641       3.41277274       0.00000000 NULL
P       -1.47216567       3.91224546       5.37298866       0.00000000 NULL
P        0.33974599       1.94477812       6.92006235       0.00000000 NULL
P        7.26114601       6.40488421       1.86569992       0.00000000 NULL
P        7.65677843       0.66432225       2.52718232       0.00000000 NULL
P        6.09212586       2.08866134       6.25857996       0.00000000 NULL
44
Lattice="11.414975088146631 0.3189428935618476 9.187190709512826e-07 -0.7518144580777396 11.394654705298748 9.187190709779971e-07 -5.331580994371101 -5.856799545688986 8.699747653899824" Properties=species:S:1:pos:R:3:initial_magmoms:R:1:castep_labels:S:1 n_minim_iter=8 pbc="T T T"
P        3.70488134       2.02946802       8.50435059       0.00000000 NULL
P        7.00505085       9.73550867       0.19539981       0.00000000 NULL
P        7.38095777       4.03818098       4.15447676       0.00000000 NULL
P       -2.00260590       1.86999691       4.54527272       0.00000000 NULL
P        5.39019867       5.93285976       7.61739719       0.00000000 NULL
P        0.07023560       0.06548653       1.08235230       0.00000000 NULL
P       -0.30567180       5.76281370       3.26752245       0.00000000 NULL
P       -0.31728870       5.77338850       5.43222705       0.00000000 NULL
P        1.83015012       6.22590692       6.28611303       0.00000000 NULL
P       -0.05631530       7.94320092       2.41363687       0.00000000 NULL
P        0.31959197       2.24587361       1.93623829       0.00000000 NULL
P       -3.87733747       6.06643543       6.76351070       0.00000000 NULL
P        3.56529728       7.90620823       0.28872175       0.00000000 NULL
P        2.20586160      -1.56652759       8.41102779       0.00000000 NULL
P        7.91334944      -1.40705582       4.63859558       0.00000000 NULL
P        3.94120421       2.20888055       4.06115397       0.00000000 NULL
P       10.72633614       3.65893771       0.46897856       0.00000000 NULL
P       -2.69357698       5.16513537       8.23077137       0.00000000 NULL
P        3.01391083       5.32460711       4.81885239       0.00000000 NULL
P       -0.31273198      -2.35733283       3.88089663       0.00000000 NULL
P       -0.58329424       0.07981745       4.70445572       0.00000000 NULL
P        5.46568980       5.28354704       3.99529367       0.00000000 NULL
P        5.08978285      10.98087471       0.35458281       0.00000000 NULL
P        5.12419302       0.23928858       8.34516750       0.00000000 NULL
P        5.84160693       2.71805932       8.19091268       0.00000000 NULL
P        8.24225996       0.53269018       0.50883725       0.00000000 NULL
P        7.86635247       6.23001725       3.84103885       0.00000000 NULL
P        0.13411965       2.55858816       4.85871108       0.00000000 NULL
P        3.73729100       9.28435248       1.85478310       0.00000000 NULL
P        3.56183314      -1.26618543       6.84496671       0.00000000 NULL
P       -2.14565435      -1.42565682       6.20465601       0.00000000 NULL
P        4.11319818       3.58702507       2.49509288       0.00000000 NULL
P        5.65831477       0.40503135       3.31909926       0.00000000 NULL
P        5.95657390       0.13351880       5.38065025       0.00000000 NULL
P        0.24908618      -0.02595285       7.66897309       0.00000000 NULL
P        5.28240772       6.10235890       1.03077642       0.00000000 NULL
P        4.25282688       4.04297952       7.71664884       0.00000000 NULL
P        8.95837600      10.46967014       0.98310198       0.00000000 NULL
P       -2.08069204       4.45339969       3.36677410       0.00000000 NULL
P       -1.45466048       3.88350828       5.33297489       0.00000000 NULL
P        0.34545469       1.93653693       6.86522615       0.00000000 NULL
P        7.22723925       6.38214951       1.83452370       0.00000000 NULL
P        7.60314642       0.68482210       2.51535233       0.00000000 NULL
P        6.05294229       2.09600844       6.18439753       0.00000000 NULL
44
Lattice="11.484810685859669 0.3134628876723619 9.237022470446843e-07 -0.7638125629916365 11.463669824301482 9.237022471235255e-07 -5.3604997472254965 -5.8885671093363054 8.782409693772024" Properties=species:S:1:pos:R:3:initial_magmoms:R:1:castep_labels:S:1 n_minim_iter=9 pbc="T T T"
P        3.72505470       2.03548974       8.58581319       0.00000000 NULL
P        7.03807500       9.78792499       0.19659926       0.00000000 NULL
P        7.41998097       4.05608974       4.19460835       0.00000000 NULL
P       -2.01735033       1.87875864       4.58780318       0.00000000 NULL
P        5.42162863       5.96788953       7.68859654       0.00000000 NULL
P        0.07324823       0.06829231       1.09381501       0.00000000 NULL
P       -0.30865823       5.80012703       3.29739076       0.00000000 NULL
P       -0.32077654       5.81115828       5.48502078       0.00000000 NULL