42
Lattice="9.54342 5.069353397259122e-16 0.0 -4.77171 8.264844158984486 0.0 0.0 0.0 11.897529999999998" Properties=species:S:1:pos:R:3:initial_magmoms:R:1:castep_labels:S:1 n_minim_iter=1 pbc="T T T"
P       -2.85993107       5.13144008       0.96102180       0.00000000 NULL
P        1.10221395       8.17589709       8.89270847       0.00000000 NULL
P        1.75771855       3.22235034       4.92686513       0.00000000 NULL
P        4.00003956       0.90236064       4.08192714       0.00000000 NULL
P        3.55315841       4.34952797       0.11608381       0.00000000 NULL
P        6.76193346       3.01295474       8.04777047       0.00000000 NULL
P        6.14704232       0.32532989       2.56428773       0.00000000 NULL
P        1.97993374       2.77868441      10.49597440       0.00000000 NULL
P        6.18815537       5.16082904       6.53013106       0.00000000 NULL
P       -2.46229541       6.94276250       6.97612028       0.00000000 NULL
P        2.47204735       6.92587329       3.01027695       0.00000000 NULL
P       -0.00975051       2.66105171      10.94196361       0.00000000 NULL
P        0.44488179       3.42806561       7.24594913       0.00000000 NULL
P       -2.02535804       6.16553243       3.28010580       0.00000000 NULL
P        1.58047768       6.93608947      11.21179246       0.00000000 NULL
P        2.44657167       6.49574022       9.00495492       0.00000000 NULL
P       -0.36951884       2.89818084       5.03911159       0.00000000 NULL
P       -2.07705140       7.13576645       1.07326825       0.00000000 NULL
P        1.69426864       5.25088278       5.22422446       0.00000000 NULL
P       -1.07144549       4.17212309       1.25838113       0.00000000 NULL
P       -0.62282172       7.10668163       9.19006779       0.00000000 NULL
P       -1.03024034       4.19651016       3.66446304       0.00000000 NULL
P       -0.62230447       7.05880339      11.59614971       0.00000000 NULL
P        1.65254625       5.27437395       7.63030637       0.00000000 NULL
P        2.12383038       3.29277921       2.92074843       0.00000000 NULL
P        6.56142621       4.77916350      10.85243510       0.00000000 NULL
P        5.62987485       0.19290064       6.88659176       0.00000000 NULL
P        7.41421619       0.97684673       8.09611807       0.00000000 NULL
P        1.91057694       1.35552123       4.13027474       0.00000000 NULL
P        4.99033830       5.93247539       0.16443140       0.00000000 NULL
P        2.33029512       2.77241057       6.79798452       0.00000000 NULL
P        6.00754137       4.86054411       2.83214119       0.00000000 NULL
P        5.97729494       0.63188867      10.76382785       0.00000000 NULL
P        7.44270569       2.31896568       9.86345689       0.00000000 NULL
P        3.05864130       0.65978913       5.89761356       0.00000000 NULL
P        3.81378445       5.28608854       1.93177022       0.00000000 NULL
P        3.08255806       7.54942602       4.83717520       0.00000000 NULL
P        0.22500664       1.82055757       0.87133187       0.00000000 NULL
P       -3.30756327       7.15970392       8.80301853       0.00000000 NULL
P        4.20391993       7.43460668       8.68169070       0.00000000 NULL
P       -0.43511076       0.90683937       4.71584737       0.00000000 NULL
P       -3.76880773       8.18824145       0.75000403       0.00000000 NULL
42
Lattice="9.600771793505526 4.41211498534e-18 0.0 -4.800385896752763 8.314512269112871 0.0 0.0 0.0 11.981658817669977" Properties=species:S:1:pos:R:3:initial_magmoms:R:1:castep_labels:S:1 n_minim_iter=2 pbc="T T T"
P       -2.87693996       5.16222401       0.96777353       0.00000000 NULL
P        1.10870217       8.22490336       8.95554608       0.00000000 NULL
P        1.76823923       3.24189635       4.96165980       0.00000000 NULL
P        4.02427688       0.90776885       4.11064904       0.00000000 NULL
P        3.57439929       4.37550184       0.11676277       0.00000000 NULL
P        6.80248296       3.03124077       8.10453531       0.00000000 NULL
P        6.18394414       0.32739514       2.58236088       0.00000000 NULL
P        1.99194730       2.79536198      10.57013342       0.00000000 NULL
P        6.22526770       5.19175432       6.57624715       0.00000000 NULL
P       -2.47700121       6.98446673       7.02532425       0.00000000 NULL
P        2.48684129       6.96742489       3.03143798       0.00000000 NULL
P       -0.00983863       2.67713210      11.01921053       0.00000000 NULL
P        0.44728540       3.44864701       7.29740770       0.00000000 NULL
P       -2.03741172       6.20282825       3.30352142       0.00000000 NULL
P        1.59012776       6.97754846      11.29129397       0.00000000 NULL
P        2.46126425       6.53460289       9.06889681       0.00000000 NULL
P       -0.37188496       2.91569346       5.07501054       0.00000000 NULL
P       -2.08937785       7.17872737       1.08112426       0.00000000 NULL
P        1.70443459       5.28275819       5.26126026       0.00000000 NULL
P       -1.07759944       4.19704953       1.26737399       0.00000000 NULL
P       -0.62683371       7.14921600       9.25514653       0.00000000 NULL
P       -1.03652711       4.22185851       3.69005624       0.00000000 NULL
P       -0.62588466       7.10124183      11.67782879       0.00000000 NULL
P        1.66241321       5.30592338       7.68394252       0.00000000 NULL
P        2.13662743       3.31255554       2.94113609       0.00000000 NULL
P        6.60083039       4.80786088      10.92890864       0.00000000 NULL
P        5.66370132       0.19409504       6.93502237       0.00000000 NULL
P        7.45911030       0.98283830       8.15307536       0.00000000 NULL
P        1.92199464       1.36331412       4.15918909       0.00000000 NULL
P        5.02005419       5.96835903       0.16530281       0.00000000 NULL
P        2.34464954       2.78894752       6.84637107       0.00000000 NULL
P        6.04336149       4.88951245       2.85248480       0.00000000 NULL
P        6.01314810       0.63605148      10.84025734       0.00000000 NULL
P        7.48749604       2.33288349       9.93342052       0.00000000 NULL
P        3.07697520       0.66370875       5.93953425       0.00000000 NULL
P        3.83668789       5.31791921       1.94564797       0.00000000 NULL
P        3.10108764       7.59473228       4.87158748       0.00000000 NULL
P        0.22630233       1.83152546       0.87770121       0.00000000 NULL
P       -3.32738853       7.20276598       8.86547375       0.00000000 NULL
P        4.22924059       7.47948703       8.74299867       0.00000000 NULL
P       -0.43757946       0.91213897       4.74911239       0.00000000 NULL
P       -3.79165969       8.23739772       0.75522612       0.00000000 NULL
42
Lattice="9.979941581152834 -3.5598766332160605e-17 0.0 -4.989970790576417 8.642882937562991 0.0 0.0 0.0 12.53528868218317" Properties=species:S:1:pos:R:3:initial_magmoms:R:1:castep_labels:S:1 n_minim_iter=3 pbc="T T T"
P       -2.98922703       5.36571604       1.01212787       0.00000000 NULL
P        1.15149012       8.54877147       9.36898699       0.00000000 NULL
P        1.83773841       3.37127751       5.19055743       0.00000000 NULL
P        4.18457287       0.94350621       4.29964436       0.00000000 NULL
P        3.71478570       4.54718343       0.12121480       0.00000000 NULL
P        7.07055530       3.15219244       8.47807392       0.00000000 NULL
P        6.42793325       0.34101955       2.70128095       0.00000000 NULL
P        2.07133676       2.90561968      11.05814007       0.00000000 NULL
P        6.47064387       5.39624285       6.87971051       0.00000000 NULL
P       -2.57429016       7.26007209       7.34910043       0.00000000 NULL
P        2.58458215       7.24224757       3.17067087       0.00000000 NULL
P       -0.01029049       2.78344536      11.52752999       0.00000000 NULL
P        0.46308592       3.58471237       7.63622470       0.00000000 NULL
P       -2.11706078       6.44948259       3.45779514       0.00000000 NULL
P        1.65397636       7.25157007      11.81465426       0.00000000 NULL
P        2.55838275       6.79141896       9.48988266       0.00000000 NULL
P       -0.38761982       3.03154902       5.31145310       0.00000000 NULL
P       -2.17076142       7.46279705       1.13302354       0.00000000 NULL
P        1.77163527       5.49366631       5.50511854       0.00000000 NULL
P       -1.11813284       4.36176864       1.32668898       0.00000000 NULL
P       -0.65350093       7.43033007       9.68354810       0.00000000 NULL
P       -1.07817539       4.38954205       3.85815300       0.00000000 NULL
P       -0.64942718       7.38183920      12.21501213       0.00000000 NULL
P        1.72760407       5.51438378       8.03658257       0.00000000 NULL
P        2.22123587       3.44324966       3.07520551       0.00000000 NULL
P        6.86129553       4.99761143      11.43206463       0.00000000 NULL
P        5.88738248       0.20202100       7.25363507       0.00000000 NULL
P        7.75610483       1.02259246       8.52768830       0.00000000 NULL
P        1.99751041       1.41460290       4.34925874       0.00000000 NULL
P        5.21629863       6.20568673       0.17082918       0.00000000 NULL
P        2.43971187       2.89821741       7.16497516       0.00000000 NULL
P        6.28004576       5.08092178       2.98654560       0.00000000 NULL
P        6.25015625       0.66374289      11.34340472       0.00000000 NULL
P        7.78362739       2.42485414      10.39388848       0.00000000 NULL
P        3.19814337       0.68963682       6.21545891       0.00000000 NULL
P        3.98814311       5.52839113       2.03702935       0.00000000 NULL
P        3.22360176       7.89424331       5.09813751       0.00000000 NULL
P        0.23484457       1.90404028       0.91970795       0.00000000 NULL
P       -3.45844483       7.48748144       9.27656707       0.00000000 NULL
P        4.39666189       7.77633751       9.14636077       0.00000000 NULL
P       -0.45379491       0.94709331       4.96793121       0.00000000 NULL
P       -3.94286548       8.56233421       0.78950165       0.00000000 NULL
42
Lattice="10.057559621730144 1.978345508417928e-15 0.0 -5.028779810865074 8.710102132494912 0.0 0.0 0.0 12.613110656904862" Properties=species:S:1:pos:R:3:initial_magmoms:R:1:castep_labels:S:1 n_minim_iter=4 pbc="T T T"
P       -3.01116017       5.40718629       1.01796679       0.00000000 NULL
P        1.15956196       8.61425020       9.42670723       0.00000000 NULL
P        1.85159971       3.39876692       5.22233701       0.00000000 NULL
P        4.21754576       0.95077128       4.32626644       0.00000000 NULL
P        3.74340001       4.58221473       0.12189622       0.00000000 NULL
P        7.12539517       3.17711527       8.53063666       0.00000000 NULL
P        6.47805262       0.34337943       2.71790046       0.00000000 NULL
P        2.08712981       2.92825429      11.12664089       0.00000000 NULL
P        6.52115851       5.43846756       6.92227068       0.00000000 NULL
P       -2.59467504       7.31568881       7.39461893       0.00000000 NULL
P        2.60413107       7.29931224       3.19024872       0.00000000 NULL
P       -0.00945451       2.80520236      11.59898915       0.00000000 NULL
P        0.46599357       3.61255087       7.68486526       0.00000000 NULL
P       -2.13321477       6.50026443       3.48049504       0.00000000 NULL
P        1.66722270       7.30738810      11.88923548       0.00000000 NULL
P        2.57806702       6.84335846       9.55032735       0.00000000 NULL
P       -0.39129004       3.05575138       5.34595713       0.00000000 NULL
P       -2.18677546       7.52109357       1.14158691       0.00000000 NULL
P        1.78533027       5.53783853       5.54032263       0.00000000 NULL
P       -1.12553509       4.39504151       1.33595241       0.00000000 NULL
P       -0.65979367       7.48732337       9.74469285       0.00000000 NULL
P       -1.08723522       4.42452520       3.87962887       0.00000000 NULL
P       -0.65340997       7.43941286      12.28836931       0.00000000 NULL
P        1.74064671       5.55626535       8.08399909       0.00000000 NULL
P        2.23857148       3.46961931       3.09360139       0.00000000 NULL
P        6.91427353       5.03663272      11.50234183       0.00000000 NULL
P        5.93349593       0.20384925       7.29797161       0.00000000 NULL
P        7.81802724       1.03161363       8.57910112       0.00000000 NULL
P        2.01317081       1.42368513       4.37473090       0.00000000 NULL
P        5.25514290       6.25480251       0.17036068       0.00000000 NULL
P        2.45998290       2.92017958       7.21078245       0.00000000 NULL
P        6.32773907       5.11960467       3.00641223       0.00000000 NULL
P        6.29861898       0.67031703      11.41515267       0.00000000 NULL
P        7.84409757       2.44337367      10.45879426       0.00000000 NULL
P        3.22275570       0.69522754       6.25442405       0.00000000 NULL
P        4.01948768       5.57150006       2.05005383       0.00000000 NULL
P        3.24872098       7.95540458       5.13042320       0.00000000 NULL
P        0.23644317       1.91892496       0.92605298       0.00000000 NULL
P       -3.48516263       7.54587387       9.33479342       0.00000000 NULL
P        4.43100806       7.83794581       9.20248917       0.00000000 NULL
P       -0.45642265       0.95376369       4.99811895       0.00000000 NULL
P       -3.97458390       8.62849390       0.79374873       0.00000000 NULL
42
Lattice="10.077177339956739 -1.1444852205725131e-15 0.0 -5.038588669978369 8.72709157484343 0.0 0.0 0.0 12.609119774328786" Properties=species:S:1:pos:R:3:initial_magmoms:R:1:castep_labels:S:1 n_minim_iter=5 pbc="T T T"
P       -3.01550819       5.41746770       1.01714658       0.00000000 NULL
P        1.16083108       8.62986443       9.42322642       0.00000000 NULL
P        1.85467862       3.40685016       5.22018650       0.00000000 NULL
P        4.22606383       0.95255250       4.32498525       0.00000000 NULL
P        3.75049243       4.59093670       0.12194532       0.00000000 NULL
P        7.13921127       3.18360152       8.52802517       0.00000000 NULL
P        6.49093561       0.34349602       2.71691364       0.00000000 NULL
P        2.09059815       2.93402844      11.12299349       0.00000000 NULL
P        6.53423376       5.44956625       6.91995356       0.00000000 NULL
P       -2.60034455       7.32884009       7.39226635       0.00000000 NULL
P        2.60854630       7.31463598       3.18922643       0.00000000 NULL
P       -0.00820024       2.81070623      11.59530628       0.00000000 NULL
P        0.46637900       3.61956422       7.68375763       0.00000000 NULL
P       -2.13714260       6.51341341       3.48071770       0.00000000 NULL
P        1.67076511       7.32120467      11.88679755       0.00000000 NULL
P        2.58283691       6.85579595       9.54899309       0.00000000 NULL
P       -0.39271267       3.06239123       5.34595316       0.00000000 NULL
P       -2.19012273       7.53599512       1.14291324       0.00000000 NULL
P        1.78873377       5.55015507       5.53982051       0.00000000 NULL
P       -1.12637927       4.40292516       1.33678058       0.00000000 NULL
P       -0.66235299       7.50110207       9.74286043       0.00000000 NULL
P       -1.09013426       4.43412304       3.87550897       0.00000000 NULL
P       -0.65345734       7.45411402      12.28158882       0.00000000 NULL
P        1.74359311       5.56594522       8.07854889       0.00000000 NULL
P        2.24299017       3.47584676       3.09201855       0.00000000 NULL
P        6.92726618       5.04668173      11.49809840       0.00000000 NULL
P        5.94551117       0.20456222       7.29505847       0.00000000 NULL
P        7.83496563       1.03488960       8.57474250       0.00000000 NULL
P        2.01734754       1.42436751       4.37170257       0.00000000 NULL
P        5.26345435       6.26783361       0.16866265       0.00000000 NULL
P        2.46600804       2.92525534       7.20987182       0.00000000 NULL
P        6.33893109       5.12883830       3.00683190       0.00000000 NULL
P        6.31082839       0.67299707      11.41291175       0.00000000 NULL
P        7.85919043       2.44767168      10.45571755       0.00000000 NULL
P        3.22874031       0.69699717       6.25267762       0.00000000 NULL
P        4.02783677       5.58242186       2.04963770       0.00000000 NULL
P        3.25510925       7.97069775       5.12940048       0.00000000 NULL
P        0.23668445       1.92273540       0.92636056       0.00000000 NULL
P       -3.49179219       7.56074914       9.33244041       0.00000000 NULL
P        4.43976048       7.85447368       9.19880176       0.00000000 NULL
P       -0.45629417       0.95490938       4.99576184       0.00000000 NULL
P       -3.98346480       8.64479924       0.79272191       0.00000000 NULL
42
Lattice="10.081285450652894 6.685783303803119e-16 0.0 -5.040642725326448 8.730649303067858 0.0 0.0 0.0 12.587393961170571" Properties=species:S:1:pos:R:3:initial_magmoms:R:1:castep_labels:S:1 n_minim_iter=6 pbc="T T T"
P       -3.01478153       5.41937240       1.01476193       0.00000000 NULL
P        1.16006322       8.63184050       9.40635790       0.00000000 NULL
P        1.85471983       3.41008484       5.21055991       0.00000000 NULL
P        4.22811430       0.95285438       4.31766313       0.00000000 NULL
P        3.75178268       4.59256773       0.12186514       0.00000000 NULL
P        7.14203271       3.18522634       8.51346111       0.00000000 NULL
P        6.49392651       0.34287797       2.71208481       0.00000000 NULL
P        2.09062151       2.93530500      11.10368078       0.00000000 NULL
P        6.53738167       5.45246547       6.90788280       0.00000000 NULL
P       -2.60222791       7.33034766       7.37951310       0.00000000 NULL
P        2.60873953       7.31907096       3.18371512       0.00000000 NULL
P       -0.00651010       2.81187913      11.57531109       0.00000000 NULL
P        0.46598588       3.62098863       7.67219665       0.00000000 NULL
P       -2.13776652       6.51659939       3.47639866       0.00000000 NULL
P        1.67178216       7.32370973      11.86799463       0.00000000 NULL
P        2.58357239       6.85746726       9.53466489       0.00000000 NULL
P       -0.39368707       3.06447636       5.33886690       0.00000000 NULL
P       -2.18988381       7.53935413       1.14306891       0.00000000 NULL
P        1.78936834       5.55434187       5.53190233       0.00000000 NULL
P       -1.12512473       4.40383994       1.33610434       0.00000000 NULL
P       -0.66424209       7.50311594       9.72770032       0.00000000 NULL
P       -1.09158353       4.43717532       3.86511519       0.00000000 NULL
P       -0.65214341       7.45740072      12.25671116       0.00000000 NULL
P        1.74372846       5.56672171       8.06091318       0.00000000 NULL
P        2.24397178       3.47654520       3.08593131       0.00000000 NULL
P        6.92943430       5.04904014      11.47752728       0.00000000 NULL
P        5.94852361       0.20506310       7.28172930       0.00000000 NULL
P        7.84027906       1.03692492       8.55789932       0.00000000 NULL
P        2.01850752       1.42230601       4.36210133       0.00000000 NULL
P        5.26314311       6.27141751       0.16630334       0.00000000 NULL
P        2.46850668       2.92566612       7.19918709       0.00000000 NULL
P        6.34009157       5.13002675       3.00338910       0.00000000 NULL
P        6.31333143       0.67495557      11.39498507       0.00000000 NULL
P        7.86209394       2.44803048      10.43797257       0.00000000 NULL
P        3.22965334       0.69786100       6.24217459       0.00000000 NULL
P        4.03018241       5.58475697       2.04637660       0.00000000 NULL
P        3.25651705       7.97368590       5.12133034       0.00000000 NULL
P        0.23651431       1.92357987       0.92553235       0.00000000 NULL
P       -3.49302984       7.56403198       9.31712833       0.00000000 NULL
P        4.44167888       7.85924634       9.18195558       0.00000000 NULL
P       -0.45517418       0.95441939       4.98615760       0.00000000 NULL
P       -3.98650319       8.64763202       0.79035961       0.00000000 NULL
42
Lattice="10.083633892851429 -9.444373393169927e-16 0.0 -5.041816946425714 8.73268311367111 0.0 0.0 0.0 12.512296036678178" Properties=species:S:1:pos:R:3:initial_magmoms:R:1:castep_labels:S:1 n_minim_iter=7 pbc="T T T"
P       -3.00548168       5.41925901       1.00550396       0.00000000 NULL
P        1.15414087       8.62587710       9.34703465       0.00000000 NULL
P        1.85134233       3.42022926       5.17626930       0.00000000 NULL
P        4.23083906       0.95265846       4.29242437       0.00000000 NULL
P        3.75142484       4.59233978       0.12165903       0.00000000 NULL
P        7.14318844       3.18768401       8.46318972       0.00000000 NULL
P        6.49718715       0.33911496       2.69515085       0.00000000 NULL
P        2.08690655       2.93639652      11.03668154       0.00000000 NULL
P        6.54135865       5.45717078       6.86591620       0.00000000 NULL
P       -2.60702515       7.32440247       7.33526027       0.00000000 NULL
P        2.60481524       7.32823189       3.16449493       0.00000000 NULL
P        0.00221142       2.81273101      11.50602562       0.00000000 NULL
P        0.46320693       3.62147483       7.63507605       0.00000000 NULL
P       -2.13713021       6.52079674       3.46431071       0.00000000 NULL
P        1.67392479       7.32309380      11.80584140       0.00000000 NULL
P        2.58263872       6.85336891       9.48852474       0.00000000 NULL
P       -0.39794372       3.06936793       5.31775939       0.00000000 NULL
P       -2.18469348       7.54262853       1.14699405       0.00000000 NULL
P        1.78927163       5.56566808       5.50728285       0.00000000 NULL
P       -1.11644182       4.40029439       1.33651751       0.00000000 NULL
P       -0.67282830       7.49940290       9.67804820       0.00000000 NULL
P       -1.09703132       4.44462483       3.82303887       0.00000000 NULL
P       -0.64414227       7.46042770      12.16456956       0.00000000 NULL
P        1.74117510       5.56031284       7.99380422       0.00000000 NULL
P        2.24486565       3.47359830       3.06341518       0.00000000 NULL
P        6.92760950       5.05177330      11.40494587       0.00000000 NULL
P        5.95297721       0.20731066       7.23418053       0.00000000 NULL
P        7.85293237       1.04533803       8.49631480       0.00000000 NULL
P        2.02064106       1.40917518       4.32554945       0.00000000 NULL
P        5.25187892       6.27816905       0.15478411       0.00000000 NULL
P        2.47667452       2.92235746       7.16520909       0.00000000 NULL
P        6.33431649       5.12664134       2.99444375       0.00000000 NULL
P        6.31446134       0.68368346      11.33597444       0.00000000 NULL
P        7.86238189       2.44519988      10.37722611       0.00000000 NULL
P        3.22823222       0.70106073       6.20646077       0.00000000 NULL
P        4.03483824       5.58642165       2.03569542       0.00000000 NULL
P        3.25779175       7.97427351       5.09489441       0.00000000 NULL
P        0.23521162       1.92421595       0.92412907       0.00000000 NULL
P       -3.49300186       7.56687591       9.26565976       0.00000000 NULL
P        4.44312567       7.86914609       9.12208400       0.00000000 NULL
P       -0.44849836       0.95025037       4.95131865       0.00000000 NULL
P       -3.99462580       8.64596891       0.78055330       0.00000000 NULL
42
Lattice="10.003621497708295 5.425034763177912e-16 0.0 -5.0018107488541474 8.663390346859515 0.0 0.0 0.0 12.617764686574303" Properties=species:S:1:pos:R:3:initial_magmoms:R:1:castep_labels:S:1 n_minim_iter=8 pbc="T T T"
P       -2.96272059       5.37494223       1.00811211       0.00000000 NULL
P        1.13438706       8.54171053       9.41995523       0.00000000 NULL
P        1.82833503       3.41012708       5.21403367       0.00000000 NULL
P        4.20154430       0.94445430       4.32864383       0.00000000 NULL
P        3.71896101       4.55251911       0.12272227       0.00000000 NULL
P        7.08492844       3.16641609       8.53456539       0.00000000 NULL
P        6.44849152       0.32993233       2.71604711       0.00000000 NULL
P        2.06329577       2.91386672      11.12789023       0.00000000 NULL
P        6.49364646       5.41959045       6.92196867       0.00000000 NULL
P       -2.59407966       7.25130955       7.39580668       0.00000000 NULL
P        2.57504836       7.28427446       3.18988512       0.00000000 NULL
P        0.01903280       2.79119583      11.60172825       0.00000000 NULL
P        0.45446505       3.59100999       7.71778952       0.00000000 NULL
P       -2.11913640       6.47430708       3.51186796       0.00000000 NULL
P        1.66467285       7.26146277      11.92371108       0.00000000 NULL
P        2.55969318       6.78784187       9.58930566       0.00000000 NULL
P       -0.40321285       3.05271010       5.38338409       0.00000000 NULL
P       -2.15647883       7.48622787       1.17746253       0.00000000 NULL
P        1.77366746       5.54289145       5.57117679       0.00000000 NULL
P       -1.08835867       4.35590355       1.36525523       0.00000000 NULL
P       -0.68530728       7.42798484       9.77709835       0.00000000 NULL
P       -1.09872103       4.42197226       3.81663289       0.00000000 NULL
P       -0.62290893       7.40392455      12.22847601       0.00000000 NULL
P        1.72163146       5.50088304       8.02255445       0.00000000 NULL
P        2.22791357       3.43795691       3.07921492       0.00000000 NULL
P        6.86521299       5.01498215      11.49105804       0.00000000 NULL
P        5.91230719       0.21045043       7.28513648       0.00000000 NULL
P        7.81144734       1.05201378       8.54695173       0.00000000 NULL
P        2.00715873       1.37247163       4.34103017       0.00000000 NULL
P        5.18682768       6.23890409       0.13510861       0.00000000 NULL
P        2.47146365       2.89163790       7.24385268       0.00000000 NULL
P        6.27031180       5.07722110       3.03793112       0.00000000 NULL
P        6.26365830       0.69453050      11.44977424       0.00000000 NULL
P        7.79707748       2.41823938      10.46893307       0.00000000 NULL
P        3.19752974       0.70180349       6.26301151       0.00000000 NULL
P        4.01082653       5.54334662       2.05708995       0.00000000 NULL
P        3.23370656       7.90879564       5.14768613       0.00000000 NULL
P        0.23055490       1.90852051       0.94176457       0.00000000 NULL
P       -3.46425996       7.50946370       9.35360769       0.00000000 NULL
P        4.40730867       7.82286193       9.18858922       0.00000000 NULL
P       -0.43066692       0.93511812       4.98266766       0.00000000 NULL
P       -3.97664024       8.56879979       0.77674610       0.00000000 NULL
42
Lattice="10.024714379644447 3.5799977944921864e-16 0.0 -5.0123571898222234 8.681657318455251 0.0 0.0 0.0 12.2115185276578" Properties=species:S:1:pos:R:3:initial_magmoms:R:1:castep_labels:S:1 n_minim_iter=9 pbc="T T T"
P       -2.96395080       5.38568033       0.97396701       0.00000000 NULL
P        1.13375519       8.55567385       9.11497936       0.00000000 NULL
P        1.83019711       3.42195960       5.04447319       0.00000000 NULL
P        4.21264286       0.94611066       4.19030173       0.00000000 NULL
P        3.72539263       4.56034627       0.11979556       0.00000000 NULL
P        7.09903759       3.17519954       8.26080791       0.00000000 NULL
P        6.46195344       0.33026798       2.62709338       0.00000000 NULL
P        2.06740193       2.92030750      10.76810573       0.00000000 NULL
P        6.50771770       5.43108099       6.69759956       0.00000000 NULL
P       -2.60189875       7.26303580       7.15885278       0.00000000 NULL
P        2.57856669       7.30344985       3.08834661       0.00000000 NULL
P        0.02333356       2.79682814      11.22935896       0.00000000 NULL
P        0.45347829       3.59713843       7.47602551       0.00000000 NULL
P       -2.12388208       6.49036439       3.40551934       0.00000000 NULL
P        1.67040529       7.27581097      11.54653169       0.00000000 NULL
P        2.56374654       6.79699453       9.28766872       0.00000000 NULL
P       -0.40785953       3.06289043       5.21716254       0.00000000 NULL
P       -2.15588550       7.50342882       1.14665637       0.00000000 NULL
P        1.77652685       5.56320220       5.39829608       0.00000000 NULL
P       -1.08274518       4.36153884       1.32778990       0.00000000 NULL
P       -0.69378017       7.43857274       9.46880225       0.00000000 NULL
P       -1.10441196       4.43491465       3.68001998       0.00000000 NULL
P       -0.61940146       7.42064882      11.82103233       0.00000000 NULL
P        1.72381493       5.50775032       7.75052616       0.00000000 NULL
P        2.23251748       3.44192609       2.97766996       0.00000000 NULL
P        6.87689488       5.02727743      11.11868231       0.00000000 NULL
P        5.92766071       0.21245295       7.04817613       0.00000000 NULL
P        7.83451381       1.05867860       8.26474238       0.00000000 NULL
P        2.01194384       1.36743004       4.19423620       0.00000000 NULL
P        5.19061542       6.25554783       0.12373003       0.00000000 NULL
P        2.48141645       2.89570176       7.01500788       0.00000000 NULL
P        6.27940125       5.08483676       2.94450170       0.00000000 NULL