13
Lattice="5.05144 1.138002294153578e-15 -1.1785657813167017e-15 1.4067296251859371 5.077213669102786 -2.573056383164673e-15 0.48547372215565393 2.125548434425336 10.652536518355998" Properties=species:S:1:pos:R:3:initial_magmoms:R:1:castep_labels:S:1 n_minim_iter=1 pbc="T T T"
P        3.91681890       1.73759100       1.54317012       0.00000000 NULL
P        1.21670828       1.62130265       6.95706934       0.00000000 NULL
P        1.90794570       3.07637534       8.25868573       0.00000000 NULL
P        5.37380174       4.05685784       9.24461420       0.00000000 NULL
P        4.55215857       1.34634258       4.28347122       0.00000000 NULL
P        3.52300797       4.79042566       8.12561318       0.00000000 NULL
P        5.16149949       5.91436278       8.40808862       0.00000000 NULL
P        1.60550637       0.74277066       0.27315873       0.00000000 NULL
P        4.82830097       3.09152670       5.50631637       0.00000000 NULL
P        3.39250715       3.20348403       6.90904770       0.00000000 NULL
P        2.64339642       3.53021391       0.75262514       0.00000000 NULL
P        3.54900870       3.26444777       9.58477100       0.00000000 NULL
P        5.55649867       2.66121916       2.33339019       0.00000000 NULL
13
Lattice="5.066483018322734 0.003433856141164036 -0.0017296923475594343 1.4143701951747865 5.084945916611145 0.0016789632092630135 0.4847167512215457 2.1332484516835843 10.672814112344824" Properties=species:S:1:pos:R:3:initial_magmoms:R:1:castep_labels:S:1 n_minim_iter=2 pbc="T T T"
P        3.92897717       1.74323178       1.54529579       0.00000000 NULL
P        1.21887258       1.62712850       6.96990908       0.00000000 NULL
P        1.91253187       3.08520168       8.27457918       0.00000000 NULL
P        5.38977659       4.06987057       9.26176403       0.00000000 NULL
P        4.56517461       1.35310728       4.29023127       0.00000000 NULL
P        3.53374755       4.80306337       8.14132980       0.00000000 NULL
P        5.17834623       5.92953841       8.42421959       0.00000000 NULL
P        1.61047172       0.74489217       0.27370055       0.00000000 NULL
P        4.84315176       3.10128284       5.51593527       0.00000000 NULL
P        3.40246517       3.21285379       6.92151343       0.00000000 NULL
P        2.65341135       3.53699142       0.75461169       0.00000000 NULL
P        3.55855275       3.27511178       9.60272924       0.00000000 NULL
P        5.57414133       2.66956543       2.33703908       0.00000000 NULL
13
Lattice="5.3815784529750585 0.07594885731354845 -0.03809639208725615 1.5750032498787305 5.2417472037682655 0.03708681188541069 0.4688217002420263 2.2929453544357923 11.088238213466576" Properties=species:S:1:pos:R:3:initial_magmoms:R:1:castep_labels:S:1 n_minim_iter=3 pbc="T T T"
P        4.18376514       1.86016699       1.58846391       0.00000000 NULL
P        1.26398695       1.74790944       7.23270213       0.00000000 NULL
P        2.00829344       3.26732888       8.60029999       0.00000000 NULL
P        5.72499082       4.33944844       9.61306184       0.00000000 NULL
P        4.83794965       1.49429994       4.42788503       0.00000000 NULL
P        3.75901597       5.06374321       8.46358993       0.00000000 NULL
P        5.53203967       6.24229049       8.75478036       0.00000000 NULL
P        1.71430947       0.78872049       0.28492159       0.00000000 NULL
P        5.15472027       3.30323483       5.71251390       0.00000000 NULL
P        3.61129383       3.40648801       7.17633549       0.00000000 NULL
P        2.86358623       3.67558543       0.79567303       0.00000000 NULL
P        3.75850425       3.49596491       9.97064132       0.00000000 NULL
P        5.94381341       2.84229454       2.41145895       0.00000000 NULL
13
Lattice="5.497240505040375 0.10282580704646313 -0.05944685131874989 1.634227006217087 5.219341922975972 0.05946660502153978 0.44622271830975624 2.3424450023405394 11.145278770436382" Properties=species:S:1:pos:R:3:initial_magmoms:R:1:castep_labels:S:1 n_minim_iter=4 pbc="T T T"
P        4.27569086       1.88211952       1.58787791       0.00000000 NULL
P        1.26771763       1.78289823       7.26515537       0.00000000 NULL
P        2.02646358       3.30235154       8.64602866       0.00000000 NULL
P        5.83814198       4.39564263       9.65973874       0.00000000 NULL
P        4.93299089       1.53856243       4.43223015       0.00000000 NULL
P        3.82863647       5.10697959       8.51068460       0.00000000 NULL
P        5.65042972       6.28278691       8.80211247       0.00000000 NULL
P        1.75079859       0.79317478       0.28694603       0.00000000 NULL
P        5.26291606       3.33967998       5.73199944       0.00000000 NULL
P        3.67780497       3.44294888       7.20381346       0.00000000 NULL
P        2.94066326       3.67240088       0.80769253       0.00000000 NULL
P        3.81605042       3.54536465      10.02079769       0.00000000 NULL
P        6.07194287       2.86671936       2.41547614       0.00000000 NULL
13
Lattice="5.607192050203006 0.12587369594919562 -0.08590347523190722 1.6880118977522034 5.143878449127358 0.08170421705095575 0.41069578691466463 2.3724956667103223 11.118329184080373" Properties=species:S:1:pos:R:3:initial_magmoms:R:1:castep_labels:S:1 n_minim_iter=5 pbc="T T T"
P        4.36128017       1.88585290       1.57196816       0.00000000 NULL
P        1.25982513       1.80233967       7.24114158       0.00000000 NULL
P        2.02846907       3.30531165       8.62491249       0.00000000 NULL
P        5.93712870       4.40692844       9.63209695       0.00000000 NULL
P        5.01931933       1.56926250       4.39664444       0.00000000 NULL
P        3.88233099       5.10395925       8.49079215       0.00000000 NULL
P        5.75103915       6.26174049       8.77826176       0.00000000 NULL
P        1.78328826       0.78822328       0.28620521       0.00000000 NULL
P        5.35984903       3.34121561       5.70362319       0.00000000 NULL
P        3.73159448       3.44526506       7.17143098       0.00000000 NULL
P        3.01261081       3.63139628       0.81174667       0.00000000 NULL
P        3.85672897       3.55897853       9.99512398       0.00000000 NULL
P        6.18481997       2.85795739       2.39752231       0.00000000 NULL
13
Lattice="5.766694019278372 0.15423440150815992 -0.12352430432007955 1.760935560530183 5.0093976725945355 0.09843584349630936 0.3586232713954543 2.372701159330843 10.972620137926528" Properties=species:S:1:pos:R:3:initial_magmoms:R:1:castep_labels:S:1 n_minim_iter=6 pbc="T T T"
P        4.48603942       1.87756983       1.53019481       0.00000000 NULL
P        1.24287264       1.80027722       7.13433079       0.00000000 NULL
P        2.02375110       3.26729561       8.50688793       0.00000000 NULL
P        6.08674083       4.36397385       9.49967687       0.00000000 NULL
P        5.14769482       1.59269479       4.29712414       0.00000000 NULL
P        3.95723875       5.05502356       8.37027244       0.00000000 NULL
P        5.89401588       6.17740703       8.64355164       0.00000000 NULL
P        1.82665879       0.77395168       0.28202887       0.00000000 NULL
P        5.50236656       3.30720656       5.60195219       0.00000000 NULL
P        3.80815133       3.40693715       7.04481929       0.00000000 NULL
P        3.11652916       3.55125723       0.79886624       0.00000000 NULL
P        3.91293264       3.52600017       9.86386403       0.00000000 NULL
P        6.33611951       2.81609355       2.34538386       0.00000000 NULL
13
Lattice="5.897220906852611 0.1725862591129038 -0.13254176636328271 1.8157303006277077 4.981062384901977 0.08463537706050557 0.35987366582447344 2.336776817474131 10.832096452971001" Properties=species:S:1:pos:R:3:initial_magmoms:R:1:castep_labels:S:1 n_minim_iter=7 pbc="T T T"
P        4.59566308       1.88766316       1.50016869       0.00000000 NULL
P        1.24934773       1.77742381       7.03235370       0.00000000 NULL
P        2.04904790       3.23231418       8.39146757       0.00000000 NULL
P        6.25399022       4.31650842       9.38822060       0.00000000 NULL
P        5.27463477       1.60165169       4.21592345       0.00000000 NULL
P        4.05235496       5.04385046       8.24693521       0.00000000 NULL
P        6.04185572       6.15573660       8.50332521       0.00000000 NULL
P        1.85900571       0.76961318       0.28198149       0.00000000 NULL
P        5.64443257       3.29283347       5.51665223       0.00000000 NULL
P        3.89740595       3.37510668       6.92195171       0.00000000 NULL
P        3.20514172       3.53702613       0.77356939       0.00000000 NULL
P        3.99715743       3.47973605       9.74969449       0.00000000 NULL
P        6.45437219       2.80015280       2.31133195       0.00000000 NULL
13
Lattice="5.91807230079461 0.1804512985119604 -0.1435668264015307 1.8294421845913977 4.84841464075396 0.1015613013821886 0.3419372895309835 2.323037630735042 10.590316951905201" Properties=species:S:1:pos:R:3:initial_magmoms:R:1:castep_labels:S:1 n_minim_iter=8 pbc="T T T"
P        4.61541865       1.86300531       1.46276111       0.00000000 NULL
P        1.22272818       1.76237588       6.86664502       0.00000000 NULL
P        2.02937018       3.18550154       8.20584565       0.00000000 NULL
P        6.28695265       4.24048065       9.19530688       0.00000000 NULL
P        5.29876573       1.59711410       4.09465288       0.00000000 NULL
P        4.06145672       4.97301731       8.06611687       0.00000000 NULL
P        6.05787394       6.05140411       8.31072696       0.00000000 NULL
P        1.85519879       0.74915193       0.28120281       0.00000000 NULL
P        5.67242025       3.24372608       5.39165564       0.00000000 NULL
P        3.90320530       3.31538678       6.74759877       0.00000000 NULL
P        3.23009196       3.45186693       0.76041891       0.00000000 NULL
P        3.99480213       3.42255541       9.54749493       0.00000000 NULL
P        6.44431331       2.73511567       2.26601149       0.00000000 NULL
13
Lattice="6.015301071443214 0.18939537255968364 -0.13860315797193684 1.8655082503279716 4.911718447404364 0.10730314855995607 0.365512494816636 2.3585030933056244 10.704707084680935" Properties=species:S:1:pos:R:3:initial_magmoms:R:1:castep_labels:S:1 n_minim_iter=9 pbc="T T T"
P        4.69550085       1.89425350       1.48371988       0.00000000 NULL
P        1.24780693       1.78899461       6.93868766       0.00000000 NULL
P        2.07511273       3.23308966       8.29710716       0.00000000 NULL
P        6.41511729       4.30023167       9.31001174       0.00000000 NULL
P        5.39664082       1.62590108       4.13922467       0.00000000 NULL
P        4.14798161       5.05090568       8.15847514       0.00000000 NULL
P        6.17793009       6.14542607       8.40580428       0.00000000 NULL
P        1.88378978       0.76003756       0.28946691       0.00000000 NULL
P        5.78221941       3.29718950       5.45810822       0.00000000 NULL
P        3.98122068       3.36226413       6.81844552       0.00000000 NULL
P        3.29001954       3.49955677       0.77275085       0.00000000 NULL
P        4.07874004       3.47042954       9.66204144       0.00000000 NULL
P        6.54957834       2.77559011       2.30201186       0.00000000 NULL
13
Lattice="6.004605665363966 0.18551556512050535 -0.13786245152531312 1.8586301807183645 4.878904336619764 0.10705360875774529 0.3644140645164741 2.3438887504579293 10.651130190365043" Properties=species:S:1:pos:R:3:initial_magmoms:R:1:castep_labels:S:1 n_minim_iter=10 pbc="T T T"
P        4.68678357       1.88191262       1.47630586       0.00000000 NULL
P        1.24102234       1.77750729       6.90251673       0.00000000 NULL
P        2.06763389       3.21185404       8.25538841       0.00000000 NULL
P        6.40650013       4.26710539       9.26793730       0.00000000 NULL
P        5.38920331       1.61465632       4.11476808       0.00000000 NULL
P        4.13990824       5.02034352       8.11712852       0.00000000 NULL
P        6.16371016       6.10642088       8.36232339       0.00000000 NULL
P        1.87786510       0.75339935       0.28943946       0.00000000 NULL
P        5.77327883       3.27498288       5.43164852       0.00000000 NULL
P        3.97302078       3.33768995       6.78053670       0.00000000 NULL
P        3.28372483       3.47560819       0.76821233       0.00000000 NULL
P        4.07011412       3.44329937       9.61763976       0.00000000 NULL
P        6.52950010       2.75234774       2.29321224       0.00000000 NULL
13
Lattice="6.01903233864794 0.18491654935462337 -0.13611464149016175 1.8620456617825563 4.865795685467575 0.10904719776048527 0.36923430270216645 2.3415746979881122 10.63878547088745" Properties=species:S:1:pos:R:3:initial_magmoms:R:1:castep_labels:S:1 n_minim_iter=11 pbc="T T T"
P        4.69867359       1.87919458       1.47600018       0.00000000 NULL
P        1.24162850       1.77525214       6.89294292       0.00000000 NULL
P        2.07279087       3.20650247       8.24644692       0.00000000 NULL
P        6.42999687       4.25544891       9.26468056       0.00000000 NULL
P        5.40641158       1.61286128       4.10726786       0.00000000 NULL
P        4.15434951       5.01375630       8.10907454       0.00000000 NULL
P        6.18105337       6.09682890       8.35356918       0.00000000 NULL
P        1.88001649       0.75063700       0.29156638       0.00000000 NULL
P        5.79229625       3.27006979       5.42833857       0.00000000 NULL
P        3.98512612       3.32932362       6.76957056       0.00000000 NULL
P        3.29304782       3.46663332       0.76830210       0.00000000 NULL
P        4.08334691       3.43360847       9.61241755       0.00000000 NULL
P        6.53875136       2.74332734       2.29574773       0.00000000 NULL
13
Lattice="6.283699927366934 0.17112126107272296 -0.10410875936693009 1.9218848584558743 4.625536257557507 0.1444504699147467 0.4563600399452655 2.296853239662339 10.470354413677661" Properties=species:S:1:pos:R:3:initial_magmoms:R:1:castep_labels:S:1 n_minim_iter=12 pbc="T T T"
P        4.91341880       1.82388707       1.47781109       0.00000000 NULL
P        1.24784398       1.73242190       6.75569872       0.00000000 NULL
P        2.16536460       3.10654349       8.12607782       0.00000000 NULL
P        6.86131857       4.04330847       9.25304521       0.00000000 NULL
P        5.72207883       1.57367053       3.99509794       0.00000000 NULL
P        4.41929997       4.88256456       8.00556113       0.00000000 NULL
P        6.49379729       5.91316651       8.23986356       0.00000000 NULL
P        1.91912827       0.70161014       0.33105320       0.00000000 NULL
P        6.14127920       3.17616157       5.39798891       0.00000000 NULL
P        4.20556906       3.17433867       6.60731135       0.00000000 NULL
P        3.46187616       3.29945654       0.77382010       0.00000000 NULL
P        4.32614233       3.25644911       9.56579974       0.00000000 NULL
P        6.70553848       2.57975461       2.35245077       0.00000000 NULL
13
Lattice="6.565657615251198 0.2416654863209269 -0.14655982020235794 2.0713088518720433 4.9423197164354615 -0.04588667390014826 0.42362021525552795 2.0534840676773656 11.290263760663365" Properties=species:S:1:pos:R:3:initial_magmoms:R:1:castep_labels:S:1 n_minim_iter=13 pbc="T T T"
P        5.12128148       1.92852048       1.49817515       0.00000000 NULL
P        1.24058061       1.60313514       7.26273755       0.00000000 NULL
P        2.22267177       3.02351808       8.68286979       0.00000000 NULL
P        7.16279281       4.00294559       9.90557671       0.00000000 NULL
P        5.96224968       1.56544763       4.25075702       0.00000000 NULL
P        4.65075205       4.93988851       8.47758559       0.00000000 NULL
P        6.79110228       6.07290562       8.68032369       0.00000000 NULL
P        2.02361791       0.77816420       0.33229468       0.00000000 NULL
P        6.42303560       3.25960011       5.72291104       0.00000000 NULL
P        4.39698963       3.15998867       7.00243085       0.00000000 NULL
P        3.64145605       3.48950294       0.68725765       0.00000000 NULL
P        4.49409161       3.11514698      10.27815681       0.00000000 NULL
P        7.02670013       2.73083990       2.42069484       0.00000000 NULL
13
Lattice="6.199937172052975 0.21492736623554373 -0.15669595378551282 1.942588144357614 4.60384021396579 -0.027351702762819716 0.3558462008627427 1.9571397027039934 10.628529794799224" Properties=species:S:1:pos:R:3:initial_magmoms:R:1:castep_labels:S:1 n_minim_iter=14 pbc="T T T"
P        4.82786415       1.79874683       1.40226179       0.00000000 NULL
P        1.14241804       1.52191665       6.83731758       0.00000000 NULL
P        2.05613198       2.84872291       8.17401877       0.00000000 NULL
P        6.72569123       3.75906929       9.31389106       0.00000000 NULL
P        5.61728612       1.47176855       3.98437145       0.00000000 NULL
P        4.35062740       4.62983546       7.98199127       0.00000000 NULL
P        6.36403000       5.68441540       8.17256902       0.00000000 NULL
P        1.90702862       0.72236430       0.30815591       0.00000000 NULL
P        6.03495434       3.04874936       5.38026897       0.00000000 NULL
P        4.12478440       2.96657549       6.58837735       0.00000000 NULL
P        3.43156976       3.25058569       0.65003170       0.00000000 NULL
P        4.19633524       2.93458564       9.66850963       0.00000000 NULL
P        6.60792547       2.54071744       2.27165721       0.00000000 NULL
13
Lattice="6.2472488541549875 0.22084072015475995 -0.14360808337177533 1.9617070700855566 4.60179258564584 0.020817397441454624 0.3904812190172764 2.049578277546465 10.700884962833818" Properties=species:S:1:pos:R:3:initial_magmoms:R:1:castep_labels:S:1 n_minim_iter=15 pbc="T T T"
P        4.86813938       1.81442254       1.43480059       0.00000000 NULL
P        1.16858775       1.58055489       6.88619451       0.00000000 NULL
P        2.09857207       2.92235351       8.24463666       0.00000000 NULL
P        6.80840448       3.84641017       9.41294996       0.00000000 NULL
P        5.67433420       1.51185703       4.02645174       0.00000000 NULL
P        4.41118526       4.70141132       8.07537283       0.00000000 NULL
P        6.44302160       5.76012690       8.27953307       0.00000000 NULL
P        1.92350694       0.72768502       0.32188144       0.00000000 NULL
P        6.10078769       3.10326175       5.44960659       0.00000000 NULL
P        4.17849912       3.02542573       6.65512957       0.00000000 NULL
P        3.46110653       3.25698428       0.69048057       0.00000000 NULL
P        4.25818652       3.02071076       9.75458177       0.00000000 NULL
P        6.66735408       2.56670886       2.32194051       0.00000000 NULL
13
Lattice="6.256722072573501 0.21654377941927444 -0.13603607249604072 1.960026315836799 4.57464518141074 0.044558238380927144 0.40555152873578765 2.083687781427406 10.687116222995277" Properties=species:S:1:pos:R:3:initial_magmoms:R:1:castep_labels:S:1 n_minim_iter=16 pbc="T T T"
P        4.87521271       1.80770356       1.44425801       0.00000000 NULL
P        1.17660757       1.59980290       6.87840297       0.00000000 NULL
P        2.11084331       2.94118664       8.24036169       0.00000000 NULL
P        6.83209916       3.86214915       9.42057983       0.00000000 NULL
P        5.68968574       1.51836515       4.02816359       0.00000000 NULL
P        4.42670028       4.70703365       8.08429436       0.00000000 NULL
P        6.46122238       5.76160218       8.29416558       0.00000000 NULL
P        1.92683564       0.72532389       0.32796921       0.00000000 NULL
P        6.11663337       3.10865679       5.45937657       0.00000000 NULL
P        4.19342699       3.03380035       6.65645890       0.00000000 NULL
P        3.46252601       3.23914441       0.70685155       0.00000000 NULL
P        4.27641084       3.04164055       9.75303567       0.00000000 NULL
P        6.67703928       2.55933695       2.33716744       0.00000000 NULL
13
Lattice="6.281756556295292 0.2045946623605279 -0.12804616004511324 1.954987857385011 4.55057045712939 0.06275492022692228 0.41977875722897495 2.1073639412706107 10.691546464609447" Properties=species:S:1:pos:R:3:initial_magmoms:R:1:castep_labels:S:1 n_minim_iter=17 pbc="T T T"
P        4.89179421       1.79482148       1.45464280       0.00000000 NULL
P        1.18458364       1.61134560       6.88179370       0.00000000 NULL
P        2.12361075       2.95151015       8.24762770       0.00000000 NULL
P        6.86906767       3.86241523       9.44456553       0.00000000 NULL
P        5.71791239       1.51452055       4.03629104       0.00000000 NULL
P        4.44727173       4.70299787       8.10352493       0.00000000 NULL
P        6.48731906       5.75316615       8.31821499       0.00000000 NULL
P        1.93441393       0.72212182       0.33482892       0.00000000 NULL
P        6.14373752       3.10475362       5.47689888       0.00000000 NULL
P        4.21517143       3.03220852       6.66620690       0.00000000 NULL
P        3.46549611       3.21927113       0.72057198       0.00000000 NULL
P        4.30193654       3.04839149       9.76810569       0.00000000 NULL
P        6.69880838       2.54405021       2.35482160       0.00000000 NULL
13
Lattice="6.297076781126363 0.18661248254456153 -0.12307010659083897 1.9411803183411898 4.5178165001877595 0.06827048165236412 0.4241781292014384 2.102684735666432 10.679256095348531" Properties=species:S:1:pos:R:3:initial_magmoms:R:1:castep_labels:S:1 n_minim_iter=18 pbc="T T T"
P        4.89798478       1.77111177       1.45647574       0.00000000 NULL
P        1.18318821       1.60342178       6.87325477       0.00000000 NULL
P        2.12232341       2.93645573       8.23693893       0.00000000 NULL
P        6.88668242       3.82784020       9.44753171       0.00000000 NULL
P        5.73327419       1.49346228       4.03395711       0.00000000 NULL
P        4.45126687       4.66868423       8.10019420       0.00000000 NULL
P        6.49129383       5.71170819       8.31577683       0.00000000 NULL
P        1.93864651       0.71655925       0.33921270       0.00000000 NULL
P        6.15453133       3.07862835       5.47833582       0.00000000 NULL
P        4.22338190       3.00614049       6.65822482       0.00000000 NULL
P        3.45767008       3.18857494       0.72356420       0.00000000 NULL
P        4.31162365       3.02279236       9.76421273       0.00000000 NULL
P        6.70462745       2.51345464       2.36045712       0.00000000 NULL
13
Lattice="6.3153677623529445 0.171392054017917 -0.11985015739159709 1.9309759206644985 4.4958966138108725 0.07116704241202144 0.4263218068743436 2.0980157175281318 10.700330917788284" Properties=species:S:1:pos:R:3:initial_magmoms:R:1:castep_labels:S:1 n_minim_iter=19 pbc="T T T"
P        4.90649312       1.75249247       1.46089039       0.00000000 NULL
P        1.18059469       1.59622504       6.88561276       0.00000000 NULL
P        2.12028573       2.92518258       8.25123167       0.00000000 NULL
P        6.90637403       3.79986704       9.47746358       0.00000000 NULL
P        5.74995096       1.47556024       4.04336267       0.00000000 NULL
P        4.45729110       4.64300505       8.11978373       0.00000000 NULL
P        6.49869375       5.68149631       8.33583448       0.00000000 NULL
P        1.94421715       0.71362671       0.34383502       0.00000000 NULL
P        6.16828231       3.05922009       5.49468043       0.00000000 NULL
P        4.23296838       2.98519474       6.66922100       0.00000000 NULL
P        3.45323828       3.16540452       0.72690425       0.00000000 NULL
P        4.32248896       3.00139597       9.78949779       0.00000000 NULL
P        6.71501128       2.49034971       2.37032940       0.00000000 NULL
