12
Lattice="3.054399999999997 -6.830153740458114e-17 -6.895438724402152e-17 -1.0104003493536196 9.290155797274123 -2.9708664626627388e-15 -1.0104003493536198 -2.1736104293614056 9.032298292184405" Properties=species:S:1:pos:R:3:initial_magmoms:R:1:castep_labels:S:1 n_minim_iter=1 pbc="T T T"
P       -0.01360264       0.19089019       8.11324568       0.00000000 NULL
P        1.51359736       7.84339206       2.08384154       0.00000000 NULL
P        1.97570921       0.87832301       4.39342821       0.00000000 NULL
P        0.44850921       4.06598370       1.88187122       0.00000000 NULL
P       -0.07382679       3.24221958       8.67945608       0.00000000 NULL
P        1.45337321       7.67996959       5.18295405       0.00000000 NULL
P        1.00290998      -0.14700471       2.24649336       0.00000000 NULL
P        2.53010998       2.21853428       0.38268583       0.00000000 NULL
P       -0.85843663       6.77564256       6.86174669       0.00000000 NULL
P        0.66876337       5.08600034       8.19301533       0.00000000 NULL
P        1.77372037       2.60342483       2.23246078       0.00000000 NULL
P        0.24652037       1.56137536       3.05349128       0.00000000 NULL
12
Lattice="3.06281607728298 -0.0010392791449778853 -0.0013190500110645301 -1.0163454359829462 9.307954839433087 -0.0026282581644716317 -1.0163454359829465 -2.180330165473693 9.048988372751525" Properties=species:S:1:pos:R:3:initial_magmoms:R:1:castep_labels:S:1 n_minim_iter=2 pbc="T T T"
P       -0.01717397       0.18856082       8.12678015       0.00000000 NULL
P        1.51423407       7.85657623       2.08408395       0.00000000 NULL
P        1.97875016       0.87770233       4.40018373       0.00000000 NULL
P        0.44734212       4.07321658       1.88350787       0.00000000 NULL
P       -0.07894512       3.24540194       8.69330443       0.00000000 NULL
P        1.45246291       7.69216935       5.18862864       0.00000000 NULL
P        1.00484693      -0.14837274       2.24988118       0.00000000 NULL
P        2.53625497       2.22162850       0.38148889       0.00000000 NULL
P       -0.86601976       6.78643161       6.87180608       0.00000000 NULL
P        0.66538828       5.09273658       8.20519899       0.00000000 NULL
P        1.77684855       2.60716608       2.23473552       0.00000000 NULL
P        0.24544051       1.56323127       3.05832043       0.00000000 NULL
12
Lattice="3.225313831122233 -0.021920840434299257 -0.02782186572022638 -1.1336125735276321 9.647997408940235 -0.052368701276141426 -1.1336125735276317 -2.3082495051285035 9.367954990597728" Properties=species:S:1:pos:R:3:initial_magmoms:R:1:castep_labels:S:1 n_minim_iter=3 pbc="T T T"
P       -0.08883303       0.14409132       8.38487476       0.00000000 NULL
P        1.52382389       8.10747088       2.08798353       0.00000000 NULL
P        2.03549151       0.86500450       4.52853596       0.00000000 NULL
P        0.42283459       4.21141794       1.91444436       0.00000000 NULL
P       -0.18159672       3.30621375       8.95756367       0.00000000 NULL
P        1.43106020       7.92442494       5.29632968       0.00000000 NULL
P        1.04165658      -0.17495143       2.31400157       0.00000000 NULL
P        2.65431349       2.27974698       0.35739871       0.00000000 NULL
P       -1.01657493       6.99270110       7.06415655       0.00000000 NULL
P        0.59608198       5.22104668       8.43749594       0.00000000 NULL
P        1.83584851       2.67818546       2.27735840       0.00000000 NULL
P        0.22319160       1.59849554       3.15059244       0.00000000 NULL
12
Lattice="3.279397068506328 -0.0408604424503279 -0.05185995247441821 -1.2091094224715593 9.717030993492427 -0.04036010777498408 -1.2091094224715588 -2.3127259554372284 9.4378821205734" Properties=species:S:1:pos:R:3:initial_magmoms:R:1:castep_labels:S:1 n_minim_iter=4 pbc="T T T"
P       -0.15327002       0.14841948       8.43785589       0.00000000 NULL
P        1.48642852       8.14849900       2.09256847       0.00000000 NULL
P        2.02705793       0.85776498       4.54797171       0.00000000 NULL
P        0.38735939       4.24147786       1.92397219       0.00000000 NULL
P       -0.27144362       3.33364085       9.01886248       0.00000000 NULL
P        1.36825492       7.96813544       5.32531851       0.00000000 NULL
P        1.04422531      -0.18305003       2.32035213       0.00000000 NULL
P        2.68392384       2.27834631       0.33899169       0.00000000 NULL
P       -1.12804991       7.04856749       7.12187975       0.00000000 NULL
P        0.51164863       5.25462690       8.49329811       0.00000000 NULL
P        1.83490649       2.69041440       2.28023186       0.00000000 NULL
P        0.19520795       1.60789784       3.17517330       0.00000000 NULL
12
Lattice="3.3217885341116444 -0.06579535176023132 -0.08350726547983932 -1.298973730989476 9.719145680376084 -0.008833887896543444 -1.2989737309894756 -2.282569548740139 9.447314277037298" Properties=species:S:1:pos:R:3:initial_magmoms:R:1:castep_labels:S:1 n_minim_iter=5 pbc="T T T"
P       -0.23829943       0.16580528       8.43771387       0.00000000 NULL
P        1.42259484       8.13182573       2.09361482       0.00000000 NULL
P        1.99713419       0.84682145       4.53592186       0.00000000 NULL
P        0.33623993       4.24479037       1.92633677       0.00000000 NULL
P       -0.38852123       3.35425500       9.02902674       0.00000000 NULL
P        1.27237304       7.96072706       5.33191496       0.00000000 NULL
P        1.03863907      -0.18889735       2.30915385       0.00000000 NULL
P        2.69953334       2.25635948       0.31486296       0.00000000 NULL
P       -1.26739954       7.06942987       7.14894945       0.00000000 NULL
P        0.39349473       5.26359665       8.50409125       0.00000000 NULL
P        1.81712108       2.68638693       2.26823921       0.00000000 NULL
P        0.15622681       1.60964782       3.18427537       0.00000000 NULL
12
Lattice="3.3661816614564186 -0.10294514338656638 -0.13065767092438008 -1.4266525495538396 9.652120823031257 0.03497762136201712 -1.4266525495538391 -2.224292318409497 9.392400305494562" Properties=species:S:1:pos:R:3:initial_magmoms:R:1:castep_labels:S:1 n_minim_iter=6 pbc="T T T"
P       -0.36604058       0.18707852       8.37435928       0.00000000 NULL
P        1.31705025       8.04667743       2.07589938       0.00000000 NULL
P        1.93961194       0.82070529       4.48390157       0.00000000 NULL
P        0.25652111       4.21889923       1.91234955       0.00000000 NULL
P       -0.56198753       3.35792248       8.97560776       0.00000000 NULL
P        1.12110330       7.88935780       5.29940704       0.00000000 NULL
P        1.02617679      -0.19766550       2.27561978       0.00000000 NULL
P        2.70926762       2.20723276       0.27491703       0.00000000 NULL
P       -1.47071951       7.04770869       7.13464079       0.00000000 NULL
P        0.21237132       5.23619233       8.45604998       0.00000000 NULL
P        1.78011848       2.66231677       2.23126125       0.00000000 NULL
P        0.09702765       1.59790279       3.17579679       0.00000000 NULL
12
Lattice="3.4290507107751416 -0.14034573032811617 -0.1781263850397986 -1.5612060425448153 9.597803691873343 0.0036325393036414477 -1.5612060425448149 -2.2420588502059653 9.332257016139911" Properties=species:S:1:pos:R:3:initial_magmoms:R:1:castep_labels:S:1 n_minim_iter=7 pbc="T T T"
P       -0.49874573       0.14196899       8.28362503       0.00000000 NULL
P        1.21577962       7.95031554       1.98707853       0.00000000 NULL
P        1.89011699       0.75290658       4.41740315       0.00000000 NULL
P        0.17559163       4.18880964       1.85460843       0.00000000 NULL
P       -0.73665355       3.29442163       8.87195389       0.00000000 NULL
P        0.97787180       7.78473789       5.18968255       0.00000000 NULL
P        1.02704971      -0.22605072       2.23796220       0.00000000 NULL
P        2.74157507       2.15856137       0.21477460       0.00000000 NULL
P       -1.68242995       6.98187088       7.05251770       0.00000000 NULL
P        0.03209540       5.15305237       8.34909093       0.00000000 NULL
P        1.75483100       2.63168372       2.16566445       0.00000000 NULL
P        0.04030565       1.55999418       3.15440072       0.00000000 NULL
12
Lattice="3.4158055132110676 -0.14919820512714518 -0.18936191982180017 -1.5837498867788555 9.502634029974073 -0.07938902238247358 -1.583749886778855 -2.300509295173557 9.220304393419791" Properties=species:S:1:pos:R:3:initial_magmoms:R:1:castep_labels:S:1 n_minim_iter=8 pbc="T T T"
P       -0.53341685       0.06137511       8.14940307       0.00000000 NULL
P        1.17448590       7.83424931       1.87170003       0.00000000 NULL
P        1.85587026       0.68249436       4.34274417       0.00000000 NULL
P        0.14796750       4.13712342       1.77430044       0.00000000 NULL
P       -0.77556830       3.17846933       8.70687427       0.00000000 NULL
P        0.93233445       7.64694325       5.03270730       0.00000000 NULL
P        1.02669999      -0.25240450       2.20243990       0.00000000 NULL
P        2.73460275       2.12576477       0.17522340       0.00000000 NULL
P       -1.72889468       6.85573883       6.89610429       0.00000000 NULL
P       -0.02099192       5.02606515       8.18424611       0.00000000 NULL
P        1.73406969       2.59515738       2.10009346       0.00000000 NULL
P        0.02616693       1.50921545       3.10916438       0.00000000 NULL
12
Lattice="3.433975243807807 -0.15117630408837274 -0.19187251716160292 -1.5957769787363005 9.525197658654127 -0.11600603021545684 -1.5957769787362999 -2.341389155988097 9.233674493704978" Properties=species:S:1:pos:R:3:initial_magmoms:R:1:castep_labels:S:1 n_minim_iter=9 pbc="T T T"
P       -0.54111997       0.02816691       8.14804539       0.00000000 NULL
P        1.17586765       7.83970995       1.83784061       0.00000000 NULL
P        1.86151199       0.66163640       4.34197275       0.00000000 NULL
P        0.14452436       4.14224259       1.75509623       0.00000000 NULL
P       -0.78498944       3.15031842       8.69626183       0.00000000 NULL
P        0.93199819       7.64222277       5.00159947       0.00000000 NULL
P        1.03450575      -0.26357729       2.20298002       0.00000000 NULL
P        2.75149337       2.12791493       0.16323180       0.00000000 NULL
P       -1.74540807       6.84678340       6.87481634       0.00000000 NULL
P       -0.02842045       5.00647431       8.16930323       0.00000000 NULL
P        1.74139659       2.59545088       2.08979399       0.00000000 NULL
P        0.02440896       1.50012224       3.10829527       0.00000000 NULL
12
Lattice="3.4387374319546247 -0.15349726341769543 -0.19481827186457887 -1.6044116665099333 9.512369773321005 -0.1424157318723512 -1.6044116665099326 -2.3640644999137344 9.21502360199493" Properties=species:S:1:pos:R:3:initial_magmoms:R:1:castep_labels:S:1 n_minim_iter=10 pbc="T T T"
P       -0.54947947       0.00290014       8.12072430       0.00000000 NULL
P        1.16988925       7.81789835       1.80540997       0.00000000 NULL
P        1.85801034       0.64243781       4.32672476       0.00000000 NULL
P        0.13864163       4.13307018       1.73433582       0.00000000 NULL
P       -0.79545630       3.11950365       8.66057498       0.00000000 NULL
P        0.92391241       7.61357567       4.96181749       0.00000000 NULL
P        1.03698738      -0.27187111       2.19592361       0.00000000 NULL
P        2.75635609       2.12183441       0.15204432       0.00000000 NULL
P       -1.76011046       6.81967545       6.83785387       0.00000000 NULL
P       -0.04074174       4.97571973       8.13282672       0.00000000 NULL
P        1.74021892       2.58750591       2.07475781       0.00000000 NULL
P        0.02085020       1.48852276       3.09852570       0.00000000 NULL
12
Lattice="3.452745041384638 -0.16048738908851642 -0.20369011865183947 -1.6303063266677866 9.468585968377257 -0.22728863465561414 -1.6303063266677857 -2.4363376086161903 9.152597413894966" Properties=species:S:1:pos:R:3:initial_magmoms:R:1:castep_labels:S:1 n_minim_iter=11 pbc="T T T"
P       -0.57417053      -0.07813582       8.03132117       0.00000000 NULL
P        1.15220199       7.74644155       1.70126974       0.00000000 NULL
P        1.84729645       0.58171178       4.27674722       0.00000000 NULL
P        0.12092392       4.10218290       1.66803802       0.00000000 NULL
P       -0.82686559       3.01981396       8.54404027       0.00000000 NULL
P        0.89950693       7.52010475       4.83319333       0.00000000 NULL
P        1.04437380      -0.29815321       2.17279650       0.00000000 NULL
P        2.77074632       2.10200335       0.11664475       0.00000000 NULL
P       -1.80464103       6.73079318       6.71689367       0.00000000 NULL
P       -0.07826851       4.87541754       8.01367458       0.00000000 NULL
P        1.73616127       2.56058403       2.02648729       0.00000000 NULL
P        0.00978875       1.45138599       3.06549317       0.00000000 NULL
12
Lattice="3.471257151336419 -0.16727431785145921 -0.21230406852576328 -1.6570730461397927 9.428927243381835 -0.32835392676903574 -1.6570730461397916 -2.525318812497884 9.090393289481884" Properties=species:S:1:pos:R:3:initial_magmoms:R:1:castep_labels:S:1 n_minim_iter=12 pbc="T T T"
P       -0.59681933      -0.17378515       7.93742673       0.00000000 NULL
P        1.13880924       7.67413878       1.58199987       0.00000000 NULL
P        1.84018680       0.51445576       4.22402359       0.00000000 NULL
P        0.10455822       4.07005197       1.59462004       0.00000000 NULL
P       -0.85727727       2.90616447       8.41873996       0.00000000 NULL
P        0.87835131       7.42147929       4.68907491       0.00000000 NULL
P        1.05334927      -0.32852582       2.14865871       0.00000000 NULL
P        2.78897784       2.08224832       0.07716069       0.00000000 NULL
P       -1.85016011       6.63428405       6.58141699       0.00000000 NULL
P       -0.11453153       4.76288785       7.88383982       0.00000000 NULL
P        1.73411998       2.53027173       1.97426559       0.00000000 NULL
P       -0.00150860       1.41109936       3.02811092       0.00000000 NULL
12
Lattice="3.4860989627806327 -0.17198208026666797 -0.21827914663242773 -1.6763017057004628 9.385870379299725 -0.4368467884177834 -1.6763017057004612 -2.6207263664185385 9.023147522119196" Properties=species:S:1:pos:R:3:initial_magmoms:R:1:castep_labels:S:1 n_minim_iter=13 pbc="T T T"
P       -0.61091846      -0.27580812       7.83735095       0.00000000 NULL
P        1.13213102       7.59835705       1.45640646       0.00000000 NULL
P        1.83544636       0.44598524       4.16969660       0.00000000 NULL
P        0.09239688       4.03560675       1.51832668       0.00000000 NULL
P       -0.87773470       2.78531004       8.28603970       0.00000000 NULL
P        0.86531478       7.31838460       4.53753959       0.00000000 NULL
P        1.06251073      -0.35982483       2.12347545       0.00000000 NULL
P        2.80556022       2.06273318       0.03785077       0.00000000 NULL
P       -1.88485408       6.53175779       6.43556058       0.00000000 NULL
P       -0.14180460       4.64271394       7.74704582       0.00000000 NULL
P        1.73294144       2.49801640       1.92135586       0.00000000 NULL
P       -0.01010804       1.36955883       2.98735917       0.00000000 NULL
12
Lattice="3.5073173982667485 -0.17469934503406032 -0.22172789102301232 -1.6915855348189253 9.36310761512839 -0.5591973219942107 -1.6915855348189233 -2.7343551533734405 8.972390303181259" Properties=species:S:1:pos:R:3:initial_magmoms:R:1:castep_labels:S:1 n_minim_iter=14 pbc="T T T"
P       -0.61692433      -0.38912406       7.74871414       0.00000000 NULL
P        1.13673437       7.53733426       1.32377306       0.00000000 NULL
P        1.83917741       0.37523386       4.12324592       0.00000000 NULL
P        0.08551872       4.00835763       1.44039542       0.00000000 NULL
P       -0.88914309       2.65946243       8.16308073       0.00000000 NULL
P        0.86451560       7.22692431       4.38469203       0.00000000 NULL
P        1.07533702      -0.39402729       2.10198550       0.00000000 NULL
P        2.82899572       2.04848338      -0.00215472       0.00000000 NULL
P       -1.91183868       6.43565126       6.28995472       0.00000000 NULL
P       -0.15817998       4.52227685       7.61781516       0.00000000 NULL
P        1.73845107       2.46902714       1.87040985       0.00000000 NULL
P       -0.01520763       1.32816810       2.94897910       0.00000000 NULL
12
Lattice="3.51877851055294 -0.17594306654045835 -0.22330641867335824 -1.699159748550201 9.324264461979851 -0.679054940428884 -1.6991597485501986 -2.8417979025889832 8.906582287830858" Properties=species:S:1:pos:R:3:initial_magmoms:R:1:castep_labels:S:1 n_minim_iter=15 pbc="T T T"
P       -0.61626233      -0.50049889       7.64777016       0.00000000 NULL
P        1.14312692       7.46462850       1.19108250       0.00000000 NULL
P        1.84008245       0.30667810       4.07140374       0.00000000 NULL
P        0.08069320       3.97461619       1.36240227       0.00000000 NULL
P       -0.89344735       2.53160203       8.02871934       0.00000000 NULL
P        0.86594190       7.12558579       4.22815483       0.00000000 NULL
P        1.08526635      -0.42677800       2.07684979       0.00000000 NULL
P        2.84465561       2.03108614      -0.04066665       0.00000000 NULL
P       -1.92914616       6.33134699       6.13461437       0.00000000 NULL
P       -0.16975690       4.39503026       7.47927184       0.00000000 NULL
P        1.74052480       2.43627850       1.81818502       0.00000000 NULL
P       -0.01886446       1.28567686       2.90570970       0.00000000 NULL
12
Lattice="3.533065544497449 -0.17585798905670724 -0.22319843858309507 -1.7036271532810365 9.337151582823823 -0.7400558017569367 -1.7036271532810336 -2.904120813905059 8.904839390386957" Properties=species:S:1:pos:R:3:initial_magmoms:R:1:castep_labels:S:1 n_minim_iter=16 pbc="T T T"
P       -0.61307761      -0.55638997       7.62451471       0.00000000 NULL
P        1.15345517       7.45513786       1.13135567       0.00000000 NULL
P        1.84751791       0.27566919       4.06184216       0.00000000 NULL
P        0.08098514       3.97253259       1.32996295       0.00000000 NULL
P       -0.89268427       2.47816716       7.99163734       0.00000000 NULL
P        0.87384850       7.10207769       4.16758104       0.00000000 NULL
P        1.09379952      -0.44388177       2.07162261       0.00000000 NULL
P        2.86033229       2.03004834      -0.05846470       0.00000000 NULL
P       -1.93673824       6.30267193       6.07989031       0.00000000 NULL
P       -0.17020547       4.34857674       7.43864293       0.00000000 NULL
P        1.74753246       2.42944430       1.80054120       0.00000000 NULL
P       -0.01900031       1.27007922       2.89488308       0.00000000 NULL
12
Lattice="3.535677108915596 -0.17552723375922138 -0.22277864493966767 -1.7034850492200242 9.325103922604217 -0.7903039881752354 -1.7034850492200213 -2.9501555304158535 8.881369596377082" Properties=species:S:1:pos:R:3:initial_magmoms:R:1:castep_labels:S:1 n_minim_iter=17 pbc="T T T"
P       -0.60874755      -0.60342271       7.58515062       0.00000000 NULL
P        1.15909101       7.42803594       1.07662828       0.00000000 NULL
P        1.84820859       0.24834300       4.04355393       0.00000000 NULL
P        0.08037003       3.96098008       1.29890644       0.00000000 NULL
P       -0.89046672       2.42663271       7.94016082       0.00000000 NULL
P        0.87737183       7.06425280       4.10564296       0.00000000 NULL
P        1.09797367      -0.45770909       2.06165629       0.00000000 NULL
P        2.86581223       2.02375919      -0.07403015       0.00000000 NULL
P       -1.93969689       6.26376833       6.01788883       0.00000000 NULL
P       -0.17185833       4.29756379       7.38652260       0.00000000 NULL
P        1.74827032       2.41786345       1.78111405       0.00000000 NULL
P       -0.01956823       1.25373548       2.87886842       0.00000000 NULL
12
Lattice="3.5464056630437546 -0.17447058688715303 -0.22143755186084638 -1.7038202118624148 9.332995969630023 -0.8730256640250694 -1.7038202118624117 -3.0324276799801972 8.86968826649882" Properties=species:S:1:pos:R:3:initial_magmoms:R:1:castep_labels:S:1 n_minim_iter=18 pbc="T T T"
P       -0.59959842      -0.68031479       7.54398784       0.00000000 NULL
P        1.17360441       7.40653438       0.99291014       0.00000000 NULL
P        1.85446034       0.20630603       4.02770330       0.00000000 NULL
P        0.08125751       3.95487642       1.25365715       0.00000000 NULL
P       -0.88470006       2.35154850       7.88184683       0.00000000 NULL
P        0.88850277       7.02565310       4.01966965       0.00000000 NULL
P        1.10767693      -0.48091116       2.05167001       0.00000000 NULL
P        2.88087977       2.02000698      -0.09825416       0.00000000 NULL
P       -1.94392565       6.22058523       5.93652115       0.00000000 NULL
P       -0.17072282       4.22908639       7.32617110       0.00000000 NULL
P        1.75396529       2.40740383       1.75666614       0.00000000 NULL
P       -0.01923754       1.23188505       2.86230851       0.00000000 NULL
12
Lattice="3.542436103266634 -0.1703460205227763 -0.2162026644536873 -1.6899619389751654 9.310184000325801 -1.0367337612598158 -1.689961938975162 -3.1862545978339902 8.809206811594358" Properties=species:S:1:pos:R:3:initial_magmoms:R:1:castep_labels:S:1 n_minim_iter=19 pbc="T T T"
P       -0.57034660      -0.83622558       7.42467612       0.00000000 NULL
P        1.20087145       7.32907488       0.81602898       0.00000000 NULL
P        1.85393936       0.12126698       3.98196338       0.00000000 NULL
P        0.08272130       3.92824030       1.15765926       0.00000000 NULL
P       -0.86266597       2.19101655       7.73244105       0.00000000 NULL
P        0.90855208       6.92001604       3.83125452       0.00000000 NULL
P        1.12141704      -0.52685356       2.02088207       0.00000000 NULL
P        2.89263510       2.00288499      -0.14750736       0.00000000 NULL
P       -1.93830833       6.11478559       5.74705902       0.00000000 NULL
P       -0.16709028       4.07169911       7.18159717       0.00000000 NULL
P        1.75293190       2.38025459       1.70358136       0.00000000 NULL
P       -0.01828616       1.18456349       2.82087518       0.00000000 NULL
12
Lattice="3.5731039109492326 -0.16630513836778182 -0.21107398879709122 -1.687816292962224 9.45116367487267 -1.0974341936176752 -1.6878162929622205 -3.2782551327114122 8.932071422878654" Properties=species:S:1:pos:R:3:initial_magmoms:R:1:castep_labels:S:1 n_minim_iter=20 pbc="T T T"
P       -0.54962654      -0.89310559       7.50504516       0.00000000 NULL
P        1.23692541       7.42254181       0.78209595       0.00000000 NULL
P        1.87861455       0.10473055       4.04196000       0.00000000 NULL
P        0.09206260       3.98842023       1.15305484       0.00000000 NULL
P       -0.84384333       2.18320828       7.81911746       0.00000000 NULL
P        0.94270863       7.00813399       3.84650692       0.00000000 NULL
P        1.14156370      -0.54695626       2.04341898       0.00000000 NULL
P        2.92811566       2.03152022      -0.15921481       0.00000000 NULL
P       -1.93399420       6.18937403       5.79011029       0.00000000 NULL
P       -0.14744224       4.09812450       7.26675235       0.00000000 NULL
P        1.77500604       2.41874765       1.72558290       0.00000000 NULL
P       -0.01154591       1.19492772       2.86088317       0.00000000 NULL
12
Lattice="3.538966032993716 -0.16580716579376434 -0.21044196348181224 -1.6750088130618102 9.358648052235296 -1.0920060278641543 -1.6750088130618068 -3.2513318237845508 8.843393686936324" Properties=species:S:1:pos:R:3:initial_magmoms:R:1:castep_labels:S:1 n_minim_iter=21 pbc="T T T"
P       -0.54550262      -0.89247074       7.42520000       0.00000000 NULL
P        1.22398040       7.34501329       0.76434788       0.00000000 NULL
P        1.85719738       0.09997382       3.99982171       0.00000000 NULL
P        0.08771437       3.94831548       1.13825506       0.00000000 NULL
P       -0.84009191       2.15713845       7.73749954       0.00000000 NULL
P        0.92939110       6.93512999       3.80238061       0.00000000 NULL
P        1.13075574      -0.54440700       2.02105186       0.00000000 NULL
P        2.90023876       2.00942645      -0.16165352       0.00000000 NULL
P       -1.92387895       6.12992742       5.72701482       0.00000000 NULL
P       -0.15439593       4.05093796       7.19450935       0.00000000 NULL
P        1.75563568       2.39550714       1.70670369       0.00000000 NULL
P       -0.01384734       1.18176110       2.83355455       0.00000000 NULL
12
Lattice="3.53819073593733 -0.16506714086313745 -0.20950272603280887 -1.6725015097236657 9.367931749559418 -1.1025495219799544 -1.6725015097236622 -3.2637547720903703 8.849952853008835" Properties=species:S:1:pos:R:3:initial_magmoms:R:1:castep_labels:S:1 n_minim_iter=22 pbc="T T T"
P       -0.54109499      -0.90349885       7.42503933       0.00000000 NULL
P        1.22800038       7.34780733       0.75405789       0.00000000 NULL
P        1.85726874       0.09588240       4.00303058       0.00000000 NULL
P        0.08817337       3.95202253       1.13455836       0.00000000 NULL
P       -0.83632836       2.15051777       7.73850215       0.00000000 NULL
P        0.93276701       6.93802382       3.79664790       0.00000000 NULL
P        1.13251374      -0.54779812       2.02097574       0.00000000 NULL
P        2.90160911       2.01051588      -0.16449870       0.00000000 NULL
P       -1.92188970       6.13308172       5.72324510       0.00000000 NULL
P       -0.15279433       4.04690488       7.19716372       0.00000000 NULL
P        1.75596313       2.39860105       1.70719037       0.00000000 NULL
P       -0.01313224       1.18114038       2.83620684       0.00000000 NULL
12
Lattice="3.5294840933410363 -0.16255599381785216 -0.20631558564432467 -1.6619835219023071 9.3829207535867 -1.13655383540159 -1.6619835219023034 -3.3003222274633215 8.856569859926918" Properties=species:S:1:pos:R:3:initial_magmoms:R:1:castep_labels:S:1 n_minim_iter=23 pbc="T T T"
P       -0.52579327      -0.94018993       7.41060404       0.00000000 NULL
P        1.23894878       7.34361286       0.71660137       0.00000000 NULL
P        1.85338839       0.08154715       4.00640426       0.00000000 NULL
P        0.08864635       3.95740100       1.11981676       0.00000000 NULL
P       -0.82328328       2.12401158       7.72798721       0.00000000 NULL
P        0.94145877       6.93525794       3.77001081       0.00000000 NULL
P        1.13650842      -0.55861578       2.01682175       0.00000000 NULL
P        2.90125047       2.01026376      -0.17439445       0.00000000 NULL
P       -1.91378181       6.13374775       5.70001833       0.00000000 NULL
P       -0.14903977       4.02542254       7.19397049       0.00000000 NULL
P        1.75361873       2.40519819       1.70557622       0.00000000 NULL
P       -0.01112332       1.17677193       2.84064964       0.00000000 NULL
12
Lattice="3.461484346977365 -0.1415329304480598 -0.17963317591394756 -1.575546086882939 9.575200661620825 -1.437146866199466 -1.5755460868829334 -3.637559578541662 8.97318333357181" Properties=species:S:1:pos:R:3:initial_magmoms:R:1:castep_labels:S:1 n_minim_iter=24 pbc="T T T"
P       -0.39415195      -1.27050043       7.32491109       0.00000000 NULL
P        1.33659022       7.34809243       0.38875065       0.00000000 NULL
P        1.81560060      -0.04018466       4.06233849       0.00000000 NULL
P        0.08485843       4.02975269       1.00120942       0.00000000 NULL
P       -0.71225616       1.90455269       7.69378702       0.00000000 NULL
P        1.01848601       6.96386516       3.56198263       0.00000000 NULL
P        1.17849611      -0.65563952       1.99155383       0.00000000 NULL
P        2.90923828       2.01890927      -0.26129591       0.00000000 NULL
P       -1.85466938       6.19522650       5.53772615       0.00000000 NULL
P       -0.12392720       3.86376233       7.22911267       0.00000000 NULL
P        1.74025870       2.49203823       1.70418005       0.00000000 NULL
P        0.00951652       1.14458508       2.91141148       0.00000000 NULL
