64
Lattice="11.989159999999877 1.3643527703578682e-06 1.0525339263639638e-06 5.994578771424436 10.796026903693578 5.262669598515153e-07 5.994578771424436 2.74012661989349 10.442504633095782" Properties=species:S:1:pos:R:3:initial_magmoms:R:1:castep_labels:S:1 n_minim_iter=1 pbc="T T T"
P       10.05973879       7.60378464       0.34531883       0.00000000 NULL
P       10.05973812       5.93236980      10.09718704       0.00000000 NULL
P       16.05431879       2.26391894       7.26714991       0.00000000 NULL
P       16.05431812      11.27223687       3.17535701       0.00000000 NULL
P       11.06713278       9.86821422       3.92926882       0.00000000 NULL
P       11.06713326       3.66794046       6.51323723       0.00000000 NULL
P       17.06171278       6.30524246       8.54779156       0.00000000 NULL
P        5.07255326       7.23091222       1.89471449       0.00000000 NULL
P       11.74091358      10.09158886       8.21804187       0.00000000 NULL
P       11.74091486       3.44456597       2.22446430       0.00000000 NULL
P       17.73549358      10.51027159       7.67532353       0.00000000 NULL
P        5.74633486       3.02588323       2.76718264       0.00000000 NULL
P       12.77276130       8.04609847       3.29123510       0.00000000 NULL
P       12.77276125       5.49005659       7.15127125       0.00000000 NULL
P        6.77818130       5.22563123       6.94727953       0.00000000 NULL
P        6.77818125       8.31052247       3.49522576       0.00000000 NULL
P       14.55772063      11.83360579       5.15919353       0.00000000 NULL
P       14.55772177       1.70254968       5.28331313       0.00000000 NULL
P       20.55230063       7.99372615      10.13665959       0.00000000 NULL
P        8.56314177       5.54242932       0.30584707       0.00000000 NULL
P       14.31673552       4.43659806       7.87994723       0.00000000 NULL
P       14.31673546       9.09955735       2.56255939       0.00000000 NULL
P        8.32215552       8.74796053       2.29131900       0.00000000 NULL
P        8.32215546       4.78819351       8.15118657       0.00000000 NULL
P       18.59444497      12.07607071       5.50876610       0.00000000 NULL
P        6.60528623       1.46008432       4.93374022       0.00000000 NULL
P       12.59986497       8.39339012      10.28245922       0.00000000 NULL
P       12.59986623       5.14276490       0.16004710       0.00000000 NULL
P       18.05866962       7.18167554       6.97088268       0.00000000 NULL
P        6.06951002       6.35447937       3.47162355       0.00000000 NULL
P       12.06408962       8.56538851       5.17723587       0.00000000 NULL
P       12.06409002       4.97076639       5.26527036       0.00000000 NULL
P       11.15212242       1.85803079       4.23476742       0.00000000 NULL
P       11.15212113      11.67812390       6.20773865       0.00000000 NULL
P        5.15754242       4.56768131       0.72236694       0.00000000 NULL
P       17.14670113       8.96847339       9.72013912       0.00000000 NULL
P       10.76172169       3.67880816      10.04426762       0.00000000 NULL
P       10.76172183       9.85734644       0.39823837       0.00000000 NULL
P       16.75630169      10.64907667       1.00902097       0.00000000 NULL
P       16.75630183       2.88707930       9.43348608       0.00000000 NULL
P        2.34749984       1.59891049       3.28652045       0.00000000 NULL
P       14.33665832      11.93724357       7.15598512       0.00000000 NULL
P        8.34207984       3.58471959       0.71240612       0.00000000 NULL
P       20.33123832       9.95143583       9.73010051       0.00000000 NULL
P        4.72360819       2.13492002       1.27157996       0.00000000 NULL
P       16.71276644      11.40123458       9.17092602       0.00000000 NULL
P       10.71818819       1.77180341       1.74227323       0.00000000 NULL
P       10.71818644      11.76435119       8.70023276       0.00000000 NULL
P       13.65860273       9.16418954       6.81912659       0.00000000 NULL
P       13.65860356       4.37196572       3.62337992       0.00000000 NULL
P       19.65318273       8.92178254       7.13334939       0.00000000 NULL
P        7.66402356       4.61437273       3.30915712       0.00000000 NULL
P       14.26155257       8.79119836       0.56558502       0.00000000 NULL
P       14.26155221       4.74495704       9.87692159       0.00000000 NULL
P        8.26697257       2.77834701       8.35977454       0.00000000 NULL
P        8.26697221      10.75780702       2.08273102       0.00000000 NULL
P        3.41211011       3.27999413       2.96121669       0.00000000 NULL
P       15.40126892      10.25616017       7.48128907       0.00000000 NULL
P        9.40669011       3.69674183       2.42100664       0.00000000 NULL
P        9.40668892       9.83941246       8.02149912       0.00000000 NULL
P        4.70534362       2.29979747       4.35408813       0.00000000 NULL
P       16.69450245      11.23635713       6.08841785       0.00000000 NULL
P       10.69992362       4.79522041       1.11938412       0.00000000 NULL
P       10.69992245       8.74093418       9.32312186       0.00000000 NULL
64
Lattice="12.125320877825931 1.379847723366778e-06 1.0644875531102536e-06 6.062659200384887 10.90507354708894 -0.027984358631581056 6.062659200384887 2.7407351086440435 10.55508328986526" Properties=species:S:1:pos:R:3:initial_magmoms:R:1:castep_labels:S:1 n_minim_iter=2 pbc="T T T"
P       10.17385054       7.67965252       0.32979373       0.00000000 NULL
P       10.17384987       5.96615707      10.19730592       0.00000000 NULL
P       16.23651098       2.26815815       7.34447386       0.00000000 NULL
P       16.23651030      11.37765282       3.18262686       0.00000000 NULL
P       11.19283715       9.95776644       3.94867932       0.00000000 NULL
P       11.19283763       3.68804338       6.57842051       0.00000000 NULL
P       17.25549758       6.34674649       8.62948479       0.00000000 NULL
P        5.13017719       7.29906333       1.89761505       0.00000000 NULL
P       11.87473161      10.17217948       8.28581095       0.00000000 NULL
P       11.87473290       3.47363049       2.24128901       0.00000000 NULL
P       17.93739205      10.59627614       7.73607479       0.00000000 NULL
P        5.81207246       3.04953383       2.79102516       0.00000000 NULL
P       12.91763177       8.11871075       3.30804550       0.00000000 NULL
P       12.91763172       5.52709946       7.21905464       0.00000000 NULL
P        6.85497133       5.26032078       7.01324745       0.00000000 NULL
P        6.85497128       8.38548805       3.51385162       0.00000000 NULL
P       14.72324951      11.93975983       5.18737148       0.00000000 NULL
P       14.72325066       1.70605080       5.33972898       0.00000000 NULL
P       20.78590995       8.04792423      10.23218575       0.00000000 NULL
P        8.66059022       5.59788640       0.29491470       0.00000000 NULL
P       14.47948070       4.46090478       7.95866454       0.00000000 NULL
P       14.47948063       9.18490579       2.56843587       0.00000000 NULL
P        8.41682026       8.83026945       2.29485064       0.00000000 NULL
P        8.41682019       4.81553974       8.23224871       0.00000000 NULL
P       18.80567319      12.18369870       5.54077093       0.00000000 NULL
P        6.68035359       1.46211148       4.98632917       0.00000000 NULL
P       12.74301276       8.45166385      10.37843976       0.00000000 NULL
P       12.74301402       5.19414632       0.14866034       0.00000000 NULL
P       18.26377118       7.23630408       7.03207257       0.00000000 NULL
P        6.13845070       6.40950597       3.49502744       0.00000000 NULL
P       12.20111074       8.63843990       5.21454503       0.00000000 NULL
P       12.20111114       5.00737015       5.31255498       0.00000000 NULL
P       11.27871661       1.86607032       4.27852143       0.00000000 NULL
P       11.27871530      11.77973952       6.24857842       0.00000000 NULL
P        5.21605617       4.61204306       0.71903805       0.00000000 NULL
P       17.34137574       9.03376678       9.80806179       0.00000000 NULL
P       10.88405238       3.68992460      10.14962612       0.00000000 NULL
P       10.88405252       9.95588515       0.37747366       0.00000000 NULL
P       16.94671282      10.75380659       0.99303248       0.00000000 NULL
P       16.94671296       2.89200454       9.53406836       0.00000000 NULL
P        2.37392531       1.60638390       3.31987206       0.00000000 NULL
P       14.49924466      12.03942529       7.20722729       0.00000000 NULL
P        8.43658575       3.61887591       0.71116989       0.00000000 NULL
P       20.56190510      10.02693466       9.81593053       0.00000000 NULL
P        4.77714974       2.15288743       1.28066299       0.00000000 NULL
P       16.90246886      11.49292231       9.24643678       0.00000000 NULL
P       10.83981018       1.78514930       1.75734695       0.00000000 NULL
P       10.83980842      11.86066044       8.76975282       0.00000000 NULL
P       13.81359457       9.23895748       6.87350227       0.00000000 NULL
P       13.81359540       4.40685294       3.65359802       0.00000000 NULL
P       19.87625501       8.99335443       7.19186798       0.00000000 NULL
P        7.75093496       4.65245599       3.33523231       0.00000000 NULL
P       14.42346240       8.87869444       0.54921066       0.00000000 NULL
P       14.42346204       4.76711612       9.97788974       0.00000000 NULL
P        8.36080196       2.78471610       8.44856146       0.00000000 NULL
P        8.36080160      10.86109308       2.07853788       0.00000000 NULL
P        3.45084547       3.30574903       2.98647529       0.00000000 NULL
P       15.57616515      10.34006040       7.54062425       0.00000000 NULL
P        9.51350591       3.72771016       2.43950734       0.00000000 NULL
P        9.51350471       9.91809928       8.08759219       0.00000000 NULL
P        4.75870365       2.31172899       4.39823899       0.00000000 NULL
P       16.88402335      11.33408074       6.12886078       0.00000000 NULL
P       10.82136409       4.84095385       1.11971908       0.00000000 NULL
P       10.82136291       8.80485589       9.40738069       0.00000000 NULL
64
Lattice="12.654770602472658 1.4400984995564358e-06 1.110968190324499e-06 6.327384025773949 11.319134229496782 -0.14400296807036916 6.3273840257739495 2.7336078204826664 10.98503185448157" Properties=species:S:1:pos:R:3:initial_magmoms:R:1:castep_labels:S:1 n_minim_iter=3 pbc="T T T"
P       10.61754684       7.96740284       0.26419307       0.00000000 NULL
P       10.61754615       6.08534018      10.57683657       0.00000000 NULL
P       16.94493214       2.27773921       7.63945168       0.00000000 NULL
P       16.94493145      11.77500526       3.20157907       0.00000000 NULL
P       11.68178202      10.29420379       4.01539442       0.00000000 NULL
P       11.68178252       3.75853947       6.82563541       0.00000000 NULL
P       18.00916732       6.49666774       8.93797245       0.00000000 NULL
P        5.35439722       7.55607552       1.90305737       0.00000000 NULL
P       12.39535863      10.47072879       8.53773939       0.00000000 NULL
P       12.39535996       3.58201464       2.30329056       0.00000000 NULL
P       18.72274393      10.91572950       7.96090631       0.00000000 NULL
P        6.06797466       3.13701393       2.88012364       0.00000000 NULL
P       13.48083701       8.39147644       3.36613708       0.00000000 NULL
P       13.48083696       5.66126723       7.47489306       0.00000000 NULL
P        7.15345171       5.38574041       7.26233710       0.00000000 NULL
P        7.15345166       8.66700182       3.57869193       0.00000000 NULL
P       15.36694479      12.33822044       5.28603085       0.00000000 NULL
P       15.36694597       1.71452367       5.55499962       0.00000000 NULL
P       21.69433009       8.24448576      10.59255795       0.00000000 NULL
P        9.03956067       5.80825834       0.24847252       0.00000000 NULL
P       15.11228372       4.54609163       8.25722726       0.00000000 NULL
P       15.11228365       9.50665242       2.58380317       0.00000000 NULL
P        8.78489842       9.14067670       2.30147013       0.00000000 NULL
P        8.78489835       4.91206591       8.53955918       0.00000000 NULL
P       19.62700476      12.58739091       5.65404599       0.00000000 NULL
P        6.97223547       1.46535272       5.18698412       0.00000000 NULL
P       13.29961946       8.66369024      10.74016262       0.00000000 NULL
P       13.29962077       5.38905339       0.10086749       0.00000000 NULL
P       19.06129473       7.43743417       7.26129514       0.00000000 NULL
P        6.40652455       6.61530934       3.57973487       0.00000000 NULL
P       12.73390943       8.91120499       5.35091028       0.00000000 NULL
P       12.73390985       5.14153851       5.49011973       0.00000000 NULL
P       11.77099821       1.89289971       4.44512492       0.00000000 NULL
P       11.77099687      12.15984358       6.39590492       0.00000000 NULL
P        5.44361291       4.78000053       0.70270345       0.00000000 NULL
P       18.09838217       9.27274276      10.13832639       0.00000000 NULL
P       11.35982892       3.72298929      10.55099384       0.00000000 NULL
P       11.35982907      10.32975390       0.29003593       0.00000000 NULL
P       17.68721423      11.15042343       0.92314383       0.00000000 NULL
P       17.68721437       2.90232120       9.91788705       0.00000000 NULL
P        2.47655166       1.63173746       3.44655633       0.00000000 NULL
P       15.13132069      12.42100515       7.39447299       0.00000000 NULL
P        8.80393696       3.74784682       0.70353967       0.00000000 NULL
P       21.45870599      10.30489723      10.13749076       0.00000000 NULL
P        4.98522198       2.21977900       1.31382233       0.00000000 NULL
P       17.63999076      11.83296418       9.52720743       0.00000000 NULL
P       11.31260728       1.83420052       1.81363201       0.00000000 NULL
P       11.31260546      12.21854266       9.02739775       0.00000000 NULL
P       14.41613748       9.51665866       7.07491330       0.00000000 NULL
P       14.41613834       4.53608523       3.76611701       0.00000000 NULL
P       20.74352278       9.25865315       7.40935582       0.00000000 NULL
P        8.08875304       4.79409074       3.43167449       0.00000000 NULL
P       15.05298612       9.21049852       0.47934050       0.00000000 NULL
P       15.05298575       4.84224551      10.36168992       0.00000000 NULL
P        8.72560082       2.80134863       8.78723406       0.00000000 NULL
P        8.72560045      11.25139396       2.05379525       0.00000000 NULL
P        3.60137858       3.40101522       3.08070431       0.00000000 NULL
P       16.25614794      10.65172765       7.76032521       0.00000000 NULL
P        9.92876388       3.84303301       2.50773785       0.00000000 NULL
P        9.92876264      10.20970986       8.33329167       0.00000000 NULL
P        4.96622466       2.35308320       4.56599120       0.00000000 NULL
P       17.62099405      11.69965997       6.27503856       0.00000000 NULL
P       11.29360996       5.01370901       1.11714217       0.00000000 NULL
P       11.29360875       9.03903417       9.72388759       0.00000000 NULL
64
Lattice="12.795588097399122 1.4561233702950415e-06 1.1233306236095502e-06 6.397792769253614 11.390455340459498 -0.19107746760103259 6.3977927692536145 2.7061767247680333 11.0659654344278" Properties=species:S:1:pos:R:3:initial_magmoms:R:1:castep_labels:S:1 n_minim_iter=4 pbc="T T T"
P       10.73551926       8.01604526       0.23448895       0.00000000 NULL
P       10.73551857       6.08058778      10.64039978       0.00000000 NULL
P       17.13331331       2.26135364       7.69404045       0.00000000 NULL
P       17.13331262      11.83528086       3.18084940       0.00000000 NULL
P       11.81252725      10.34193723       4.00765057       0.00000000 NULL
P       11.81252775       3.75469606       6.86723835       0.00000000 NULL
P       18.21032130       6.50129264       8.98610830       0.00000000 NULL
P        5.41473370       7.59534065       1.88878062       0.00000000 NULL
P       12.53493679      10.50132499       8.56593499       0.00000000 NULL
P       12.53493812       3.59530847       2.30895406       0.00000000 NULL
P       18.93273083      10.95076741       7.98334433       0.00000000 NULL
P        6.13714407       3.14586605       2.89154471       0.00000000 NULL
P       13.63015050       8.43032439       3.36019250       0.00000000 NULL
P       13.63015045       5.66630932       7.51469674       0.00000000 NULL
P        7.23235645       5.38985043       7.30142172       0.00000000 NULL
P        7.23235640       8.70678182       3.57346639       0.00000000 NULL
P       15.53829567      12.39407877       5.27985854       0.00000000 NULL
P       15.53829686       1.70255537       5.59503103       0.00000000 NULL
P       21.93608972       8.25269291      10.64815376       0.00000000 NULL
P        9.14050281       5.84394124       0.22673581       0.00000000 NULL
P       15.28043616       4.54107857       8.30768015       0.00000000 NULL
P       15.28043610       9.55555552       2.56720937       0.00000000 NULL
P        8.88264212       9.18820512       2.28381584       0.00000000 NULL
P        8.88264205       4.90842751       8.59107256       0.00000000 NULL
P       19.84535536      12.64308436       5.65060299       0.00000000 NULL
P        7.04976857       1.45354931       5.22428621       0.00000000 NULL
P       13.44756131       8.67449546      10.79490621       0.00000000 NULL
P       13.44756262       5.42213820       0.07998300       0.00000000 NULL
P       19.27339514       7.45446756       7.29233571       0.00000000 NULL
P        6.47780746       6.64216597       3.58255340       0.00000000 NULL
P       12.87560109       8.94555234       5.35950754       0.00000000 NULL
P       12.87560151       5.15108120       5.51538157       0.00000000 NULL
P       11.90214441       1.88741482       4.47537743       0.00000000 NULL
P       11.90214307      12.20921849       6.39951150       0.00000000 NULL
P        5.50435036       4.80787028       0.68971981       0.00000000 NULL
P       18.29993711       9.28876303      10.18516912       0.00000000 NULL
P       11.48681061       3.70319989      10.62363139       0.00000000 NULL
P       11.48681075      10.39343333       0.25125747       0.00000000 NULL
P       17.88460465      11.21565971       0.88556641       0.00000000 NULL
P       17.88460480       2.88097496       9.98932357       0.00000000 NULL
P        2.50338331       1.62759703       3.46843785       0.00000000 NULL
P       15.29896982      12.46903560       7.40645055       0.00000000 NULL
P        8.90117735       3.76796095       0.69398110       0.00000000 NULL
P       21.69676387      10.32867314      10.18090843       0.00000000 NULL
P        5.04004996       2.22733925       1.31583700       0.00000000 NULL
P       17.83563623      11.86929396       9.55905185       0.00000000 NULL
P       11.43784401       1.83806808       1.82043336       0.00000000 NULL
P       11.43784218      12.25856513       9.05445549       0.00000000 NULL
P       14.57595575       9.54725318       7.09555957       0.00000000 NULL
P       14.57595661       4.54938075       3.77932983       0.00000000 NULL
P       20.97374980       9.28638851       7.43370830       0.00000000 NULL
P        8.17816256       4.81024541       3.44118110       0.00000000 NULL
P       15.22022097       9.26654612       0.44597943       0.00000000 NULL
P       15.22022060       4.83008795      10.42891009       0.00000000 NULL
P        8.82242692       2.78330535       8.84991367       0.00000000 NULL
P        8.82242655      11.31332726       2.02497472       0.00000000 NULL
P        3.64112322       3.41051496       3.09224571       0.00000000 NULL
P       16.43671008      10.68611793       7.78264290       0.00000000 NULL
P       10.03891727       3.85660761       2.51399722       0.00000000 NULL
P       10.03891603      10.24002528       8.36089139       0.00000000 NULL
P        5.02150615       2.34930413       4.59516881       0.00000000 NULL
P       17.81709303      11.74732907       6.27972004       0.00000000 NULL
P       11.41930020       5.04097203       1.10608132       0.00000000 NULL
P       11.41929898       9.05566117       9.76880753       0.00000000 NULL
64
Lattice="12.851135035527598 1.4624445486629591e-06 1.128207115122448e-06 6.425566241353191 11.385889607939268 -0.21973392418562548 6.4255662413531915 2.6772998175358347 11.068822468927758" Properties=species:S:1:pos:R:3:initial_magmoms:R:1:castep_labels:S:1 n_minim_iter=5 pbc="T T T"
P       10.78200350       8.01184187       0.21494387       0.00000000 NULL
P       10.78200280       6.05134854      10.63414544       0.00000000 NULL
P       17.20757101       2.24138172       7.69493541       0.00000000 NULL
P       17.20757032      11.82181015       3.15415503       0.00000000 NULL
P       11.86485619      10.32680596       3.98577604       0.00000000 NULL
P       11.86485669       3.73638470       6.86331346       0.00000000 NULL
P       18.29042371       6.47629396       8.97702446       0.00000000 NULL
P        5.43928917       7.58689670       1.87206504       0.00000000 NULL
P       12.59117498      10.47491628       8.54617398       0.00000000 NULL
P       12.59117632       3.58827454       2.30291565       0.00000000 NULL
P       19.01674250      10.92495073       7.96281592       0.00000000 NULL
P        6.16560880       3.13824010       2.88627371       0.00000000 NULL
P       13.68852979       8.41835976       3.34188637       0.00000000 NULL
P       13.68852974       5.64483131       7.50720345       0.00000000 NULL
P        7.26296227       5.36910702       7.29449514       0.00000000 NULL
P        7.26296222       8.69408259       3.55459355       0.00000000 NULL
P       15.60602128      12.37563138       5.25308229       0.00000000 NULL
P       15.60602246       1.68756013       5.59600787       0.00000000 NULL
P       22.03158879       8.22211135      10.63710649       0.00000000 NULL
P        9.18045494       5.84108016       0.21198367       0.00000000 NULL
P       15.34661564       4.51841867       8.30322943       0.00000000 NULL
P       15.34661558       9.54477278       2.54586068       0.00000000 NULL
P        8.92104813       9.17814885       2.26302758       0.00000000 NULL
P        8.92104806       4.88504113       8.58606140       0.00000000 NULL
P       19.93136622      12.62332785       5.62400216       0.00000000 NULL
P        7.08023249       1.43986318       5.22508763       0.00000000 NULL
P       13.50579870       8.64375131      10.78254816       0.00000000 NULL
P       13.50580001       5.41943972       0.06654163       0.00000000 NULL
P       19.35703314       7.43272758       7.28063020       0.00000000 NULL
P        6.50589852       6.63046333       3.56845949       0.00000000 NULL
P       12.93146562       8.92871233       5.34145039       0.00000000 NULL
P       12.93146604       5.13447857       5.50763929       0.00000000 NULL
P       11.95412825       1.87611123       4.47546230       0.00000000 NULL
P       11.95412691      12.18707945       6.37362722       0.00000000 NULL
P        5.52856074       4.80508342       0.67876483       0.00000000 NULL
P       18.37969443       9.25810726      10.17032469       0.00000000 NULL
P       11.53737875       3.67456495      10.62291379       0.00000000 NULL
P       11.53737890      10.38862564       0.22617566       0.00000000 NULL
P       17.96294627      11.20769781       0.85805128       0.00000000 NULL
P       17.96294642       2.85549424       9.99103929       0.00000000 NULL
P        2.51345561       1.61787112       3.46705940       0.00000000 NULL
P       15.36458907      12.44531888       7.38202958       0.00000000 NULL
P        8.93902312       3.76415912       0.68492354       0.00000000 NULL
P       21.79015658      10.29903234      10.16416657       0.00000000 NULL
P        5.06111615       2.22200802       1.31140815       0.00000000 NULL
P       17.91224937      11.84118255       9.53768128       0.00000000 NULL
P       11.48668367       1.83243115       1.81640079       0.00000000 NULL
P       11.48668185      12.23075943       9.03268865       0.00000000 NULL
P       14.63853523       9.52511127       7.07780651       0.00000000 NULL
P       14.63853609       4.53808002       3.77128347       0.00000000 NULL
P       21.06410275       9.26359698       7.41679733       0.00000000 NULL
P        8.21296857       4.79959431       3.43229266       0.00000000 NULL
P       15.28596561       9.26180416       0.42320455       0.00000000 NULL
P       15.28596524       4.80138728      10.42588555       0.00000000 NULL
P        8.86039809       2.76007269       8.85110745       0.00000000 NULL
P        8.86039772      11.30311729       1.99798152       0.00000000 NULL
P        3.65652662       3.40196850       3.08593558       0.00000000 NULL
P       16.50766041      10.66122175       7.76315361       0.00000000 NULL
P       10.08209413       3.84833494       2.50733218       0.00000000 NULL
P       10.08209290      10.21485531       8.34175700       0.00000000 NULL
P        5.04341212       2.33683684       4.59367687       0.00000000 NULL
P       17.89454594      11.72635373       6.25541256       0.00000000 NULL
P       11.46897964       5.03636464       1.09440094       0.00000000 NULL
P       11.46897842       9.02682593       9.75468849       0.00000000 NULL
64
Lattice="12.884208813444754 1.4662083069566732e-06 1.1311106774484065e-06 6.44210313535077 11.359868728986271 -0.24340227139806941 6.442103135350772 2.647802177221253 11.049660892345262" Properties=species:S:1:pos:R:3:initial_magmoms:R:1:castep_labels:S:1 n_minim_iter=6 pbc="T T T"
P       10.80959935       7.99268459       0.19821788       0.00000000 NULL
P       10.80959866       6.01498731      10.60804151       0.00000000 NULL
P       17.25170376       2.22034115       7.68065065       0.00000000 NULL
P       17.25170307      11.78733221       3.12560987       0.00000000 NULL
P       11.89685542      10.29367740       3.95991299       0.00000000 NULL
P       11.89685592       3.71399475       6.84634659       0.00000000 NULL
P       18.33895983       6.44286950       8.95154498       0.00000000 NULL
P        5.45475151       7.56480265       1.85471460       0.00000000 NULL
P       12.62599608      10.43210740       8.51249349       0.00000000 NULL
P       12.62599740       3.57556491       2.29376622       0.00000000 NULL
P       19.06810049      10.88150786       7.92995724       0.00000000 NULL
P        6.18389300       3.12616445       2.87630246       0.00000000 NULL
P       13.72271842       8.39202712       3.31988825       0.00000000 NULL
P       13.72271837       5.61564544       7.48637165       0.00000000 NULL
P        7.28061402       5.34114578       7.27460809       0.00000000 NULL
P        7.28061397       8.66652531       3.53165068       0.00000000 NULL
P       15.64647768      12.33614950       5.22017857       0.00000000 NULL
P       15.64647886       1.67152350       5.58608167       0.00000000 NULL
P       22.08858208       8.18026424      10.60726872       0.00000000 NULL
P        9.20437445       5.82740876       0.19899152       0.00000000 NULL
P       15.38585054       4.49066122       8.28312083       0.00000000 NULL
P       15.38585048       9.51701172       2.52313936       0.00000000 NULL
P        8.94374614       9.15165364       2.24128280       0.00000000 NULL
P        8.94374607       4.85601783       8.56497626       0.00000000 NULL
P       19.98245228      12.58213689       5.59068647       0.00000000 NULL
P        7.09824477       1.42553562       5.21557340       0.00000000 NULL
P       13.54034787       8.60107193      10.75116184       0.00000000 NULL
P       13.54034917       5.40660059       0.05509803       0.00000000 NULL
P       19.40680728       7.39983392       7.25694237       0.00000000 NULL
P        6.52259889       6.60783847       3.54931740       0.00000000 NULL
P       12.96470288       8.89745147       5.31564604       0.00000000 NULL
P       12.96470329       5.11022092       5.49061373       0.00000000 NULL
P       11.98538740       1.86328778       4.46732463       0.00000000 NULL
P       11.98538607      12.14438439       6.33893496       0.00000000 NULL
P        5.54328300       4.79395752       0.66842669       0.00000000 NULL
P       18.42749048       9.21371465      10.13783290       0.00000000 NULL
P       11.56804052       3.64308699      10.60125244       0.00000000 NULL
P       11.56804067      10.36458508       0.20500708       0.00000000 NULL
P       18.01014493      11.17875639       0.83310192       0.00000000 NULL
P       18.01014508       2.82891714       9.97315873       0.00000000 NULL
P        2.51886261       1.60647489       3.45904193       0.00000000 NULL
P       15.40306985      12.40119658       7.34721713       0.00000000 NULL
P        8.96096702       3.75351172       0.67593540       0.00000000 NULL
P       21.84517426      10.25416122      10.13032480       0.00000000 NULL
P        5.07301041       2.21274395       1.30517103       0.00000000 NULL
P       17.95721742      11.79492810       9.50108848       0.00000000 NULL
P       11.51511482       1.82404697       1.80902311       0.00000000 NULL
P       11.51511301      12.18362509       8.99723640       0.00000000 NULL
P       14.67526786       9.48788040       7.04906876       0.00000000 NULL
P       14.67526872       4.51979238       3.75719130       0.00000000 NULL
P       21.11737227       9.22635074       7.38807950       0.00000000 NULL
P        8.23316431       4.78132203       3.41818057       0.00000000 NULL