64
Lattice="9.582615417251155 -1.0935555828282125e-15 -8.590289515582967e-17 1.9835401054112804e-15 16.211106833421237 1.0791749062712624e-15 -4.791307708625578 -8.10555341671062 12.050122734801931" Properties=species:S:1:pos:R:3:initial_magmoms:R:1:castep_labels:S:1:forces:R:3 n_minim_iter=1 energy=-341.558399392556 stress="0.00016726107183384913 -0.0 -5.342097471537821e-09 -0.0 0.0003370062189919634 0.0 -5.342097471537821e-09 0.0 0.00045897164636464336" free_energy=-341.558399392556 pbc="T T T"
P        1.26176023       7.90186578       6.66475452       0.00000000 NULL       0.01110100      -0.05483700      -0.04702200
P       -1.26176023       8.30924105       6.66475452       0.00000000 NULL      -0.01109900       0.05483600      -0.04702100
P        3.52954748      -0.20368764       6.66475452       0.00000000 NULL      -0.01110100      -0.05483700      -0.04702200
P        6.05306794       0.20368763       6.66475452       0.00000000 NULL       0.01109900       0.05483600      -0.04702100
P        0.63330318      -3.20325353       7.56245013       0.00000000 NULL      -0.02647600      -0.04428500       0.06937700
P       -0.63330318       3.20325353       7.56245013       0.00000000 NULL       0.02647600       0.04428500       0.06937700
P        4.15800452       4.90229989       7.56245013       0.00000000 NULL       0.02647600      -0.04428500       0.06937700
P        5.42461089      11.30880694       7.56245013       0.00000000 NULL      -0.02647600       0.04428500       0.06937700
P        4.92574876       1.63478693       4.35840850       0.00000000 NULL      -0.02881500       0.00315500       0.00431900
P        4.65686666      -1.63478693       4.35840850       0.00000000 NULL       0.02881500      -0.00315600       0.00431900
P       -0.13444105       9.74034035       4.35840850       0.00000000 NULL       0.02881700       0.00315500       0.00431900
P        0.13444105       6.47076648       4.35840850       0.00000000 NULL      -0.02881400      -0.00315500       0.00432000
P        4.54167025       3.91771922       9.50941382       0.00000000 NULL       0.07867300       0.01813700      -0.16668500
P        5.04094516      -3.91771923       9.50941382       0.00000000 NULL      -0.07867300      -0.01813700      -0.16668500
P        0.24963746      -4.18783419       9.50941382       0.00000000 NULL      -0.07867300       0.01813700      -0.16668500
P       -0.24963746       4.18783419       9.50941382       0.00000000 NULL       0.07867300      -0.01813700      -0.16668500
P        8.06133075       4.67495702       2.39377423       0.00000000 NULL      -0.05297900      -0.03750700      -0.01944400
P        1.52128467      11.53614981       2.39377423       0.00000000 NULL       0.05297600       0.03750700      -0.01944200
P        6.31259237      12.78051043       2.39377423       0.00000000 NULL       0.05297400      -0.03750600      -0.01944300
P        3.27002304       3.43059639       2.39377423       0.00000000 NULL      -0.05297600       0.03750700      -0.01944200
P        3.25283049       7.26941124       5.74992878       0.00000000 NULL      -0.03601700       0.01108600       0.05190300
P        6.32978493       8.94169559       5.74992878       0.00000000 NULL       0.03601500      -0.01108500       0.05190300
P        1.53847722      -0.83614218       5.74992878       0.00000000 NULL       0.03601700       0.01108600       0.05190300
P       -1.53847722       0.83614217       5.74992878       0.00000000 NULL      -0.03601500      -0.01108600       0.05190400
P        7.49557849      -0.23855120       2.80703657       0.00000000 NULL       0.02096000      -0.01038600       0.01360400
P        2.08703693       0.23855120       2.80703657       0.00000000 NULL      -0.02096100       0.01038600       0.01360500
P        6.87834464       7.86700221       2.80703657       0.00000000 NULL      -0.02096300      -0.01038500       0.01360500
P        2.70427078       8.34410461       2.80703657       0.00000000 NULL       0.02096100       0.01038600       0.01360500
P        1.07227138       8.22485383       8.82552425       0.00000000 NULL      -0.02107400       0.00186500       0.03721000
P       -1.07227138       7.98625300       8.82552425       0.00000000 NULL       0.02107400      -0.00186500       0.03721000
P        3.71903633       0.11930041       8.82552425       0.00000000 NULL       0.02107400       0.00186500       0.03721000
P        5.86357909      -0.11930042       8.82552425       0.00000000 NULL      -0.02107400      -0.00186500       0.03721000
P       -1.44925152      -1.30588434       4.66230096       0.00000000 NULL      -0.03662500      -0.00597300      -0.00332300
P        1.44925152       1.30588434       4.66230096       0.00000000 NULL       0.03662800       0.00597200      -0.00332300
P        6.24055923       6.79966907       4.66230096       0.00000000 NULL       0.03662600      -0.00597200      -0.00332400
P        3.34205619       9.41143776       4.66230096       0.00000000 NULL      -0.03662800       0.00597200      -0.00332300
P       -0.90508369      -4.78821390       7.72549024       0.00000000 NULL       0.06990300       0.13911600       0.08849400
P        0.90508369       4.78821390       7.72549024       0.00000000 NULL      -0.06990300      -0.13911600       0.08849400
P        5.69639140       3.31733951       7.72549024       0.00000000 NULL      -0.06990300       0.13911600       0.08849400
P        3.88622402      -3.31733952       7.72549024       0.00000000 NULL       0.06990300      -0.13911600       0.08849400
P        0.79021036       9.40045870       2.32660902       0.00000000 NULL      -0.02179700       0.00999700       0.02767500
P        8.79240506       6.81064812       2.32660902       0.00000000 NULL       0.02180000      -0.00999600       0.02767400
P        4.00109735       1.29490529       2.32660902       0.00000000 NULL       0.02179700       0.00999600       0.02767500
P        5.58151807      14.91620154       2.32660902       0.00000000 NULL      -0.02179700      -0.00999700       0.02767500
P       -1.18055973      13.18212130       3.12228014       0.00000000 NULL       0.01655600      -0.01555600       0.00563500
P        1.18055973       3.02898553       3.12228014       0.00000000 NULL      -0.01655300       0.01555700       0.00563500
P        5.97186744       5.07656788       3.12228014       0.00000000 NULL      -0.01655400      -0.01555700       0.00563500
P        3.61074797      11.13453894       3.12228014       0.00000000 NULL       0.01655400       0.01555700       0.00563500
P       -3.19265037      -1.86133739       5.93549860       0.00000000 NULL       0.02433500      -0.05579900      -0.03010100
P        3.19265037       1.86133738       5.93549860       0.00000000 NULL      -0.02433700       0.05579800      -0.03010200
P       -1.59865734       6.24421603       5.93549860       0.00000000 NULL      -0.02433500      -0.05579900      -0.03010100
P        1.59865734       9.96689080       5.93549860       0.00000000 NULL       0.02433700       0.05579800      -0.03010200
P        2.38165969       6.42315118       3.86837587       0.00000000 NULL      -0.00703600      -0.01159900      -0.03833300
P        7.20095573       9.78795565       3.86837587       0.00000000 NULL       0.00703400       0.01160000      -0.03833300
P        2.40964802      -1.68240223       3.86837587       0.00000000 NULL       0.00703600      -0.01160000      -0.03833300
P        7.17296739       1.68240223       3.86837587       0.00000000 NULL      -0.00703700       0.01160000      -0.03833400
P        1.23531142       2.79912160       8.64425143       0.00000000 NULL      -0.01880400       0.09093700       0.01598400
P       -1.23531141      -2.79912160       8.64425143       0.00000000 NULL       0.01880400      -0.09093700       0.01598400
P        3.55599629      10.90467501       8.64425143       0.00000000 NULL       0.01880300       0.09093700       0.01598400
P        6.02661912       5.30643181       8.64425143       0.00000000 NULL      -0.01880400      -0.09093700       0.01598400
P        0.36119528      11.94644891       4.26725822       0.00000000 NULL      -0.02472200      -0.01323300      -0.00929500
P       -0.36119528       4.26465792       4.26725822       0.00000000 NULL       0.02472300       0.01323200      -0.00929400
P        4.43011243       3.84089549       4.26725822       0.00000000 NULL       0.02472200      -0.01323300      -0.00929600
P        5.15250299      12.37021134       4.26725822       0.00000000 NULL      -0.02472200       0.01323400      -0.00929600
64
Lattice="9.580287660254104 -1.085041106051468e-15 -1.210215413067701e-16 1.9963684373980113e-15 16.203173499130227 6.509216504273765e-16 -4.790143830127053 -8.101586749565113 12.042092208022645" Properties=species:S:1:pos:R:3:initial_magmoms:R:1:castep_labels:S:1:forces:R:3 n_minim_iter=2 energy=-341.559064715688 stress="-0.00018820346076889644 0.0 5.3495767820385e-09 0.0 -0.00014382337178510504 -0.0 5.3495767820385e-09 -0.0 -4.319783251496088e-05" free_energy=-341.559064715688 pbc="T T T"
P        1.26146235       7.89795626       6.66027649       0.00000000 NULL       0.00978100      -0.06355700      -0.04892000
P       -1.26146234       8.30521723       6.66027649       0.00000000 NULL      -0.00978200       0.06355700      -0.04892100
P        3.52868149      -0.20363049       6.66027649       0.00000000 NULL      -0.00978100      -0.06355700      -0.04892000
P        6.05160618       0.20363048       6.66027649       0.00000000 NULL       0.00978200       0.06355700      -0.04892100
P        0.63312881      -3.20172028       7.55746411       0.00000000 NULL      -0.01149600      -0.03176000       0.05204700
P       -0.63312881       3.20172028       7.55746411       0.00000000 NULL       0.01149600       0.03176100       0.05204700
P        4.15701502       4.89986647       7.55746411       0.00000000 NULL       0.01149600      -0.03176100       0.05204700
P        5.42327264      11.30330702       7.55746411       0.00000000 NULL      -0.01149600       0.03176100       0.05204800
P        4.92452987       1.63398935       4.35550728       0.00000000 NULL      -0.02264400      -0.00214500       0.01130100
P        4.65575779      -1.63398935       4.35550728       0.00000000 NULL       0.02264300       0.00214800       0.01130200
P       -0.13438604       9.73557610       4.35550728       0.00000000 NULL       0.02264300      -0.00214500       0.01130100
P        0.13438604       6.46759739       4.35550728       0.00000000 NULL      -0.02264500       0.00214500       0.01130100
P        4.54062805       3.91581605       9.50294724       0.00000000 NULL       0.06804900       0.00858200      -0.13636700
P        5.03965962      -3.91581605       9.50294724       0.00000000 NULL      -0.06804900      -0.00858200      -0.13636700
P        0.24951579      -4.18577070       9.50294724       0.00000000 NULL      -0.06804900       0.00858200      -0.13636700
P       -0.24951578       4.18577070       9.50294724       0.00000000 NULL       0.06804900      -0.00858200      -0.13636700
P        8.05933144       4.67264011       2.39216388       0.00000000 NULL      -0.05574500      -0.04664700      -0.03144900
P        1.52095622      11.53053338       2.39216388       0.00000000 NULL       0.05574600       0.04664700      -0.03145000
P        6.31110005      12.77422686       2.39216388       0.00000000 NULL       0.05574900      -0.04665000      -0.03145000
P        3.26918761       3.42894663       2.39216388       0.00000000 NULL      -0.05574600       0.04664700      -0.03145000
P        3.25201239       7.26586236       5.74613712       0.00000000 NULL      -0.02805200       0.00623700       0.06350700
P        6.32827527       8.93731113       5.74613712       0.00000000 NULL       0.02805400      -0.00623800       0.06350700
P        1.53813144      -0.83572439       5.74613712       0.00000000 NULL       0.02805200       0.00623700       0.06350700
P       -1.53813144       0.83572438       5.74613712       0.00000000 NULL      -0.02805400      -0.00623700       0.06350700
P        7.49377396      -0.23844252       2.80517643       0.00000000 NULL       0.02489900      -0.00863800      -0.00293000
P        2.08651370       0.23844251       2.80517643       0.00000000 NULL      -0.02489900       0.00863900      -0.00293000
P        6.87665753       7.86314423       2.80517643       0.00000000 NULL      -0.02489700      -0.00863900      -0.00293000
P        2.70363013       8.34002926       2.80517643       0.00000000 NULL       0.02489900       0.00863900      -0.00293000
P        1.07199457       8.22083023       8.81967153       0.00000000 NULL      -0.01504400       0.00210200       0.04937600
P       -1.07199456       7.98234327       8.81967153       0.00000000 NULL       0.01504400      -0.00210300       0.04937600
P        3.71814927       0.11924348       8.81967153       0.00000000 NULL       0.01504400       0.00210300       0.04937600
P        5.86213840      -0.11924348       8.81967153       0.00000000 NULL      -0.01504400      -0.00210300       0.04937500
P       -1.44892789      -1.30524991       4.65919130       0.00000000 NULL      -0.02787700      -0.01237000       0.00293400
P        1.44892789       1.30524990       4.65919130       0.00000000 NULL       0.02787400       0.01237100       0.00293300
P        6.23907172       6.79633684       4.65919130       0.00000000 NULL       0.02787600      -0.01237100       0.00293400
P        3.34121594       9.40683665       4.65919130       0.00000000 NULL      -0.02787400       0.01237100       0.00293300
P       -0.90480960      -4.78576277       7.72041039       0.00000000 NULL       0.05821300       0.11816800       0.07215800
P        0.90480960       4.78576277       7.72041039       0.00000000 NULL      -0.05821300      -0.11816800       0.07215800
P        5.69495343       3.31582398       7.72041039       0.00000000 NULL      -0.05821300       0.11816800       0.07215800
P        3.88533423      -3.31582398       7.72041039       0.00000000 NULL       0.05821300      -0.11816800       0.07215800
P        0.79000150       9.39586609       2.32507996       0.00000000 NULL      -0.02491200       0.00302900       0.01394300
P        8.79028616       6.80730740       2.32507996       0.00000000 NULL       0.02490900      -0.00302900       0.01394300
P        4.00014233       1.29427934       2.32507996       0.00000000 NULL       0.02491200       0.00302900       0.01394300
P        5.58014533      14.90889415       2.32507996       0.00000000 NULL      -0.02491300      -0.00302600       0.01394200
P       -1.18026012      13.17565822       3.12020374       0.00000000 NULL       0.01989800      -0.01620900      -0.00090200
P        1.18026012       3.02751528       3.12020374       0.00000000 NULL      -0.01989900       0.01620700      -0.00090000
P        5.97040395       5.07407147       3.12020374       0.00000000 NULL      -0.01989900      -0.01620700      -0.00090000
P        3.60988371      11.12910203       3.12020374       0.00000000 NULL       0.01989900       0.01620700      -0.00090000
P       -3.19185595      -1.86046977       5.93151968       0.00000000 NULL       0.02261900      -0.06668100      -0.02355600
P        3.19185595       1.86046976       5.93151968       0.00000000 NULL      -0.02261700       0.06668100      -0.02355500
P       -1.59828788       6.24111698       5.93151968       0.00000000 NULL      -0.02261900      -0.06668100      -0.02355600
P        1.59828788       9.96205651       5.93151968       0.00000000 NULL       0.02261700       0.06668100      -0.02355500
P        2.38107569       6.41999885       3.86576816       0.00000000 NULL      -0.00759600      -0.02398800      -0.04472300
P        7.19921197       9.78317465       3.86576816       0.00000000 NULL       0.00759700       0.02398700      -0.04472300
P        2.40906814      -1.68158790       3.86576816       0.00000000 NULL       0.00759600      -0.02398700      -0.04472300
P        7.17121952       1.68158790       3.86576816       0.00000000 NULL      -0.00759500       0.02398700      -0.04472300
P        1.23499675       2.79782230       8.63850306       0.00000000 NULL      -0.00424300       0.07173500       0.02150700
P       -1.23499675      -2.79782230       8.63850306       0.00000000 NULL       0.00424300      -0.07173500       0.02150700
P        3.55514708      10.89940905       8.63850306       0.00000000 NULL       0.00424300       0.07173600       0.02150700
P        6.02514058       5.30376445       8.63850306       0.00000000 NULL      -0.00424300      -0.07173500       0.02150700
P        0.36108836      11.94059233       4.26440719       0.00000000 NULL      -0.02536700      -0.00428900       0.00207400
P       -0.36108836       4.26258116       4.26440719       0.00000000 NULL       0.02536600       0.00428900       0.00207300
P        4.42905547       3.83900558       4.26440719       0.00000000 NULL       0.02536700      -0.00428900       0.00207400
P        5.15123219      12.36416791       4.26440719       0.00000000 NULL      -0.02536600       0.00428600       0.00207500
64
Lattice="9.596002236007587 -1.1065424974706555e-15 -1.3003894331835253e-16 1.9650598111530347e-15 16.21048376737938 6.334672338313885e-16 -4.7980011180037945 -8.10524188368969 12.027228166174217" Properties=species:S:1:pos:R:3:initial_magmoms:R:1:castep_labels:S:1:forces:R:3 n_minim_iter=3 energy=-341.560893673559 stress="0.0004608356713850761 -0.0 -0.0 -0.0 0.00011463967477634732 0.0 -0.0 0.0 -0.0004249653404719809" free_energy=-341.560893673559 pbc="T T T"
P        1.26361773       7.90099566       6.65164319       0.00000000 NULL       0.01592200      -0.05571500      -0.06267200
P       -1.26361773       8.30948810       6.65164319       0.00000000 NULL      -0.01592100       0.05571500      -0.06267100
P        3.53438339      -0.20424622       6.65164319       0.00000000 NULL      -0.01592200      -0.05571500      -0.06267200
P        6.06161885       0.20424621       6.65164319       0.00000000 NULL       0.01592100       0.05571500      -0.06267200
P        0.63403849      -3.20346111       7.54861375       0.00000000 NULL      -0.03101900      -0.02126500       0.02841500
P       -0.63403849       3.20346111       7.54861375       0.00000000 NULL       0.03101900       0.02126400       0.02841500
P        4.16396263       4.90178077       7.54861375       0.00000000 NULL       0.03101900      -0.02126500       0.02841500
P        5.43203961      11.30870299       7.54861375       0.00000000 NULL      -0.03101900       0.02126400       0.02841500
P        4.93240163       1.63471910       4.35021297       0.00000000 NULL      -0.01565500       0.00658800       0.01969300
P        4.66360060      -1.63471911       4.35021297       0.00000000 NULL       0.01565500      -0.00658900       0.01969300
P       -0.13440051       9.73996099       4.35021297       0.00000000 NULL       0.01565500       0.00658800       0.01969300
P        0.13440051       6.47052277       4.35021297       0.00000000 NULL      -0.01565400      -0.00658700       0.01969400
P        4.54867876       3.91767542       9.48999547       0.00000000 NULL       0.05986900       0.00235700      -0.07303900
P        5.04732348      -3.91767542       9.48999547       0.00000000 NULL      -0.05986900      -0.00235700      -0.07303900
P        0.24932236      -4.18756646       9.48999547       0.00000000 NULL      -0.05986900       0.00235700      -0.07303900
P       -0.24932236       4.18756646       9.48999547       0.00000000 NULL       0.05986900      -0.00235700      -0.07303900
P        8.07208096       4.67436936       2.38896815       0.00000000 NULL      -0.05665200      -0.02689700      -0.03005700
P        1.52392128      11.53611441       2.38896815       0.00000000 NULL       0.05665100       0.02689700      -0.03005600
P        6.32192240      12.77961124       2.38896815       0.00000000 NULL       0.05665000      -0.02689600      -0.03005600
P        3.27407984       3.43087252       2.38896815       0.00000000 NULL      -0.05665100       0.02689700      -0.03005600
P        3.25709087       7.26920353       5.73956093       0.00000000 NULL      -0.03942200       0.01145300       0.07563800
P        6.33891137       8.94128023       5.73956093       0.00000000 NULL       0.03942100      -0.01145300       0.07563800
P        1.54091025      -0.83603835       5.73956093       0.00000000 NULL       0.03942200       0.01145300       0.07563800
P       -1.54091025       0.83603835       5.73956093       0.00000000 NULL      -0.03942000      -0.01145300       0.07563900
P        7.50627051      -0.23862730       2.80172274       0.00000000 NULL      -0.00107400      -0.01373000      -0.01676800
P        2.08973172       0.23862729       2.80172274       0.00000000 NULL       0.00107400       0.01373000      -0.01676800
P        6.88773284       7.86661459       2.80172274       0.00000000 NULL       0.00107200      -0.01373000      -0.01676800
P        2.70826940       8.34386918       2.80172274       0.00000000 NULL      -0.00107400       0.01373000      -0.01676800
P        1.07361217       8.22455659       8.80918020       0.00000000 NULL      -0.04604700       0.00156200       0.05736000
P       -1.07361217       7.98592717       8.80918020       0.00000000 NULL       0.04604700      -0.00156100       0.05736000
P        3.72438895       0.11931471       8.80918020       0.00000000 NULL       0.04604700       0.00156100       0.05736000
P        5.87161329      -0.11931471       8.80918020       0.00000000 NULL      -0.04604700      -0.00156100       0.05736000
P       -1.45156048      -1.30593113       4.65345244       0.00000000 NULL      -0.03220000      -0.01533800       0.01165900
P        1.45156048       1.30593112       4.65345244       0.00000000 NULL       0.03220200       0.01533800       0.01166000
P        6.24956160       6.79931075       4.65345244       0.00000000 NULL       0.03220100      -0.01533800       0.01165900
P        3.34644064       9.41117301       4.65345244       0.00000000 NULL      -0.03220200       0.01533800       0.01166000
P       -0.90577284      -4.78687189       7.71152793       0.00000000 NULL       0.04945300       0.10413000       0.03703800
P        0.90577284       4.78687189       7.71152793       0.00000000 NULL      -0.04945200      -0.10413000       0.03703700
P        5.70377396       3.31836999       7.71152793       0.00000000 NULL      -0.04945300       0.10413000       0.03703700
P        3.89222828      -3.31837000       7.71152793       0.00000000 NULL       0.04945300      -0.10413000       0.03703700
P        0.79109105       9.40014523       2.32235667       0.00000000 NULL       0.00329900       0.00581900       0.00713600
P        8.80491119       6.81033853       2.32235667       0.00000000 NULL      -0.00329800      -0.00581900       0.00713600
P        4.00691007       1.29490335       2.32235667       0.00000000 NULL      -0.00329900       0.00581900       0.00713600
P        5.58909217      14.91558042       2.32235667       0.00000000 NULL       0.00329900      -0.00582100       0.00713700
P       -1.18203308      13.18146577       3.11635804       0.00000000 NULL       0.00705600      -0.02429200      -0.00459200
P        1.18203308       3.02901799       3.11635804       0.00000000 NULL      -0.00705500       0.02429300      -0.00459300
P        5.98003420       5.07622389       3.11635804       0.00000000 NULL      -0.00705600      -0.02429300      -0.00459300
P        3.61596804      11.13425987       3.11635804       0.00000000 NULL       0.00705600       0.02429300      -0.00459300
P       -3.19689495      -1.86185520       5.92398443       0.00000000 NULL       0.02326000      -0.04758500      -0.02354600
P        3.19689495       1.86185520       5.92398443       0.00000000 NULL      -0.02326100       0.04758500      -0.02354700
P       -1.60110617       6.24338668       5.92398443       0.00000000 NULL      -0.02326000      -0.04758500      -0.02354600
P        1.60110617       9.96709708       5.92398443       0.00000000 NULL       0.02326100       0.04758500      -0.02354600
P        2.38491767       6.42271621       3.86062911       0.00000000 NULL      -0.01802900      -0.01873300      -0.04833900
P        7.21108456       9.78776755       3.86062911       0.00000000 NULL       0.01802800       0.01873400      -0.04833900
P        2.41308344      -1.68252567       3.86062911       0.00000000 NULL       0.01802900      -0.01873400      -0.04833900
P        7.18291879       1.68252566       3.86062911       0.00000000 NULL      -0.01802900       0.01873400      -0.04833900
P        1.23695646       2.79973528       8.62801187       0.00000000 NULL      -0.02357900       0.06503100       0.01783800
P       -1.23695646      -2.79973529       8.62801187       0.00000000 NULL       0.02357900      -0.06503100       0.01783800
P        3.56104466      10.90497717       8.62801187       0.00000000 NULL       0.02357900       0.06503100       0.01783800
P        6.03495758       5.30550660       8.62801187       0.00000000 NULL      -0.02357900      -0.06503100       0.01783800
P        0.36146542      11.94592463       4.25913788       0.00000000 NULL      -0.02771300      -0.00474200       0.00423500
P       -0.36146542       4.26455913       4.25913788       0.00000000 NULL       0.02771400       0.00474200       0.00423500
P        4.43653570       3.84068275       4.25913788       0.00000000 NULL       0.02771300      -0.00474300       0.00423500
P        5.15946654      12.36980102       4.25913788       0.00000000 NULL      -0.02771400       0.00474400       0.00423400
64
Lattice="9.589670500430751 -1.1002583568735533e-15 -1.2782931849745557e-16 1.9745497717064554e-15 16.211491006860953 6.284571015302184e-16 -4.794835250215376 -8.105745503430477 12.04706254453701" Properties=species:S:1:pos:R:3:initial_magmoms:R:1:castep_labels:S:1:forces:R:3 n_minim_iter=4 energy=-341.566505642578 stress="6.834427185584524e-07 -0.0 5.339396238737909e-09 -0.0 1.5452212714907507e-05 -0.0 5.339396238737909e-09 -0.0 -5.31269925754422e-06" free_energy=-341.566505642578 pbc="T T T"
P        1.26315118       7.89952542       6.66094386       0.00000000 NULL       0.00525000      -0.01361500      -0.01583100
P       -1.26315118       8.31196558       6.66094386       0.00000000 NULL      -0.00525200       0.01361500      -0.01583200
P        3.53168407      -0.20622008       6.66094386       0.00000000 NULL      -0.00525000      -0.01361500      -0.01583100
P        6.05798643       0.20622008       6.66094386       0.00000000 NULL       0.00525200       0.01361500      -0.01583200
P        0.63302493      -3.20469926       7.56270205       0.00000000 NULL       0.02373400       0.03044300      -0.00336000
P       -0.63302493       3.20469925       7.56270205       0.00000000 NULL      -0.02373400      -0.03044200      -0.00336000
P        4.16181032       4.90104624       7.56270205       0.00000000 NULL      -0.02373400       0.03044300      -0.00336000
P        5.42786018      11.31044476       7.56270205       0.00000000 NULL       0.02373400      -0.03044200      -0.00336000
P        4.92841898       1.63484112       4.35776724       0.00000000 NULL      -0.01723300       0.00622700      -0.00107900
P        4.66125152      -1.63484113       4.35776724       0.00000000 NULL       0.01723300      -0.00622700      -0.00108000
P       -0.13358373       9.74058663       4.35776724       0.00000000 NULL       0.01723100       0.00622700      -0.00108000
P        0.13358373       6.47090438       4.35776724       0.00000000 NULL      -0.01723400      -0.00622800      -0.00108000
P        4.54790254       3.91821467       9.50145061       0.00000000 NULL      -0.01009500      -0.02542400       0.02306100
P        5.04176796      -3.91821468       9.50145061       0.00000000 NULL       0.01009500       0.02542400       0.02306100
P        0.24693271      -4.18753083       9.50145061       0.00000000 NULL       0.01009500      -0.02542400       0.02306100
P       -0.24693271       4.18753082       9.50145061       0.00000000 NULL      -0.01009500       0.02542400       0.02306100
P        8.06495117       4.67332994       2.39196844       0.00000000 NULL      -0.03022100      -0.01782000      -0.00008700
P        1.52471933      11.53816107       2.39196844       0.00000000 NULL       0.03022400       0.01782100      -0.00008900
P        6.31955458      12.77907544       2.39196844       0.00000000 NULL       0.03022600      -0.01782100      -0.00008800
P        3.27011592       3.43241556       2.39196844       0.00000000 NULL      -0.03022400       0.01782100      -0.00008900
P        3.25390459       7.26992208       5.75109898       0.00000000 NULL      -0.03641300       0.00331800       0.01996600
P        6.33576591       8.94156892       5.75109898       0.00000000 NULL       0.03641500      -0.00331900       0.01996600
P        1.54093066      -0.83582342       5.75109898       0.00000000 NULL       0.03641300       0.00331800       0.01996600
P       -1.54093066       0.83582341       5.75109898       0.00000000 NULL      -0.03641600      -0.00331800       0.01996500
P        7.50193136      -0.23896738       2.80625689       0.00000000 NULL      -0.00073300      -0.01131600       0.01163500
P        2.08773914       0.23896738       2.80625689       0.00000000 NULL       0.00073300       0.01131600       0.01163300
P        6.88257439       7.86677812       2.80625689       0.00000000 NULL       0.00073600      -0.01131700       0.01163400
P        2.70709611       8.34471288       2.80625689       0.00000000 NULL      -0.00073300       0.01131600       0.01163300