27
Lattice="6.49792428254002 0.0 0.0 0.0 9.640251427045008 6.113180661733242e-14 0.0 -4.820125713522557 8.348702634690133" Properties=species:S:1:pos:R:3:initial_magmoms:R:1:castep_labels:S:1:forces:R:3 n_minim_iter=1 energy=-145.197208169517 stress="-0.0003683532354596092 0.0 1.912132659154948e-08 0.0 -0.0004782243780546525 -1.912132659154948e-08 1.912132659154948e-08 -1.912132659154948e-08 -0.0004781287714216947" free_energy=-145.197208169517 pbc="T T T"
P        4.01256010       4.47715597       6.43971810       0.00000000 NULL       0.00706500      -0.00463600       0.00689400
P        4.01256010       8.15850719       1.25151277       0.00000000 NULL       0.00706400       0.00828500       0.00056300
P        4.01256010       1.82471397       0.65747176       0.00000000 NULL       0.00706300      -0.00365300      -0.00746200
P        2.91213378       4.18906919       4.51360938       0.00000000 NULL       0.00794800       0.00663600      -0.00807200
P        2.91213378       6.63449150       2.46405761       0.00000000 NULL       0.00794900      -0.01031000      -0.00171300
P        2.91213378       3.63681644       1.37103565       0.00000000 NULL       0.00794700       0.00367300       0.00978100
P        1.91257481       2.18436768       4.50711542       0.00000000 NULL      -0.01617900      -0.00863600       0.01462400
P        1.91257481       7.63121832       4.20342702       0.00000000 NULL      -0.01617900       0.01698600       0.00016700
P        1.91257481       4.64479113      -0.36183981       0.00000000 NULL      -0.01617800      -0.00834800      -0.01478800
P        0.96737781       0.33481405       1.27230093       0.00000000 NULL      -0.01486900       0.00091900       0.00633600
P        0.96737781      -3.88568782       7.42259470       0.00000000 NULL      -0.01487000       0.00503000      -0.00396200
P        0.96737781       3.55087376       8.00250965       0.00000000 NULL      -0.01486900      -0.00594900      -0.00237400
P        1.19699458       6.29638078       1.03215623       0.00000000 NULL       0.00817700       0.01227400      -0.00380800
P        1.19699458       2.56580884       2.37979881       0.00000000 NULL       0.00817700      -0.00943400      -0.00872600
P        1.19699458       5.59818752       4.93674759       0.00000000 NULL       0.00817700      -0.00284100       0.01253500
P        5.12908846      -1.15824623       5.03632515       0.00000000 NULL      -0.00056600      -0.01638100      -0.01816500
P        5.12908846       0.12058292       6.83361072       0.00000000 NULL      -0.00056600      -0.00754100       0.02326900
P        5.12908846       1.03766331       4.82746940       0.00000000 NULL      -0.00056600       0.02392200      -0.00510400
P        3.06401558       0.35363868       2.00319846       0.00000000 NULL       0.01305000      -0.00515500       0.00237000
P        3.06401558      -3.26212430       7.04084332       0.00000000 NULL       0.01305100       0.00463400       0.00328600
P        3.06401558       2.90848562       7.65336349       0.00000000 NULL       0.01305200       0.00052600      -0.00565000
P        6.40764466       2.89004997       5.22485650       0.00000000 NULL       0.00377500       0.00010600       0.00057700
P        6.40764466       7.89995918       3.23341769       0.00000000 NULL       0.00377500       0.00044900      -0.00038100
P        6.40764466       3.67036798      -0.10957156       0.00000000 NULL       0.00377500      -0.00055300      -0.00019600
P        5.73622719       5.19134089       1.47614864       0.00000000 NULL      -0.00840100       0.00153600      -0.01073100
P        5.73622719       3.50283749       3.11479522       0.00000000 NULL      -0.00840100      -0.01006200       0.00403400
P        5.73622719       5.76619875       3.75775877       0.00000000 NULL      -0.00840200       0.00852300       0.00669600
27
Lattice="6.499492958679711 6.532683157668845e-42 -3.632295305963767e-40 9.781266797464033e-42 9.6432726755006 6.161119520501102e-14 2.0949994216606388e-40 -4.821636337750351 8.351319112603818" Properties=species:S:1:pos:R:3:initial_magmoms:R:1:castep_labels:S:1:forces:R:3 n_minim_iter=2 energy=-145.197313505789 stress="3.92602274313976e-05 -0.0 -0.0 -0.0 8.616234828009887e-06 1.9104733543259174e-08 -0.0 1.9104733543259174e-08 8.55892062738011e-06" free_energy=-145.197313505789 pbc="T T T"
P        4.01353764       4.47855330       6.44174494       0.00000000 NULL      -0.00145000      -0.00502000       0.00809200
P        4.01353764       8.16107445       1.25190571       0.00000000 NULL      -0.00145000       0.00952000       0.00030400
P        4.01353764       1.82528126       0.65766846       0.00000000 NULL      -0.00144900      -0.00449800      -0.00839500
P        2.91284677       4.19039036       4.51501383       0.00000000 NULL       0.00516800       0.00575900      -0.00326100
P        2.91284677       6.63655783       2.46482770       0.00000000 NULL       0.00516800      -0.00570300      -0.00335500
P        2.91284677       3.63796082       1.37147759       0.00000000 NULL       0.00516800      -0.00005500       0.00661900
P        1.91301625       2.18504144       4.50854628       0.00000000 NULL      -0.01975000      -0.00079100       0.01043400
P        1.91301625       7.63363123       4.20474458       0.00000000 NULL      -0.01975000       0.00942900      -0.00453200
P        1.91301625       4.64623635      -0.36197175       0.00000000 NULL      -0.01975100      -0.00863900      -0.00590300
P        0.96759271       0.33492013       1.27270761       0.00000000 NULL      -0.00820000      -0.00088000       0.00043900
P        0.96759271      -3.88689928       7.42491596       0.00000000 NULL      -0.00820000       0.00081900       0.00054100
P        0.96759271       3.55197915       8.00501465       0.00000000 NULL      -0.00820000       0.00006100      -0.00097900
P        1.19729379       6.29836944       1.03247494       0.00000000 NULL       0.00894400       0.00976800      -0.00234700
P        1.19729379       2.56660114       2.38053370       0.00000000 NULL       0.00894400      -0.00691700      -0.00728700
P        1.19729379       5.59993843       4.93831047       0.00000000 NULL       0.00894400      -0.00285100       0.00963200
P        5.13032597      -1.15862976       5.03788076       0.00000000 NULL       0.00218300      -0.00931200      -0.01610800
P        5.13032597       0.12061126       6.83578153       0.00000000 NULL       0.00218300      -0.00929400       0.01611800
P        5.13032597       1.03801850       4.82897593       0.00000000 NULL       0.00218300       0.01860500      -0.00001100
P        3.06477163       0.35374305       2.00382923       0.00000000 NULL       0.01183500      -0.00602000      -0.00682800
P        3.06477163      -3.26314084       7.04305403       0.00000000 NULL       0.01183500      -0.00290500       0.00862400
P        3.06477163       2.90939779       7.65575496       0.00000000 NULL       0.01183400       0.00892300      -0.00179800
P        6.40919627       2.89095584       5.22649469       0.00000000 NULL       0.00469000      -0.00122900      -0.00494100
P        6.40919627       7.90243559       3.23443057       0.00000000 NULL       0.00469000      -0.00366600       0.00353500
P        6.40919627       3.67151758      -0.10960614       0.00000000 NULL       0.00469100       0.00489400       0.00140700
P        5.73760146       5.19296978       1.47659782       0.00000000 NULL      -0.00342000      -0.00128100      -0.00906100
P        5.73760146       3.50392267       3.11577645       0.00000000 NULL      -0.00342000      -0.00720600       0.00564000
P        5.73760146       5.76801656       3.75894484       0.00000000 NULL      -0.00341900       0.00848800       0.00342100
27
Lattice="6.496597533335068 5.938541917662976e-42 -4.38837952778891e-40 8.878232545120016e-42 9.644835462961275 6.357959431290668e-14 4.5634669315821275e-41 -4.822417731480688 8.352672526245478" Properties=species:S:1:pos:R:3:initial_magmoms:R:1:castep_labels:S:1:forces:R:3 n_minim_iter=3 energy=-145.197400877023 stress="-0.0002537798872089119 0.0 1.9107053697403397e-08 0.0 0.00011045787742468902 -1.9107053697403397e-08 1.9107053697403397e-08 -1.9107053697403397e-08 0.00011057251974687344" free_energy=-145.197400877023 pbc="T T T"
P        4.01171009       4.47910555       6.44306786       0.00000000 NULL       0.00411500      -0.00120700       0.00388400
P        4.01171009       8.16272540       1.25211940       0.00000000 NULL       0.00411400       0.00396300      -0.00090200
P        4.01171009       1.82542224       0.65748527       0.00000000 NULL       0.00411200      -0.00276100      -0.00298800
P        2.91173158       4.19127013       4.51562649       0.00000000 NULL       0.00607800       0.00124000      -0.00096700
P        2.91173158       6.63742992       2.46511288       0.00000000 NULL       0.00607800      -0.00145900      -0.00059300
P        2.91173158       3.63855314       1.37193316       0.00000000 NULL       0.00607700       0.00021800       0.00155500
P        1.91148451       2.18535833       4.50964374       0.00000000 NULL      -0.00539500      -0.00058100       0.00467900
P        1.91148451       7.63520461       4.20527482       0.00000000 NULL      -0.00539400       0.00434700      -0.00183600
P        1.91148451       4.64669025      -0.36224604       0.00000000 NULL      -0.00539400      -0.00376300      -0.00283900
P        0.96686937       0.33494620       1.27293641       0.00000000 NULL      -0.01096800      -0.00177100      -0.00307500
P        0.96686937      -3.88749556       7.42613240       0.00000000 NULL      -0.01096800      -0.00177400       0.00307400
P        0.96686937       3.55254936       8.00627624       0.00000000 NULL      -0.01096800       0.00354600       0.00000100
P        1.19706920       6.29973182       1.03255910       0.00000000 NULL       0.00520200       0.00688900      -0.00626600
P        1.19706920       2.56677423       2.38066518       0.00000000 NULL       0.00520200      -0.00887100      -0.00283400
P        1.19706920       5.60074714       4.93944824       0.00000000 NULL       0.00520200       0.00197900       0.00910100
P        5.12811266      -1.15914907       5.03813639       0.00000000 NULL       0.00034100       0.00446100      -0.00789100
P        5.12811266       0.12031090       6.83745688       0.00000000 NULL       0.00034100      -0.00906400       0.00008200
P        5.12811266       1.03883817       4.82975179       0.00000000 NULL       0.00034100       0.00460300       0.00780900
P        3.06381769       0.35359288       2.00392881       0.00000000 NULL       0.00931300      -0.00144400      -0.00457100
P        3.06381769      -3.26376091       7.04448771       0.00000000 NULL       0.00931500      -0.00323200       0.00354400
P        3.06381769       2.91016803       7.65692853       0.00000000 NULL       0.00931600       0.00468100       0.00103500
P        6.40650236       2.89138344       5.22717732       0.00000000 NULL      -0.00415500       0.00247200      -0.00263900
P        6.40650236       7.90359436       3.23507236       0.00000000 NULL      -0.00415500      -0.00351900      -0.00082200
P        6.40650236       3.67227540      -0.10957715       0.00000000 NULL      -0.00415600       0.00105000       0.00346100
P        5.73492080       5.19377047       1.47652100       0.00000000 NULL      -0.00453100      -0.00248900      -0.00293700
P        5.73492080       3.50423719       3.11647486       0.00000000 NULL      -0.00453100      -0.00129900       0.00362200
P        5.73492080       5.76924553       3.75967667       0.00000000 NULL      -0.00453200       0.00378500      -0.00068700
27
Lattice="6.499723608501707 1.1047884597565393e-40 -4.4011462164288775e-39 1.5889901293848343e-40 9.64261220282796 6.650634781047133e-14 -1.381332745979837e-38 -4.821306101414033 8.350747126490804" Properties=species:S:1:pos:R:3:initial_magmoms:R:1:castep_labels:S:1:forces:R:3 n_minim_iter=4 energy=-145.19749127694 stress="5.540935112004832e-07 0.0 -0.0 0.0 2.464760791202149e-06 -0.0 -0.0 -0.0 2.4838674640021656e-06" free_energy=-145.19749127694 pbc="T T T"
P        4.01362912       4.47788765       6.44189427       0.00000000 NULL       0.00552600       0.00315600      -0.00181300
P        4.01362912       8.16120636       1.25183552       0.00000000 NULL       0.00552600      -0.00315000      -0.00182800
P        4.01362912       1.82482428       0.65701733       0.00000000 NULL       0.00552500      -0.00000900       0.00364100
P        2.91336144       4.19051734       4.51445726       0.00000000 NULL       0.00222200      -0.00184400       0.00048600
P        2.91336144       6.63568210       2.46442403       0.00000000 NULL       0.00222200       0.00134200       0.00135300
P        2.91336144       3.63771886       1.37186584       0.00000000 NULL       0.00222200       0.00050000      -0.00183900
P        1.91167321       2.18481231       4.50901117       0.00000000 NULL      -0.00159300      -0.00094500       0.00342500
P        1.91167321       7.63381817       4.20413858       0.00000000 NULL      -0.00159300       0.00344000      -0.00089400
P        1.91167321       4.64528783      -0.36240263       0.00000000 NULL      -0.00159400      -0.00249300      -0.00253200
P        0.96695941       0.33482787       1.27264468       0.00000000 NULL       0.00160600      -0.00037600       0.00434300
P        0.96695941      -3.88657742       7.42445534       0.00000000 NULL       0.00160600       0.00395000      -0.00184600
P        0.96695941       3.55174954       8.00439423       0.00000000 NULL       0.00160600      -0.00357400      -0.00249800
P        1.19799669       6.29867637       1.03219240       0.00000000 NULL       0.00113100       0.00298100      -0.00343200
P        1.19799669       2.56587275       2.37983718       0.00000000 NULL       0.00113100      -0.00446300      -0.00086600
P        1.19799669       5.59936918       4.93871755       0.00000000 NULL       0.00113100       0.00148100       0.00429800
P        5.13065618      -1.15918902       5.03634783       0.00000000 NULL       0.00002400       0.00906100      -0.00451000
P        5.13065618       0.11989357       6.83646035       0.00000000 NULL       0.00002400      -0.00843700      -0.00559200
P        5.13065618       1.03929545       4.82868607       0.00000000 NULL       0.00002400      -0.00062400       0.01010200
P        3.06577693       0.35328966       2.00320559       0.00000000 NULL      -0.00503500       0.00379100      -0.00121700
P        3.06577693      -3.26312400       7.04318651       0.00000000 NULL      -0.00503600      -0.00294800      -0.00267400
P        3.06577693       2.90983434       7.65510215       0.00000000 NULL      -0.00503500      -0.00084100       0.00389000
P        6.40972061       2.89069255       5.22578648       0.00000000 NULL      -0.00326200       0.00386000       0.00142900
P        6.40972061       7.90162367       3.23444071       0.00000000 NULL      -0.00326200      -0.00069100      -0.00405700
P        6.40972061       3.67160208      -0.10948006       0.00000000 NULL      -0.00326200      -0.00316800       0.00262800
P        5.73752132       5.19251423       1.47583768       0.00000000 NULL      -0.00061900       0.00327100      -0.00264700
P        5.73752132       3.50316190       3.11597905       0.00000000 NULL      -0.00061900      -0.00392800      -0.00150900
P        5.73752132       5.76824217       3.75893040       0.00000000 NULL      -0.00061900       0.00065600       0.00415700
27
Lattice="6.49992728446458 1.0968415886153286e-40 -3.893964188976498e-39 1.5773806247347991e-40 9.641842123532143 6.724533115504682e-14 -1.3874108464656595e-38 -4.820921061766125 8.350080218257697" Properties=species:S:1:pos:R:3:initial_magmoms:R:1:castep_labels:S:1:forces:R:3 n_minim_iter=5 energy=-145.197551064291 stress="-1.9109128198603913e-06 0.0 -0.0 0.0 2.8281509733933793e-06 -0.0 -0.0 -0.0 2.8281509733933793e-06" free_energy=-145.197551064291 pbc="T T T"
P        4.01447680       4.47782174       6.44135066       0.00000000 NULL      -0.00017800      -0.00333800       0.00101700
P        4.01447680       8.16038349       1.25149751       0.00000000 NULL      -0.00017800       0.00254900       0.00238300
P        4.01447680       1.82455795       0.65723206       0.00000000 NULL      -0.00017800       0.00078800      -0.00339800
P        2.91389847       4.19008692       4.51407010       0.00000000 NULL      -0.00106800      -0.00394200       0.00114900
P        2.91389847       6.63517698       2.46432345       0.00000000 NULL      -0.00106700       0.00296600       0.00283900
P        2.91389847       3.63749928       1.37168667       0.00000000 NULL      -0.00106700       0.00097500      -0.00398700
P        1.91101097       2.18447963       4.50938981       0.00000000 NULL       0.00374500      -0.00039400       0.00124800
P        1.91101097       7.63392738       4.20357046       0.00000000 NULL       0.00374500       0.00127800      -0.00028200
P        1.91101097       4.64435617      -0.36288005       0.00000000 NULL       0.00374500      -0.00088300      -0.00096700
P        0.96696161       0.33472689       1.27313488       0.00000000 NULL      -0.00016300       0.00044500      -0.00145900
P        0.96696161      -3.88571736       7.42363078       0.00000000 NULL      -0.00016300      -0.00148600       0.00034400
P        0.96696161       3.55099046       8.00339477       0.00000000 NULL      -0.00016300       0.00104100       0.00111500
P        1.19842344       6.29883877       1.03157574       0.00000000 NULL      -0.00100500      -0.00302000      -0.00252500
P        1.19842344       2.56487247       2.37933796       0.00000000 NULL      -0.00100500      -0.00067700       0.00387800
P        1.19842344       5.59905194       4.93916652       0.00000000 NULL      -0.00100500       0.00369600      -0.00135200
P        5.13087273      -1.15812243       5.03491332       0.00000000 NULL      -0.00204600      -0.00135200      -0.00629200
P        5.13087273       0.11850299       6.83558700       0.00000000 NULL      -0.00204600      -0.00477300       0.00431600
P        5.13087273       1.03961944       4.82966012       0.00000000 NULL      -0.00204600       0.00612500       0.00197500
P        3.06552440       0.35361238       2.00271150       0.00000000 NULL       0.00199000      -0.00352500       0.00286900
P        3.06552440      -3.26332822       7.04248716       0.00000000 NULL       0.00198900       0.00424800       0.00161800
P        3.06552440       2.90971584       7.65496178       0.00000000 NULL       0.00199000      -0.00072100      -0.00448900
P        6.40959422       2.89095326       5.22543576       0.00000000 NULL      -0.00207800       0.00470100       0.00194100
P        6.40959422       7.90080454       3.23372337       0.00000000 NULL      -0.00207800      -0.00066900      -0.00504100
P        6.40959422       3.67100538      -0.10907891       0.00000000 NULL      -0.00207800      -0.00403100       0.00310000
P        5.73751446       5.19250177       1.47512725       0.00000000 NULL       0.00080100       0.00263400       0.00230600
P        5.73751446       3.50216785       3.11567815       0.00000000 NULL       0.00080100       0.00068000      -0.00343400
P        5.73751446       5.76809356       3.75927482       0.00000000 NULL       0.00080100      -0.00331400       0.00112800
