16
Lattice="5.788275333262088 0.22601986601219998 0.0 -0.5457069352812876 7.989121780107559 0.0 0.0 0.0 12.127758882791671" Properties=species:S:1:pos:R:3:initial_magmoms:R:1:castep_labels:S:1:forces:R:3 n_minim_iter=1 energy=-78.58812758553 stress="-0.0011801943087411503 0.00019371440676738268 0.0 0.00019371440676738268 0.0002304370956478238 0.0 0.0 0.0 0.0007420828495360426" free_energy=-78.58812758553 pbc="T T T"
P        1.65130038       1.78812340       8.75314687       0.00000000 NULL      -0.22044700      -0.06301100       0.30854500
P        1.65130038       1.78812340       3.37461201       0.00000000 NULL      -0.22044700      -0.06301100      -0.30854500
P        0.91587545       3.88485880       8.95206936       0.00000000 NULL      -0.27863700       0.58175700      -0.28591500
P        0.91587545       3.88485880       3.17568952       0.00000000 NULL      -0.27863700       0.58175700       0.28591500
P        2.18043534       7.92785293       9.52252012       0.00000000 NULL       0.42878000      -0.28204300       0.06817100
P        2.18043534       7.92785293       2.60523876       0.00000000 NULL       0.42878000      -0.28204300      -0.06817100
P        0.18985295       6.62553948      11.01396822       0.00000000 NULL      -0.20064800      -0.15954400       0.06343200
P        0.18985295       6.62553948       1.11379066       0.00000000 NULL      -0.20064800      -0.15954400      -0.06343200
P        3.03306331       0.69216236       7.45179708       0.00000000 NULL       0.17954300      -0.41063100       0.18135600
P        3.03306331       0.69216236       4.67596180       0.00000000 NULL       0.17954300      -0.41063100      -0.18135600
P        0.06536426       0.66837785       7.28245172       0.00000000 NULL       0.13775100       0.14446200       0.23928800
P        0.06536426       0.66837785       4.84530716       0.00000000 NULL       0.13775100       0.14446200      -0.23928800
P        4.15789137       1.59031843       3.04513435       0.00000000 NULL      -0.32529300       0.52596300      -0.19541900
P        4.15789137       1.59031843       9.08262454       0.00000000 NULL      -0.32529300       0.52596300       0.19541900
P        1.34596402       4.77970949      10.91371751       0.00000000 NULL       0.27895200      -0.33695200      -0.26206400
P        1.34596402       4.77970949       1.21404137       0.00000000 NULL       0.27895200      -0.33695200       0.26206400
16
Lattice="6.008895134271438 0.1880762084977991 0.0 -0.6167336219467151 7.934222899197131 0.0 0.0 0.0 11.84422019923662" Properties=species:S:1:pos:R:3:initial_magmoms:R:1:castep_labels:S:1:forces:R:3 n_minim_iter=2 energy=-78.672864552747 stress="0.006464657321271221 -0.0032460286738964883 0.0 -0.0032460286738964883 0.004707610746269747 0.0 0.0 0.0 -0.005361430850441361" free_energy=-78.672864552747 pbc="T T T"
P        1.69047744       1.76124833       8.56558734       0.00000000 NULL       0.09558900      -0.45028000      -0.01863200
P        1.69047744       1.76124833       3.27863286       0.00000000 NULL       0.09558900      -0.45028000       0.01863200
P        0.91004015       3.88359578       8.72694603       0.00000000 NULL      -0.31859900       0.22125500      -0.58746700
P        0.91004015       3.88359578       3.11727417       0.00000000 NULL      -0.31859900       0.22125500       0.58746700
P        2.23970811       7.84028259       9.30366452       0.00000000 NULL       0.28225200      -0.15674200       0.59165900
P        2.23970811       7.84028259       2.54055568       0.00000000 NULL       0.28225200      -0.15674200      -0.59165900
P        0.14383739       6.56707514      10.75998121       0.00000000 NULL       0.04297200      -0.41093800      -0.34205300
P        0.14383739       6.56707514       1.08423899       0.00000000 NULL       0.04297200      -0.41093800       0.34205300
P        3.15578600       0.64491831       7.28762021       0.00000000 NULL      -0.05426100       0.05792500       0.04644400
P        3.15578600       0.64491831       4.55659999       0.00000000 NULL      -0.05426100       0.05792500      -0.04644400
P        0.07173832       0.67116991       7.12544152       0.00000000 NULL       0.09327000       0.26235400       0.40616900
P        0.07173832       0.67116991       4.71877868       0.00000000 NULL       0.09327000       0.26235400      -0.40616900
P        4.28807972       1.58235403       2.96312154       0.00000000 NULL      -0.27076200       0.33014400      -0.03733200
P        4.28807972       1.58235403       8.88109866       0.00000000 NULL      -0.27076200       0.33014400       0.03733200
P        1.38416584       4.71731599      10.64405273       0.00000000 NULL       0.12953900       0.14628300      -0.12547600
P        1.38416584       4.71731599       1.20016747       0.00000000 NULL       0.12953900       0.14628300       0.12547600
16
Lattice="6.081189334091116 0.2750877942658355 0.0 -0.48688639700904973 7.5099381576286985 0.0 0.0 0.0 11.8929695723577" Properties=species:S:1:pos:R:3:initial_magmoms:R:1:castep_labels:S:1:forces:R:3 n_minim_iter=3 energy=-78.962574516245 stress="0.006553491099488342 0.00045689926686283866 -0.0 0.00045689926686283866 -0.004283313597917651 -0.0 -0.0 -0.0 -0.005789471227755269" free_energy=-78.962574516245 pbc="T T T"
P        1.71837162       1.68386507       8.63118091       0.00000000 NULL      -0.08380900      -0.28572400      -0.36313100
P        1.71837162       1.68386507       3.26178866       0.00000000 NULL      -0.08380900      -0.28572400       0.36313100
P        0.95326519       3.75364251       8.72591127       0.00000000 NULL      -0.28009800       0.27782100      -0.61688100
P        0.95326519       3.75364251       3.16705830       0.00000000 NULL      -0.28009800       0.27782100       0.61688100
P        2.45069384       7.43834829       9.35736978       0.00000000 NULL       0.41093500      -0.54533100       0.84936100
P        2.45069384       7.43834829       2.53559980       0.00000000 NULL       0.41093500      -0.54533100      -0.84936100
P        0.23802621       6.20518530      10.80556081       0.00000000 NULL      -0.17000500       0.11168000      -0.22355300
P        0.23802621       6.20518530       1.08740876       0.00000000 NULL      -0.17000500       0.11168000       0.22355300
P        3.22090768       0.62402956       7.33628661       0.00000000 NULL       0.02837200       0.23221500       0.05500300
P        3.22090768       0.62402956       4.55668296       0.00000000 NULL       0.02837200       0.23221500      -0.05500300
P        0.10050833       0.65492251       7.18444655       0.00000000 NULL       0.04964300       0.25625400       0.44604400
P        0.10050833       0.65492251       4.70852302       0.00000000 NULL       0.04964300       0.25625400      -0.44604400
P        4.32619057       1.62320963       2.95538395       0.00000000 NULL      -0.31222600       0.24167200       0.21241700
P        4.32619057       1.62320963       8.93758562       0.00000000 NULL      -0.31222600       0.24167200      -0.21241700
P        1.51292098       4.46360151      10.66002847       0.00000000 NULL       0.35719000      -0.28858700      -0.09334100
P        1.51292098       4.46360151       1.23294110       0.00000000 NULL       0.35719000      -0.28858700       0.09334100
16
Lattice="6.019159821118513 0.2875488808502437 0.0 -0.46145063887268983 7.448766111158248 0.0 0.0 0.0 12.178367474455278" Properties=species:S:1:pos:R:3:initial_magmoms:R:1:castep_labels:S:1:forces:R:3 n_minim_iter=4 energy=-79.247737914647 stress="0.0117880487972022 -0.001240292706069898 -0.0 -0.001240292706069898 0.0021804777810831765 -0.0 -0.0 -0.0 0.0072407288612869065" free_energy=-79.247737914647 pbc="T T T"
P        1.68277573       1.66197948       8.86373308       0.00000000 NULL       0.15659100      -0.33089200      -0.46534100
P        1.68277573       1.66197948       3.31463440       0.00000000 NULL       0.15659100      -0.33089200       0.46534100
P        0.91994744       3.78245150       8.89543302       0.00000000 NULL      -0.01191000       0.24159700      -0.18999800
P        0.91994744       3.78245150       3.28293446       0.00000000 NULL      -0.01191000       0.24159700       0.18999800
P        2.49597651       7.35322009       9.60349661       0.00000000 NULL       0.35450500      -0.16062700       0.22672700
P        2.49597651       7.35322009       2.57487086       0.00000000 NULL       0.35450500      -0.16062700      -0.22672700
P        0.23036000       6.13939162      11.06545902       0.00000000 NULL       0.06640600      -0.10787000       0.27424300
P        0.23036000       6.13939162       1.11290845       0.00000000 NULL       0.06640600      -0.10787000      -0.27424300
P        3.20672287       0.59303160       7.53091073       0.00000000 NULL      -0.05234700       0.31861600       0.72966300
P        3.20672287       0.59303160       4.64745674       0.00000000 NULL      -0.05234700       0.31861600      -0.72966300
P        0.11682759       0.66789896       7.38867393       0.00000000 NULL      -0.01686800       0.24621200       0.55643100
P        0.11682759       0.66789896       4.78969355       0.00000000 NULL      -0.01686800       0.24621200      -0.55643100
P        4.24755385       1.67259384       3.00957430       0.00000000 NULL      -0.47756600      -0.03141200       0.47032900
P        4.24755385       1.67259384       9.16879317       0.00000000 NULL      -0.47756600      -0.03141200      -0.47032900
P        1.54269283       4.39995143      10.88833850       0.00000000 NULL      -0.01881000      -0.17562500      -0.24665900
P        1.54269283       4.39995143       1.29002897       0.00000000 NULL      -0.01881000      -0.17562500       0.24665900
16
Lattice="5.737855559043559 0.2981157056873602 0.0 -0.41656368606364846 7.3519219490728664 0.0 0.0 0.0 12.12844577033543" Properties=species:S:1:pos:R:3:initial_magmoms:R:1:castep_labels:S:1:forces:R:3 n_minim_iter=5 energy=-79.647232896904 stress="0.0014800565420102166 -0.004147888324372003 -0.0 -0.004147888324372003 0.002076175540305746 -0.0 -0.0 -0.0 -0.000550166250641769" free_energy=-79.647232896904 pbc="T T T"
P        1.57768156       1.62532307       8.86236656       0.00000000 NULL       0.07678600       0.15793200      -0.02957500
P        1.57768156       1.62532307       3.26607921       0.00000000 NULL       0.07678600       0.15793200       0.02957500
P        0.84178633       3.82047141       8.80006107       0.00000000 NULL       0.17800600      -0.05086600      -0.14876300
P        0.84178633       3.82047141       3.32838470       0.00000000 NULL       0.17800600      -0.05086600       0.14876300
P        2.47537670       7.21763689       9.59577724       0.00000000 NULL       0.23448600      -0.13596400       0.36958700
P        2.47537670       7.21763689       2.53266853       0.00000000 NULL       0.23448600      -0.13596400      -0.36958700
P        0.20742885       6.03655314      11.02415710       0.00000000 NULL       0.14055400      -0.14531100       0.18147800
P        0.20742885       6.03655314       1.10428867       0.00000000 NULL       0.14055400      -0.14531100      -0.18147800
P        3.08280708       0.54461334       7.53291272       0.00000000 NULL      -0.09714300       0.14094500       0.22836500
P        3.08280708       0.54461334       4.59553305       0.00000000 NULL      -0.09714300       0.14094500      -0.22836500
P        0.13541789       0.68692668       7.40852001       0.00000000 NULL      -0.18302300      -0.06831000       0.18580500
P        0.13541789       0.68692668       4.71992576       0.00000000 NULL      -0.18302300      -0.06831000      -0.18580500
P        3.99639631       1.73672720       2.97557861       0.00000000 NULL      -0.14356100       0.13255200       0.16689800
P        3.99639631       1.73672720       9.15286716       0.00000000 NULL      -0.14356100       0.13255200      -0.16689800
P        1.53083133       4.29879480      10.80119936       0.00000000 NULL      -0.20610500      -0.03097800      -0.20983900
P        1.53083133       4.29879480       1.32724641       0.00000000 NULL      -0.20610500      -0.03097800       0.20983900
16
Lattice="5.734483204289389 0.39843000996317524 0.0 -0.28027654184430467 7.415615444924658 0.0 0.0 0.0 12.089109724670443" Properties=species:S:1:pos:R:3:initial_magmoms:R:1:castep_labels:S:1:forces:R:3 n_minim_iter=6 energy=-79.694273978068 stress="0.0015376496921662801 -0.00044558393661026243 0.0 -0.00044558393661026243 0.006013064718652922 0.0 0.0 0.0 -0.00027813346607065447" free_energy=-79.694273978068 pbc="T T T"
P        1.60019072       1.66863493       8.83815262       0.00000000 NULL      -0.05627500       0.18701200      -0.00636300
P        1.60019072       1.66863493       3.25095711       0.00000000 NULL      -0.05627500       0.18701200       0.00636300
P        0.90727474       3.88420950       8.76165414       0.00000000 NULL       0.13195400      -0.09289900      -0.17157400
P        0.90727474       3.88420950       3.32745558       0.00000000 NULL       0.13195400      -0.09289900       0.17157400
P        2.61906645       7.31946109       9.57400149       0.00000000 NULL       0.45068200       0.28062700       0.28285000
P        2.61906645       7.31946109       2.51510824       0.00000000 NULL       0.45068200       0.28062600      -0.28285100
P        0.31432170       6.09526818      10.99299652       0.00000000 NULL       0.13104600      -0.01056400       0.05485400
P        0.31432170       6.09526818       1.09611320       0.00000000 NULL       0.13104600      -0.01056400      -0.05485400
P        3.09120682       0.59610843       7.51650855       0.00000000 NULL       0.00241100       0.18946600       0.29152800
P        3.09120682       0.59610843       4.57260117       0.00000000 NULL       0.00241100       0.18946600      -0.29152800
P        0.14843196       0.69841743       7.39380476       0.00000000 NULL      -0.16004100       0.00553500       0.23305000
P        0.14843196       0.69841743       4.69530496       0.00000000 NULL      -0.16004100       0.00553500      -0.23305000
P        4.01225167       1.83393938       2.96542397       0.00000000 NULL      -0.35787000      -0.46321800       0.17328800
P        4.01225167       1.83393938       9.12368576       0.00000000 NULL      -0.35787000      -0.46321800      -0.17328800
P        1.61266112       4.35613322      10.75686539       0.00000000 NULL      -0.14190700      -0.09595800      -0.21661400
P        1.61266112       4.35613322       1.33224434       0.00000000 NULL      -0.14190700      -0.09595800       0.21661400
16
Lattice="5.7932621390569246 0.5328255469187445 0.0 -0.09337613445288095 7.237733829915025 0.0 0.0 0.0 12.190955603485351" Properties=species:S:1:pos:R:3:initial_magmoms:R:1:castep_labels:S:1:forces:R:3 n_minim_iter=7 energy=-79.900750508892 stress="0.0014206650071893604 -0.0008446885758505331 0.0 -0.0008446885758505331 0.003728322385522145 0.0 0.0 0.0 0.0018764713040934152" free_energy=-79.900750508892 pbc="T T T"
P        1.62709767       1.69879266       8.92146905       0.00000000 NULL      -0.25773800      -0.31342500      -0.02889700
P        1.62709767       1.69879266       3.26948655       0.00000000 NULL      -0.25773800      -0.31342500       0.02889700
P        1.01826044       3.85636713       8.78740922       0.00000000 NULL       0.10737400       0.10272300      -0.14728600
P        1.01826044       3.85636713       3.40354638       0.00000000 NULL       0.10737400       0.10272300       0.14728600
P        2.92189710       7.19364551       9.72047496       0.00000000 NULL       0.29484100       0.51711500      -0.23107400
P        2.92189710       7.19364551       2.47048065       0.00000000 NULL       0.29484100       0.51711500       0.23107400
P        0.46123494       5.96949125      11.11575353       0.00000000 NULL       0.09330700      -0.01512700      -0.20787700
P        0.46123494       5.96949125       1.07520208       0.00000000 NULL       0.09330700      -0.01512700       0.20787700
P        3.14828891       0.65444469       7.63194295       0.00000000 NULL      -0.21135800      -0.26657000      -0.00162100
P        3.14828891       0.65444469       4.55901265       0.00000000 NULL      -0.21135800      -0.26657000       0.00162100
P        0.15179763       0.68922097       7.50674147       0.00000000 NULL      -0.04945600       0.11366700       0.36737900
P        0.15179763       0.68922097       4.68421413       0.00000000 NULL      -0.04945600       0.11366700      -0.36737900
P        4.02692923       1.90043544       3.01002036       0.00000000 NULL       0.16683000      -0.15541900      -0.17702400
P        4.02692923       1.90043544       9.18093525       0.00000000 NULL       0.16683000      -0.15541900       0.17702300
P        1.74632732       4.23845467      10.79505691       0.00000000 NULL      -0.14380000       0.01703600      -0.08228400
P        1.74632732       4.23845467       1.39589869       0.00000000 NULL      -0.14380000       0.01703600       0.08228400
16
Lattice="5.883637409658176 0.8152643814542968 0.0 0.2917318759235305 7.14043546008466 0.0 0.0 0.0 12.18826688945315" Properties=species:S:1:pos:R:3:initial_magmoms:R:1:castep_labels:S:1:forces:R:3 n_minim_iter=8 energy=-80.253373698346 stress="0.0005691824669423291 -0.002557746525361133 0.0 -0.002557746525361133 0.0031378491252096016 -0.0 0.0 -0.0 0.003856672765914305" free_energy=-80.253373698346 pbc="T T T"
P        1.62104588       1.74204754       8.91252588       0.00000000 NULL      -0.13659700      -0.34761300       0.29360700
P        1.62104588       1.74204754       3.27574101       0.00000000 NULL      -0.13659700      -0.34761300      -0.29360700
P        1.27143164       3.92770584       8.68695905       0.00000000 NULL      -0.04089000       0.05337700      -0.13754500
P        1.27143164       3.92770584       3.50130784       0.00000000 NULL      -0.04089000       0.05337700       0.13754500
P        3.53082426       7.29331028       9.77878119       0.00000000 NULL      -0.06891400      -0.03295400      -0.09260300
P        3.53082426       7.29331028       2.40948570       0.00000000 NULL      -0.06891400      -0.03295400       0.09260300
P        0.77693099       5.95039170      11.10611321       0.00000000 NULL       0.08052000      -0.12141600       0.09694200
P        0.77693099       5.95039170       1.08215367       0.00000000 NULL       0.08052000      -0.12141600      -0.09694200
P        3.18517230       0.74677720       7.67311605       0.00000000 NULL       0.10673100       0.14980800       0.12040400
P        3.18517230       0.74677720       4.51515084       0.00000000 NULL       0.10673100       0.14980800      -0.12040400
P        0.15845226       0.70213057       7.64015216       0.00000000 NULL      -0.39955000       0.09491900       0.48159900
P        0.15845226       0.70213057       4.54811473       0.00000000 NULL      -0.39955000       0.09491900      -0.48159900
P        4.13508500       2.07689265       2.99985174       0.00000000 NULL       0.56071000      -0.06596200       0.48694300
P        4.13508500       2.07689265       9.18841515       0.00000000 NULL       0.56071000      -0.06596200      -0.48694300
P        1.98210398       4.18028762      10.71540594       0.00000000 NULL      -0.10201100       0.26984000       0.09539700
P        1.98210398       4.18028762       1.47286095       0.00000000 NULL      -0.10201100       0.26984000      -0.09539700
16
Lattice="6.035021466437051 1.053882221853307 0.0 0.6111524952931355 7.029122962216444 0.0 0.0 0.0 12.088675900540894" Properties=species:S:1:pos:R:3:initial_magmoms:R:1:castep_labels:S:1:forces:R:3 n_minim_iter=9 energy=-80.521281916882 stress="3.7225771151514836e-06 -0.004125090666198288 -0.0 -0.004125090666198288 0.0037473678946630244 0.0 -0.0 0.0 0.003553496870543619" free_energy=-80.521281916882 pbc="T T T"
P        1.61552914       1.74578915       8.85356618       0.00000000 NULL       0.22942700      -0.00154000       0.55350700
P        1.61552914       1.74578915       3.23510972       0.00000000 NULL       0.22942700      -0.00154000      -0.55350700
P        1.48829502       3.97224684       8.51977172       0.00000000 NULL      -0.06083600      -0.27450600       0.15809000
P        1.48829502       3.97224684       3.56890418       0.00000000 NULL      -0.06083600      -0.27450600      -0.15809000
P        4.07554468       7.34667348       9.75797178       0.00000000 NULL      -0.18666900      -0.31591400      -0.02617100
P        4.07554468       7.34667348       2.33070412       0.00000000 NULL      -0.18666900      -0.31591400       0.02617100
P        1.04424149       5.91020468      11.01008511       0.00000000 NULL       0.04253900      -0.12095600       0.05929800
P        1.04424149       5.91020468       1.07859079       0.00000000 NULL       0.04253900      -0.12095600      -0.05929800
P        3.27507016       0.84390426       7.64500121       0.00000000 NULL      -0.01083700       0.30189700       0.21626000
P        3.27507016       0.84390426       4.44367469       0.00000000 NULL      -0.01083700       0.30189700      -0.21626000
P        0.14093652       0.70744146       7.71582440       0.00000000 NULL      -0.66387200      -0.22388900       0.01616600
P        0.14093652       0.70744146       4.37285150       0.00000000 NULL      -0.66387200      -0.22388900      -0.01616600
P        4.31178437       2.21744559       3.00692153       0.00000000 NULL       0.77947400       0.27256900       0.56360700
P        4.31178437       2.21744559       9.08175437       0.00000000 NULL       0.77947400       0.27256900      -0.56360700
P        2.20634423       4.12989299      10.57763590       0.00000000 NULL      -0.12922600       0.36234000      -0.03277400
P        2.20634423       4.12989299       1.51104000       0.00000000 NULL      -0.12922600       0.36234000       0.03277400
16
Lattice="6.047059985733553 1.1251342892802774 0.0 0.7118044700182654 6.940947517246345 0.0 0.0 0.0 12.037170380566076" Properties=species:S:1:pos:R:3:initial_magmoms:R:1:castep_labels:S:1:forces:R:3 n_minim_iter=10 energy=-80.638745268207 stress="-0.0018761761569326386 -0.0029452097529822745 0.0 -0.0029452097529822745 0.003574402006512281 0.0 0.0 0.0 0.003193863981070603" free_energy=-80.638745268207 pbc="T T T"
P        1.60162432       1.74149306       8.83578749       0.00000000 NULL       0.07028500      -0.12874600       0.50371300
P        1.60162432       1.74149306       3.20138289       0.00000000 NULL       0.07028500      -0.12874600      -0.50371300
P        1.54515074       3.95212174       8.45119907       0.00000000 NULL      -0.13447300      -0.26275800       0.10101600
P        1.54515074       3.95212174       3.58597131       0.00000000 NULL      -0.13447300      -0.26275800      -0.10101600
P        4.25700382       7.31386140       9.74284638       0.00000000 NULL      -0.13207700      -0.38807900       0.05051400
P        4.25700382       7.31386140       2.29432400       0.00000000 NULL      -0.13207700      -0.38807900      -0.05051400
P        1.11842934       5.86620379      10.94393951       0.00000000 NULL       0.06184600      -0.18145300       0.33538600
P        1.11842934       5.86620379       1.09323087       0.00000000 NULL       0.06184600      -0.18145300      -0.33538600
P        3.26952165       0.86320013       7.63227168       0.00000000 NULL       0.04461500       0.33338700       0.22310100
P        3.26952165       0.86320013       4.40489870       0.00000000 NULL       0.04461500       0.33338700      -0.22310100
P        0.09845068       0.68358651       7.72865351       0.00000000 NULL      -0.22930900      -0.22566400      -0.18446800
P        0.09845068       0.68358651       4.30851687       0.00000000 NULL      -0.22930900      -0.22566400       0.18446800
P        4.37473499       2.26813571       3.00797926       0.00000000 NULL       0.48095100       0.31816700       0.48071900
P        4.37473499       2.26813571       9.02919112       0.00000000 NULL       0.48095100       0.31816700      -0.48071900
P        2.26951574       4.07274944      10.49808382       0.00000000 NULL      -0.16183800       0.53514700       0.08104600
P        2.26951574       4.07274944       1.53908656       0.00000000 NULL      -0.16183800       0.53514700      -0.08104600
16
Lattice="6.115246256677694 1.159007004983749 0.0 0.7585928542522279 6.77538454629142 0.0 0.0 0.0 11.891526413704348" Properties=species:S:1:pos:R:3:initial_magmoms:R:1:castep_labels:S:1:forces:R:3 n_minim_iter=11 energy=-80.759347557344 stress="-0.004225978025804311 -0.0019648598744588367 -0.0 -0.0019648598744588367 0.002466344452622654 0.0 -0.0 0.0 0.0012722910923676468" free_energy=-80.759347557344 pbc="T T T"
P        1.54823575       1.67348279       8.74709569       0.00000000 NULL       0.56000500       0.13438300       0.74001800
P        1.54823575       1.67348279       3.14443073       0.00000000 NULL       0.56000500       0.13438300      -0.74001800
P        1.56195335       3.85767085       8.30485215       0.00000000 NULL      -0.17119400      -0.19067600       0.17812400
P        1.56195335       3.85767085       3.58667427       0.00000000 NULL      -0.17119400      -0.19067600      -0.17812400
P        4.45048238       7.17786223       9.67739987       0.00000000 NULL       0.02325400      -0.31989700      -0.05893300
P        4.45048238       7.17786223       2.21412654       0.00000000 NULL       0.02325400      -0.31989700       0.05893300
P        1.15418346       5.76164835      10.81960954       0.00000000 NULL       0.01283500      -0.11510600      -0.07593700
P        1.15418346       5.76164835       1.07191688       0.00000000 NULL       0.01283500      -0.11510600       0.07593700
P        3.27185702       0.87070669       7.57259484       0.00000000 NULL       0.17972400       0.31084600       0.38661800
P        3.27185702       0.87070669       4.31893158       0.00000000 NULL       0.17972400       0.31084600      -0.38661800
P        0.08384071       0.64656769       7.65049541       0.00000000 NULL      -0.36645300      -0.49601100      -0.70167000
P        0.08384071       0.64656769       4.24103100       0.00000000 NULL      -0.36645300      -0.49601100       0.70167000
P        4.48472043       2.30384230       2.99101947       0.00000000 NULL      -0.07709200       0.21202400       0.32947700
P        4.48472043       2.30384230       8.90050694       0.00000000 NULL      -0.07709200       0.21202400      -0.32947700
P        2.32087595       3.99284119      10.34399205       0.00000000 NULL      -0.16107900       0.46443700      -0.01285100
P        2.32087595       3.99284119       1.54753437       0.00000000 NULL      -0.16107900       0.46443700       0.01285100
16
Lattice="6.2285730784325795 1.225585273923215 0.0 0.8417016461244036 6.726725531117986 0.0 0.0 0.0 11.70403167134078" Properties=species:S:1:pos:R:3:initial_magmoms:R:1:castep_labels:S:1:forces:R:3 n_minim_iter=12 energy=-80.887942094989 stress="-0.002017726108112217 0.0016866791980545137 -0.0 0.0016866791980545137 0.004669718359360758 0.0 -0.0 0.0 0.0014079842813519" free_energy=-80.887942094989 pbc="T T T"
P        1.54516727       1.62588473       8.64548184       0.00000000 NULL       0.34693100       0.49855500       0.49262300
P        1.54516727       1.62588473       3.05854983       0.00000000 NULL       0.34693100       0.49855500      -0.49262300
P        1.59640237       3.83684037       8.12312827       0.00000000 NULL      -0.15296200      -0.52383700       0.46637800
P        1.59640237       3.83684037       3.58090340       0.00000000 NULL      -0.15296200      -0.52383700      -0.46637800
P        4.72023670       7.18720603       9.55900915       0.00000000 NULL       0.18835700      -0.42705700       0.19627800
P        4.72023670       7.18720603       2.14502252       0.00000000 NULL       0.18835700      -0.42705700      -0.19627800
P        1.22683802       5.75421410      10.62343364       0.00000000 NULL      -0.06082800      -0.01779200       0.03524100
P        1.22683802       5.75421410       1.08059803       0.00000000 NULL      -0.06082800      -0.01779200      -0.03524100
P        3.31353321       0.90993199       7.49970412       0.00000000 NULL       0.16249300       0.20329800       0.13006100
P        3.31353321       0.90993199       4.20432755       0.00000000 NULL       0.16249300       0.20329800      -0.13006100
P        0.05804169       0.60882278       7.51975052       0.00000000 NULL       0.08705500      -0.33548600      -0.77824200
P        0.05804169       0.60882278       4.18428115       0.00000000 NULL       0.08705500      -0.33548600       0.77824200
P        4.59896873       2.36720856       2.96641274       0.00000000 NULL      -0.39043400       0.27101400       0.17140600
P        4.59896873       2.36720856       8.73761893       0.00000000 NULL      -0.39043400       0.27101400      -0.17140600
P        2.40320558       4.00513215      10.16486441       0.00000000 NULL      -0.18061300       0.33130500      -0.25931000
P        2.40320558       4.00513215       1.53916726       0.00000000 NULL      -0.18061300       0.33130500       0.25931000
16
Lattice="6.368202408996285 1.2430484731804632 0.0 0.8590663125764879 6.562171239179172 0.0 0.0 0.0 11.198960242817405" Properties=species:S:1:pos:R:3:initial_magmoms:R:1:castep_labels:S:1:forces:R:3 n_minim_iter=13 energy=-81.15895106114 stress="-0.001163304741636193 0.006381543656489945 0.0 0.006381543656489945 0.0015598515163953663 -0.0 0.0 -0.0 -0.00018130108016527574" free_energy=-81.15895106114 pbc="T T T"
P        1.51226355       1.52326793       8.35148262       0.00000000 NULL       0.55093500       0.54411800       0.22864000