44
Lattice="9.183026838472019 4.937762489252381e-07 -2.7653389384267323e-16 -4.591513984085813 10.504820349202818 1.5870186616244308 8.885181491673381e-08 -1.6524257719451485 12.281398513977093" Properties=species:S:1:pos:R:3:initial_magmoms:R:1:castep_labels:S:1:forces:R:3 n_minim_iter=1 energy=-215.572231114043 stress="-3.932761342865072e-05 -0.0 -0.0 -0.0 -0.00011803247547328323 -0.0003459407106351106 -0.0 -0.0003459407106351106 8.362701812163023e-05" free_energy=-215.572231114043 pbc="T T T"
P       -1.64302904       4.01108522      11.39287148       0.00000000 NULL      -0.43056300       0.26889800       0.10992000
P        2.94848434       4.84130968       2.47554569       0.00000000 NULL      -0.43056300      -0.26889800      -0.10992000
P        6.23454198       4.84130986       2.47554569       0.00000000 NULL       0.43056300      -0.26889800      -0.10992000
P        1.64302861       4.01108539      11.39287148       0.00000000 NULL       0.43056300       0.26889800       0.10992000
P        3.43002612       4.10835323      12.81193755       0.00000000 NULL       0.45554100       0.81130700      -0.17804600
P       -1.16148733       4.74404172       1.05647962       0.00000000 NULL       0.45554000      -0.81130800       0.17804600
P        1.16148682       4.74404184       1.05647962       0.00000000 NULL      -0.45554100      -0.81130700       0.17804600
P        5.75300028       4.10835335      12.81193755       0.00000000 NULL      -0.45554000       0.81130800      -0.17804600
P        1.04822234       7.87616755       3.07912266       0.00000000 NULL       0.18865000      -0.90348700       0.35701200
P        5.63973613       0.97622763      10.78929451       0.00000000 NULL       0.18865000       0.90348700      -0.35701300
P        3.54329060       0.97622752      10.78929451       0.00000000 NULL      -0.18865000       0.90348700      -0.35701200
P       -1.04822319       7.87616744       3.07912266       0.00000000 NULL      -0.18865000      -0.90348700       0.35701300
P        3.35360182       6.03910273      10.18143750       0.00000000 NULL      -0.11477100       0.26383000       0.67388300
P       -1.23791143       2.81329221       3.68697966       0.00000000 NULL      -0.11477000      -0.26382700      -0.67388200
P        1.23791112       2.81329234       3.68697966       0.00000000 NULL       0.11477100      -0.26383000      -0.67388300
P        5.82942437       6.03910286      10.18143750       0.00000000 NULL       0.11477000       0.26382700       0.67388200
P       -1.30894572       6.81426363       8.98350238       0.00000000 NULL      -0.47025200      -0.28767700       0.20277800
P        3.28256796       2.03813130       4.88491479       0.00000000 NULL      -0.47025200       0.28767700      -0.20277800
P        5.90045866       2.03813144       4.88491479       0.00000000 NULL       0.47025200       0.28767700      -0.20277800
P        1.30894499       6.81426377       8.98350238       0.00000000 NULL       0.47025200      -0.28767700       0.20277800
P        3.41867473       7.40112611       8.44778474       0.00000000 NULL      -0.16153200       0.42008700      -0.64768500
P        8.01018847       1.45126933       5.42063243       0.00000000 NULL      -0.16153100      -0.42008800       0.64768600
P        1.17283821       1.45126896       5.42063243       0.00000000 NULL       0.16153200      -0.42008600       0.64768500
P       -3.41867553       7.40112574       8.44778474       0.00000000 NULL       0.16153100       0.42008800      -0.64768600
P       -3.09637683       9.56752198       8.79995897       0.00000000 NULL      -0.85297000       0.17555400       0.22085100
P        1.49513714      -0.71512724       5.06845820       0.00000000 NULL      -0.85297100      -0.17555300      -0.22085100
P        7.68788978      -0.71512691       5.06845820       0.00000000 NULL       0.85297000      -0.17555400      -0.22085100
P        3.09637580       9.56752231       8.79995897       0.00000000 NULL       0.85297100       0.17555300       0.22085100
P       -2.32644623       5.55868930       7.41508460       0.00000000 NULL       0.66679800      -0.09293900       0.48553900
P        2.26506732       3.29370552       6.45333257       0.00000000 NULL       0.66679800       0.09294000      -0.48553900
P        6.91795917       3.29370577       6.45333257       0.00000000 NULL      -0.66679800       0.09293900      -0.48553900
P        2.32644563       5.55868955       7.41508460       0.00000000 NULL      -0.66679800      -0.09294000       0.48553900
P        1.73274036       1.54411365       2.03631389       0.00000000 NULL      -0.15571900       0.02650400       0.18242000
P       -2.85877337       7.30828112      11.83210327       0.00000000 NULL      -0.15571800      -0.02650300      -0.18241900
P        2.85877259       7.30828142      11.83210327       0.00000000 NULL       0.15571900      -0.02650400      -0.18242000
P        7.45028632       1.54411396       2.03631389       0.00000000 NULL       0.15571800       0.02650300       0.18241900
P        6.08586759       3.33849548       9.79057552       0.00000000 NULL       0.01759000      -1.19630900       0.53675700
P        1.49435405       5.51389975       4.07784165       0.00000000 NULL       0.01759000       1.19630900      -0.53675700
P       -1.49435465       5.51389959       4.07784165       0.00000000 NULL      -0.01759000       1.19630900      -0.53675700
P        3.09715889       3.33849532       9.79057552       0.00000000 NULL      -0.01759000      -1.19630900       0.53675700
P       -1.27586216       3.50946235       8.46054540       0.00000000 NULL      -0.63035100      -0.01230300      -0.53992200
P        3.31565116       5.34293258       5.40787177       0.00000000 NULL      -0.63035000       0.01230200       0.53992300
P        5.86737510       5.34293272       5.40787177       0.00000000 NULL       0.63035100       0.01230300       0.53992200
P        1.27586178       3.50946249       8.46054540       0.00000000 NULL       0.63035000      -0.01230200      -0.53992300
44
Lattice="9.263275302047527 4.980912512407626e-07 -1.2650818582348676e-15 -4.631638239055003 10.935938209624606 2.370475083227196 4.067697317199197e-08 -0.7564919275097356 11.965035481370974" Properties=species:S:1:pos:R:3:initial_magmoms:R:1:castep_labels:S:1:forces:R:3 n_minim_iter=2 energy=-220.084741708428 stress="0.003330054822084616 -8.1386798987316e-09 -0.0 -8.1386798987316e-09 -0.0093366203317058 0.006990881872613482 -0.0 0.006990881872613482 0.0015793678051081578" free_energy=-220.084741708428 pbc="T T T"
P       -1.73687788       5.05751841      11.54936958       0.00000000 NULL      -0.59831000      -0.13703300      -0.03925700
P        2.89475977       5.12192819       2.78614098       0.00000000 NULL      -0.59831100       0.13703400       0.03925700
P        6.36851498       5.12192837       2.78614098       0.00000000 NULL       0.59831000       0.13703300       0.03925700
P        1.73687733       5.05751859      11.54936958       0.00000000 NULL       0.59831100      -0.13703400      -0.03925700
P        3.54410237       5.36492669      12.90978962       0.00000000 NULL      -0.19456900       0.86220100      -0.19999000
P       -1.08753525       4.81451997       1.42572094       0.00000000 NULL      -0.19456800      -0.86220300       0.19998900
P        1.08753473       4.81452009       1.42572094       0.00000000 NULL       0.19456900      -0.86220100       0.19999000
P        5.71917235       5.36492681      12.90978962       0.00000000 NULL       0.19456800       0.86220300      -0.19998900
P        1.09221115       8.17950733       3.68903260       0.00000000 NULL      -0.00785100       0.31524500      -0.19494100
P        5.72384914       1.99993956      10.64647795       0.00000000 NULL      -0.00785100      -0.31524500       0.19494100
P        3.53942595       1.99993945      10.64647795       0.00000000 NULL       0.00785100      -0.31524500       0.19494100
P       -1.09221203       8.17950722       3.68903260       0.00000000 NULL       0.00785100       0.31524500      -0.19494100
P        3.36171918       7.05901518      10.61413343       0.00000000 NULL      -0.04461000       0.24900100       0.34950600
P       -1.26991825       3.12043147       3.72137713       0.00000000 NULL      -0.04460700      -0.24899700      -0.34950400
P        1.26991792       3.12043160       3.72137713       0.00000000 NULL       0.04461000      -0.24900100      -0.34950600
P        5.90155536       7.05901531      10.61413343       0.00000000 NULL       0.04460700       0.24899700       0.34950400
P       -1.40720246       7.65431208       9.40162114       0.00000000 NULL      -0.38149900      -0.09175800       0.14386000
P        3.22443546       2.52513455       4.93388941       0.00000000 NULL      -0.38150000       0.09175800      -0.14386000
P        6.03883957       2.52513470       4.93388941       0.00000000 NULL       0.38149900       0.09175800      -0.14386000
P        1.40720164       7.65431223       9.40162114       0.00000000 NULL       0.38150000      -0.09175800       0.14386000
P        3.41872772       8.33861483       8.77600340       0.00000000 NULL      -0.10642200       0.14659900      -0.40292800
P        8.05036572       1.84083232       5.55950716       0.00000000 NULL      -0.10642100      -0.14660100       0.40292900
P        1.21290938       1.84083195       5.55950716       0.00000000 NULL       0.10642200      -0.14659900       0.40292800
P       -3.41872862       8.33861446       8.77600340       0.00000000 NULL       0.10642200       0.14660100      -0.40292900
P       -3.28091120      10.56198744       9.44243390       0.00000000 NULL      -1.54117000      -0.51487100       0.45269400
P        1.35072704      -0.38254101       4.89307665       0.00000000 NULL      -1.54116900       0.51487200      -0.45269400
P        7.91254830      -0.38254066       4.89307665       0.00000000 NULL       1.54117000       0.51487100      -0.45269400
P        3.28091006      10.56198779       9.44243390       0.00000000 NULL       1.54116900      -0.51487200       0.45269400
P       -2.22367205       6.28184194       7.81450509       0.00000000 NULL       0.48726400       0.11217200       0.49838500
P        2.40796573       3.89760460       6.52100546       0.00000000 NULL       0.48726400      -0.11217100      -0.49838400
P        6.85530916       3.89760484       6.52100546       0.00000000 NULL      -0.48726400      -0.11217200      -0.49838500
P        2.22367138       6.28184218       7.81450509       0.00000000 NULL      -0.48726400       0.11217100       0.49838400
P        1.71913357       1.75371490       2.15693225       0.00000000 NULL      -0.17426700       0.09344400       0.05690100
P       -2.91250444       8.42573156      12.17857831       0.00000000 NULL      -0.17426600      -0.09344200      -0.05689700
P        2.91250353       8.42573188      12.17857831       0.00000000 NULL       0.17426700      -0.09344400      -0.05690100
P        7.54414154       1.75371522       2.15693225       0.00000000 NULL       0.17426600       0.09344200       0.05689700
P        6.14229810       3.97186432       9.97633142       0.00000000 NULL       0.12945600       0.61867400       0.03461100
P        1.51066033       6.20758262       4.35917914       0.00000000 NULL       0.12945800      -0.61867500      -0.03461100
P       -1.51066099       6.20758246       4.35917914       0.00000000 NULL      -0.12945600      -0.61867400      -0.03461100
P        3.12097678       3.97186416       9.97633142       0.00000000 NULL      -0.12945900       0.61867500       0.03461100
P       -1.40338724       4.25348819       8.50259617       0.00000000 NULL      -0.71756800       0.14192300      -0.32595800
P        3.22825032       5.92595844       5.83291439       0.00000000 NULL      -0.71757000      -0.14192300       0.32595900
P        6.03502434       5.92595859       5.83291439       0.00000000 NULL       0.71756800      -0.14192300       0.32595800
P        1.40338678       4.25348834       8.50259617       0.00000000 NULL       0.71757000       0.14192300      -0.32595900
44
Lattice="9.189487740875506 4.941236547712758e-07 -1.2726210558614799e-15 -4.594744476020602 11.262355085859758 2.295018764306286 4.746398404726802e-08 -0.8827136795685786 11.87672403226031" Properties=species:S:1:pos:R:3:initial_magmoms:R:1:castep_labels:S:1:forces:R:3 n_minim_iter=3 energy=-220.80824269998 stress="0.0011351566844504438 -0.0 -0.0 -0.0 -0.001995622200725354 0.0034074254928727118 -0.0 0.0034074254928727118 0.0035139408481131428" free_energy=-220.80824269998 pbc="T T T"
P       -1.73800190       5.12801764      11.43770878       0.00000000 NULL      -0.50187200      -0.24882700       0.07367400
P        2.85674197       5.25162408       2.73403401       0.00000000 NULL      -0.50187100       0.24882800      -0.07367300
P        6.33274521       5.25162426       2.73403401       0.00000000 NULL       0.50187200       0.24882700      -0.07367400
P        1.73800135       5.12801782      11.43770878       0.00000000 NULL       0.50187100      -0.24882800       0.07367300
P        3.52976024       5.45350849      12.77837512       0.00000000 NULL      -0.66451000       0.67965800       0.12764400
P       -1.06498360       4.92613330       1.39336767       0.00000000 NULL      -0.66451200      -0.67965800      -0.12764300
P        1.06498307       4.92613341       1.39336767       0.00000000 NULL       0.66451000      -0.67965800      -0.12764300
P        5.65972691       5.45350860      12.77837512       0.00000000 NULL       0.66451200       0.67965800       0.12764300
P        1.08943302       8.37863369       3.62644539       0.00000000 NULL       0.04954000       0.32455100      -0.22133500
P        5.68417724       2.00100833      10.54529740       0.00000000 NULL       0.04954000      -0.32455100       0.22133500
P        3.50531029       2.00100821      10.54529740       0.00000000 NULL      -0.04954000      -0.32455100       0.22133500
P       -1.08943392       8.37863357       3.62644539       0.00000000 NULL      -0.04954000       0.32455100      -0.22133500
P        3.33122258       7.20316362      10.51754440       0.00000000 NULL       0.01940600       0.15900500      -0.13609200
P       -1.26352108       3.17647814       3.65419839       0.00000000 NULL       0.01940700      -0.15900100       0.13609400
P        1.26352074       3.17647828       3.65419839       0.00000000 NULL      -0.01940600      -0.15900500       0.13609200
P        5.85826439       7.20316376      10.51754440       0.00000000 NULL      -0.01940700       0.15900100      -0.13609400
P       -1.41169452       7.80728092       9.29498314       0.00000000 NULL      -0.27536600      -0.02047000       0.26193500
P        3.18304964       2.57236083       4.87675965       0.00000000 NULL      -0.27536600       0.02047000      -0.26193500
P        6.00643783       2.57236098       4.87675965       0.00000000 NULL       0.27536600       0.02047000      -0.26193500
P        1.41169368       7.80728107       9.29498314       0.00000000 NULL       0.27536600      -0.02047000       0.26193500
P        3.38615978       8.54077741       8.64491191       0.00000000 NULL      -0.16067400       0.22832600      -0.16031500
P        7.98090401       1.83886485       5.52683087       0.00000000 NULL      -0.16067400      -0.22832700       0.16031600
P        1.20858354       1.83886449       5.52683087       0.00000000 NULL       0.16067400      -0.22832600       0.16031500
P       -3.38616070       8.54077705       8.64491191       0.00000000 NULL       0.16067400       0.22832700      -0.16031600
P       -3.28524553      10.82132391       9.32241572       0.00000000 NULL      -1.53548800      -0.74207400       0.33397700
P        1.30949894      -0.44168236       4.84932707       0.00000000 NULL      -1.53548700       0.74207500      -0.33397800
P        7.87998884      -0.44168201       4.84932707       0.00000000 NULL       1.53548800       0.74207400      -0.33397700
P        3.28524437      10.82132426       9.32241572       0.00000000 NULL       1.53548700      -0.74207500       0.33397800
P       -2.18382118       6.41264420       7.73727114       0.00000000 NULL       0.41688800      -0.19421600       0.50304700
P        2.41092282       3.96699747       6.43447164       0.00000000 NULL       0.41688800       0.19421700      -0.50304700
P        6.77856449       3.96699770       6.43447164       0.00000000 NULL      -0.41688800       0.19421600      -0.50304700
P        2.18382049       6.41264443       7.73727114       0.00000000 NULL      -0.41688800      -0.19421700       0.50304700
P        1.70012807       1.79242771       2.13695510       0.00000000 NULL      -0.09695100      -0.10356500      -0.12828800
P       -2.89461616       8.58721388      12.03478769       0.00000000 NULL      -0.09695100       0.10356700       0.12829000
P        2.89461524       8.58721419      12.03478769       0.00000000 NULL       0.09695100       0.10356500       0.12828800
P        7.48935948       1.79242802       2.13695510       0.00000000 NULL       0.09695100      -0.10356700      -0.12829000
P        6.09422809       3.97535748       9.89274890       0.00000000 NULL       0.12617200       0.88134400       0.02437700
P        1.49948409       6.40428459       4.27899389       0.00000000 NULL       0.12617200      -0.88134400      -0.02437800
P       -1.49948478       6.40428442       4.27899389       0.00000000 NULL      -0.12617200      -0.88134400      -0.02437700
P        3.09525922       3.97535731       9.89274890       0.00000000 NULL      -0.12617200       0.88134400       0.02437800
P       -1.41373813       4.31430170       8.39748898       0.00000000 NULL      -0.62084600       0.37446200      -0.28546200
P        3.18100565       6.06534005       5.77425381       0.00000000 NULL      -0.62084600      -0.37446300       0.28546300
P        6.00848144       6.06534020       5.77425381       0.00000000 NULL       0.62084600      -0.37446200       0.28546200
P        1.41373766       4.31430185       8.39748898       0.00000000 NULL       0.62084600       0.37446300      -0.28546300
44
Lattice="9.185628039177066 4.939161165464052e-07 -1.3155694327373958e-15 -4.592814623069194 11.223259578518453 2.225921349425727 5.003312065655222e-08 -0.9304933189660932 11.69897317704434" Properties=species:S:1:pos:R:3:initial_magmoms:R:1:castep_labels:S:1:forces:R:3 n_minim_iter=4 energy=-220.919538664217 stress="-0.0017784613722533114 -8.162572848601577e-09 -8.162572848601577e-09 -8.162572848601577e-09 -0.007869618109065266 0.002079856212115076 -8.162572848601577e-09 0.002079856212115076 -0.00443412179825444" free_energy=-220.919538664217 pbc="T T T"
P       -1.74141112       5.06749811      11.24939132       0.00000000 NULL      -0.38499500      -0.17947500       0.06121000
P        2.85140289       5.22526846       2.67550320       0.00000000 NULL      -0.38499600       0.17947600      -0.06121000
P        6.33422459       5.22526865       2.67550320       0.00000000 NULL       0.38499500       0.17947500      -0.06121100
P        1.74141058       5.06749829      11.24939132       0.00000000 NULL       0.38499600      -0.17947600       0.06121000
P        3.52902118       5.39304743      12.56778055       0.00000000 NULL      -0.63526500       0.75277500       0.14648300
P       -1.06379281       4.89971921       1.35711396       0.00000000 NULL      -0.63526500      -0.75277500      -0.14648300
P        1.06379229       4.89971933       1.35711396       0.00000000 NULL       0.63526500      -0.75277500      -0.14648300
P        5.65660628       5.39304754      12.56778055       0.00000000 NULL       0.63526500       0.75277500       0.14648300
P        1.09044712       8.33609306       3.54732648       0.00000000 NULL       0.00348900       0.50109200      -0.27388100
P        5.68326148       1.95667381      10.37756804       0.00000000 NULL       0.00348900      -0.50109200       0.27388100
P        3.50236635       1.95667369      10.37756804       0.00000000 NULL      -0.00348900      -0.50109200       0.27388100
P       -1.09044801       8.33609294       3.54732648       0.00000000 NULL      -0.00348900       0.50109200      -0.27388100
P        3.32917573       7.14242411      10.33952199       0.00000000 NULL       0.14734300      -0.12419700      -0.34392300
P       -1.26363808       3.15034251       3.58537253       0.00000000 NULL       0.14734400       0.12420200       0.34392600
P        1.26363774       3.15034264       3.58537253       0.00000000 NULL      -0.14734300       0.12419700       0.34392300
P        5.85645155       7.14242425      10.33952199       0.00000000 NULL      -0.14734500      -0.12420200      -0.34392600
P       -1.41488910       7.74587239       9.13202343       0.00000000 NULL      -0.12192200       0.15198300       0.38273100
P        3.17792520       2.54689421       4.79287109       0.00000000 NULL      -0.12192300      -0.15198200      -0.38273200
P        6.00770257       2.54689436       4.79287109       0.00000000 NULL       0.12192200      -0.15198300      -0.38273100
P        1.41488827       7.74587254       9.13202343       0.00000000 NULL       0.12192300       0.15198200       0.38273200
P        3.38315403       8.48550527       8.48356493       0.00000000 NULL      -0.10319000       0.15992000      -0.25398700
P        7.97596840       1.80726185       5.44132959       0.00000000 NULL      -0.10318900      -0.15992100       0.25398800
P        1.20965944       1.80726148       5.44132959       0.00000000 NULL       0.10319000      -0.15992000       0.25398700
P       -3.38315494       8.48550490       8.48356493       0.00000000 NULL       0.10318900       0.15992100      -0.25398800
P       -3.29373359      10.75263332       9.14981142       0.00000000 NULL      -1.43700000      -0.68528700       0.73508700
P        1.29908103      -0.45986692       4.77508310       0.00000000 NULL      -1.43700100       0.68528900      -0.73508600
P        7.88654706      -0.45986657       4.77508310       0.00000000 NULL       1.43700000       0.68528700      -0.73508700
P        3.29373244      10.75263368       9.14981142       0.00000000 NULL       1.43700100      -0.68528900       0.73508600
P       -2.17736963       6.36202502       7.60449604       0.00000000 NULL       0.39632400      -0.23819100       0.49798300
P        2.41544452       3.93074150       6.32039848       0.00000000 NULL       0.39632300       0.23819200      -0.49798200
P        6.77018309       3.93074174       6.32039848       0.00000000 NULL      -0.39632400       0.23819100      -0.49798300
P        2.17736894       6.36202525       7.60449604       0.00000000 NULL      -0.39632300      -0.23819200       0.49798200
P        1.69819318       1.77836058       2.09963892       0.00000000 NULL      -0.00543500      -0.37790100      -0.45671300
P       -2.89462120       8.51440586      11.82525560       0.00000000 NULL      -0.00543400       0.37790500       0.45671700
P        2.89462029       8.51440618      11.82525560       0.00000000 NULL       0.00543500       0.37790100       0.45671300
P        7.48743467       1.77836089       2.09963892       0.00000000 NULL       0.00543400      -0.37790400      -0.45671700
P        6.09212200       3.91800770       9.73373479       0.00000000 NULL       0.09917500       0.98563900      -0.05220500
P        1.49930784       6.37475921       4.19115973       0.00000000 NULL       0.09917600      -0.98564000       0.05220400
P       -1.49930853       6.37475905       4.19115973       0.00000000 NULL      -0.09917500      -0.98563900       0.05220500
P        3.09350562       3.91800754       9.73373479       0.00000000 NULL      -0.09917600       0.98564000      -0.05220400
P       -1.41894992       4.26863432       8.25279237       0.00000000 NULL      -0.48577300       0.30812600      -0.17830100
P        3.17386400       6.02413228       5.67210215       0.00000000 NULL      -0.48577400      -0.30812600       0.17830100
P        6.01176339       6.02413243       5.67210215       0.00000000 NULL       0.48577300      -0.30812600       0.17830100
P        1.41894946       4.26863447       8.25279237       0.00000000 NULL       0.48577400       0.30812600      -0.17830100
44
Lattice="9.480476752773503 5.097702889660059e-07 -1.3399245121062823e-15 -4.740238985723701 11.332172138582948 2.191292900423352 5.17726985310062e-08 -0.9628452014214982 11.531738221567835" Properties=species:S:1:pos:R:3:initial_magmoms:R:1:castep_labels:S:1:forces:R:3 n_minim_iter=5 energy=-221.213073792954 stress="0.011725535259730436 1.5886784573153353e-08 0.0 1.5886784573153353e-08 -0.005337228824489161 0.0002921976852617231 0.0 0.0002921976852617231 -0.00431605808569601" free_energy=-221.213073792954 pbc="T T T"
P       -1.81145517       5.09780518      11.09075533       0.00000000 NULL      -0.45755700      -0.20993100       0.22128300
P        2.92878320       5.27152207       2.63227578       0.00000000 NULL      -0.45755600       0.20993000      -0.22128300
P        6.55169299       5.27152226       2.63227578       0.00000000 NULL       0.45755700       0.20993100      -0.22128300
P        1.81145462       5.09780538      11.09075533       0.00000000 NULL       0.45755600      -0.20993000       0.22128300
P        3.63724855       5.45005544      12.39008057       0.00000000 NULL      -0.38064500       0.59368600       0.17878400
P       -1.10298980       4.91927189       1.33295055       0.00000000 NULL      -0.38064500      -0.59368500      -0.17878400
P        1.10298927       4.91927200       1.33295055       0.00000000 NULL       0.38064500      -0.59368500      -0.17878400
P        5.84322762       5.45005556      12.39008057       0.00000000 NULL       0.38064500       0.59368500       0.17878400
P        1.13010954       8.40168671       3.49714514       0.00000000 NULL      -0.50256200       0.42266600      -0.26449800
P        5.87034827       1.96764085      10.22588597       0.00000000 NULL      -0.50256200      -0.42266500       0.26449800
P        3.61012827       1.96764073      10.22588597       0.00000000 NULL       0.50256200      -0.42266600       0.26449800
P       -1.13011045       8.40168659       3.49714514       0.00000000 NULL       0.50256200       0.42266500      -0.26449800
P        3.43564257       7.19872097      10.19488626       0.00000000 NULL       0.18699100      -0.06413000      -0.50190700
P       -1.30459559       3.17060633       3.52814485       0.00000000 NULL       0.18698800       0.06412600       0.50190400
P        1.30459525       3.17060647       3.52814485       0.00000000 NULL      -0.18699100       0.06413100       0.50190700
P        6.04483341       7.19872111      10.19488626       0.00000000 NULL      -0.18698800      -0.06412600      -0.50190400
P       -1.47151131       7.80309843       9.00823714       0.00000000 NULL      -0.52844600       0.36532700       0.38308900
P        3.26872734       2.56622886       4.71479397       0.00000000 NULL      -0.52844400      -0.36532700      -0.38308800
P        6.21174913       2.56622902       4.71479397       0.00000000 NULL       0.52844600      -0.36532700      -0.38308900
P        1.47151048       7.80309859       9.00823714       0.00000000 NULL       0.52844400       0.36532700       0.38308800
P        3.48609831       8.56628574       8.34857517       0.00000000 NULL      -0.15135300      -0.11789600      -0.07387300
P        8.22633705       1.80304208       5.37445594       0.00000000 NULL      -0.15135300       0.11789700       0.07387200
P        1.25413951       1.80304171       5.37445594       0.00000000 NULL       0.15135300       0.11789600       0.07387300
P       -3.48609923       8.56628536       8.34857517       0.00000000 NULL       0.15135300      -0.11789700      -0.07387200
P       -3.43827854      10.83376589       9.02490817       0.00000000 NULL      -1.40803500      -0.78365600       0.88233000
P        1.30196044      -0.46443881       4.69812294       0.00000000 NULL      -1.40803500       0.78365500      -0.88233000
P        8.17851636      -0.46443844       4.69812294       0.00000000 NULL       1.40803500       0.78365600      -0.88233000
P        3.43827737      10.83376626       9.02490817       0.00000000 NULL       1.40803500      -0.78365500       0.88233000
P       -2.22870751       6.40428249       7.50863781       0.00000000 NULL       0.43300400      -0.29577000       0.43105300
P        2.51153100       3.96504472       6.21439330       0.00000000 NULL       0.43300500       0.29576900      -0.43105400
P        6.96894533       3.96504496       6.21439330       0.00000000 NULL      -0.43300400       0.29577000      -0.43105300
P        2.22870682       6.40428273       7.50863781       0.00000000 NULL      -0.43300500      -0.29576900       0.43105400
P        1.74961974       1.78611387       2.06626181       0.00000000 NULL       0.05995200      -0.41169000      -0.49456200
P       -2.99061900       8.58321325      11.65676930       0.00000000 NULL       0.05995000       0.41168600       0.49455700
P        2.99061808       8.58321358      11.65676930       0.00000000 NULL      -0.05995200       0.41169000       0.49456200
P        7.73085682       1.78611419       2.06626181       0.00000000 NULL      -0.05995000      -0.41168600      -0.49455700
P        6.28965078       3.93279082       9.60352417       0.00000000 NULL       0.22657700       1.03596700      -0.13983300
P        1.54941227       6.43653680       4.11950695       0.00000000 NULL       0.22657500      -1.03596600       0.13983300
P       -1.54941296       6.43653663       4.11950695       0.00000000 NULL      -0.22657700      -1.03596700       0.13983300