33
Lattice="5.073086968176951 9.60467323282283e-40 -2.1574245365896191e-38 -2.4241766962180705e-39 12.804245296042925 -9.451746378255959e-14 4.836927888074768e-38 -6.402122648021382 11.088801702660621" Properties=species:S:1:pos:R:3:initial_magmoms:R:1:castep_labels:S:1:forces:R:3 n_minim_iter=1 energy=-174.209652976034 stress="-0.0017917082184733687 -0.0 -0.0 -0.0 0.004265872122040769 -0.0 -0.0 -0.0 0.004265899888409144" free_energy=-174.209652976034 pbc="T T T"
P        0.35799639      -5.81693107      10.42537123       0.00000000 NULL      -0.01033000      -0.03438300      -0.14018900
P        3.74005437       0.28195248       0.83850489       0.00000000 NULL      -0.01032800       0.13860100       0.04031700
P        2.04902538       5.53498050      10.91372616       0.00000000 NULL      -0.01032900      -0.10421800       0.09987300
P        1.18278094      11.04885556       1.79565740       0.00000000 NULL       0.16001500      -0.04944300      -0.07764700
P        4.56483892       5.72473322       8.67075979       0.00000000 NULL       0.16001500       0.09196400      -0.00399600
P        2.87380993       2.43278107       0.62238340       0.00000000 NULL       0.16001500      -0.04252100       0.08164000
P        4.80985562       0.46524198       6.73011259       0.00000000 NULL       0.02117300      -0.05814800      -0.06976900
P        3.11882664       0.34105381       8.12665567       0.00000000 NULL       0.02117300       0.08949600      -0.01547300
P        1.42779765      -0.80629389       7.32083402       0.00000000 NULL       0.02117200      -0.03134800       0.08524200
P       -0.10791500       3.29512063       0.86349767       0.00000000 NULL      -0.07442400      -0.00224300      -0.09144600
P        3.27414298      10.40887470       2.42190823       0.00000000 NULL      -0.07442500       0.08031400       0.04377900
P        1.58311399       5.50237453       7.80339469       0.00000000 NULL      -0.07442400      -0.07807200       0.04766500
P        0.68078931       7.67740603       5.79432007       0.00000000 NULL       0.23322000       0.04226000       0.31542700
P        4.06284729       3.94751453       3.75166751       0.00000000 NULL       0.23322000      -0.29429800      -0.12111500
P        2.37181830       7.58144929       1.54281300       0.00000000 NULL       0.23322000       0.25203800      -0.19431200
P        3.10753092       9.44580327       4.46490924       0.00000000 NULL       0.05619600       0.09733200       0.01626800
P        1.41650193       4.21461947       5.94784986       0.00000000 NULL       0.05619600      -0.06275500       0.07615800
P        4.79855991       5.54594712       0.67604148       0.00000000 NULL       0.05619600      -0.03457800      -0.09242600
P        2.15163031       3.94811015       2.19464145       0.00000000 NULL       0.04249400      -0.01727500      -0.08475000
P        0.46060132       8.92957561       2.32184185       0.00000000 NULL       0.04249500       0.08203300       0.02741400
P        3.84265930       6.32868410       6.57231729       0.00000000 NULL       0.04249400      -0.06475800       0.05733600
P        2.86986087       4.29133821       9.17154851       0.00000000 NULL      -0.10636200       0.01629000       0.02831000
P        1.17883188      -3.68633983      10.21943424       0.00000000 NULL      -0.10636200      -0.03266200      -0.00004500
P       -0.51219711      -0.60499647       2.78661953       0.00000000 NULL      -0.10636100       0.01637400      -0.02826200
P        3.89991550       2.68810136      11.76377192       0.00000000 NULL      -0.11919900      -0.25635000       0.34436800
P        2.20888651      -5.12965273       7.53487870       0.00000000 NULL      -0.11919900      -0.17005700      -0.39419000
P        5.59094449       2.44155328       2.87895166       0.00000000 NULL      -0.11919900       0.42640700       0.04982100
P        3.32502135       7.29458296       3.54194327       0.00000000 NULL      -0.11392000       0.20102300       0.15811600
P        1.63399237       6.08954160       4.54632141       0.00000000 NULL      -0.11392000      -0.23744400       0.09503300
P        5.01605034       5.82224529       3.00053591       0.00000000 NULL      -0.11392000       0.03642100      -0.25314900
P        4.32050264       4.00316464       6.00020586       0.00000000 NULL      -0.08886400       0.07580100      -0.03499600
P        2.62947365       5.60633290       0.46673823       0.00000000 NULL      -0.08886500      -0.00759300       0.08314300
P        0.93844466       9.59687231       4.62185649       0.00000000 NULL      -0.08886500      -0.06820800      -0.04814800
33
Lattice="5.088382021161943 2.6199539718558884e-39 -2.3348830504071867e-38 1.6088584698422472e-39 12.712799174852371 -9.208572850451076e-14 4.241354015271584e-38 -6.356399587426107 11.00960703863205" Properties=species:S:1:pos:R:3:initial_magmoms:R:1:castep_labels:S:1:forces:R:3 n_minim_iter=2 energy=-174.23680346277 stress="-0.0025667635445079397 -0.0 0.0 -0.0 -0.00069355593523791 -0.0 0.0 -0.0 -0.00069355593523791" free_energy=-174.23680346277 pbc="T T T"
P        0.35905156      -5.77546700      10.35059002       0.00000000 NULL      -0.01823300      -0.03135700      -0.12571900
P        3.75130624       0.28025981       0.83260978       0.00000000 NULL      -0.01823200       0.12455600       0.03570400
P        2.05517890       5.49520908      10.83601316       0.00000000 NULL      -0.01823400      -0.09319900       0.09001600
P        1.18672133      10.96983168       1.78265324       0.00000000 NULL       0.18586400      -0.00878700      -0.05617500
P        4.57897601       5.68406097       8.60882518       0.00000000 NULL       0.18586400       0.05304200       0.02047700
P        2.88284867       2.41530801       0.61812750       0.00000000 NULL       0.18586400      -0.04425500       0.03569700
P        4.82440659       0.46178462       6.68188549       0.00000000 NULL       0.01651000      -0.04920400      -0.09177600
P        3.12827925       0.33882532       8.06858040       0.00000000 NULL       0.01651000       0.10408300       0.00327600
P        1.43215191      -0.80060805       7.26874707       0.00000000 NULL       0.01651000      -0.05487900       0.08850000
P       -0.10841448       3.27158215       0.85711891       0.00000000 NULL      -0.10942200      -0.03608800      -0.11705100
P        3.28384020      10.33472198       2.40471269       0.00000000 NULL      -0.10942200       0.11941300       0.02727200
P        1.58771286       5.46289653       7.74777433       0.00000000 NULL      -0.10942100      -0.08332500       0.08977900
P        0.68338750       7.62267295       5.75366837       0.00000000 NULL       0.18237300       0.06974600       0.34933100
P        4.07564219       3.91864035       3.72459313       0.00000000 NULL       0.18237200      -0.33740300      -0.11426400
P        2.37951484       7.52788736       1.53134443       0.00000000 NULL       0.18237300       0.26765700      -0.23506700
P        3.11703142       9.37856809       4.43305916       0.00000000 NULL       0.02551000       0.11499900       0.12886700
P        1.42090408       4.18437391       5.90554753       0.00000000 NULL       0.02551100      -0.16910100       0.03515900
P        4.81315876       5.50625866       0.67099923       0.00000000 NULL       0.02551000       0.05410300      -0.16402500
P        2.15821677       3.91987329       2.17877135       0.00000000 NULL       0.07038700       0.03606100      -0.01990600
P        0.46208943       8.86599182       2.30532307       0.00000000 NULL       0.07038700      -0.00079100       0.04118300
P        3.85434411       6.28333555       6.52551151       0.00000000 NULL       0.07038600      -0.03527000      -0.02127600
P        2.87826447       4.26072780       9.10611217       0.00000000 NULL      -0.09423800      -0.08288800       0.03902900
P        1.18213713      -3.66008815      10.14644837       0.00000000 NULL      -0.09423800       0.00764300      -0.09129800
P       -0.51399021      -0.60063775       2.76665243       0.00000000 NULL      -0.09423800       0.07524500       0.05226900
P        3.91139462       2.66830962      11.68055427       0.00000000 NULL      -0.10276200      -0.25433700       0.22053700
P        2.21526728      -5.09341132       7.48015272       0.00000000 NULL      -0.10276200      -0.06382300      -0.33053100
P        5.60752196       2.42510359       2.85850598       0.00000000 NULL      -0.10276200       0.31816000       0.10999300
P        3.33477956       7.24295164       3.51701340       0.00000000 NULL      -0.11161600       0.16473800       0.24278900
P        1.63865222       6.04550104       4.51407231       0.00000000 NULL      -0.11161600      -0.29263100       0.02127300
P        5.03090690       5.78074799       2.97852022       0.00000000 NULL      -0.11161600       0.12789200      -0.26406200
P        4.33332078       3.97475015       5.95727219       0.00000000 NULL      -0.04437300       0.03393800       0.03988900
P        2.63719344       5.56627568       0.46359741       0.00000000 NULL      -0.04437300      -0.05151400       0.00944600
P        0.94106610       9.52817483       4.58873633       0.00000000 NULL      -0.04437300       0.01757600      -0.04933600
33
Lattice="5.115912765771891 2.6519422192314894e-39 -2.351067679220186e-38 1.6985023753307838e-39 12.70746421618565 -9.161773965824292e-14 4.223350159444868e-38 -6.353732108092745 11.004986828898527" Properties=species:S:1:pos:R:3:initial_magmoms:R:1:castep_labels:S:1:forces:R:3 n_minim_iter=3 energy=-174.243883904766 stress="0.0012749824668866754 -0.0 -0.0 -0.0 0.00014043159547902722 0.0 -0.0 0.0 0.00014044557294448745" free_energy=-174.243883904766 pbc="T T T"
P        0.36094121      -5.77314127      10.34585234       0.00000000 NULL      -0.01514400      -0.04031600      -0.10012100
P        3.77154972       0.28053242       0.83237255       0.00000000 NULL      -0.01514200       0.10686700       0.01514500
P        2.06624546       5.49261075      10.83174765       0.00000000 NULL      -0.01514200      -0.06655000       0.08497700
P        1.19371275      10.96517903       1.78172092       0.00000000 NULL       0.17626000      -0.01574600      -0.02548500
P        4.60432126       5.68185975       8.60526203       0.00000000 NULL       0.17626200       0.02994300      -0.00089400
P        2.89901701       2.41415944       0.61800277       0.00000000 NULL       0.17626000      -0.01419700       0.02637900
P        4.85056363       0.46143483       6.67881152       0.00000000 NULL       0.01721300      -0.07867100      -0.05056400
P        3.14525938       0.33899488       8.06519425       0.00000000 NULL       0.01721200       0.08312500      -0.04284800
P        1.43995512      -0.80042781       7.26596677       0.00000000 NULL       0.01721100      -0.00445400       0.09341200
P       -0.10932607       3.27011681       0.85641364       0.00000000 NULL      -0.11423400      -0.05558100      -0.12400000
P        3.30128244      10.33073047       2.40379631       0.00000000 NULL      -0.11423500       0.13517500       0.01386500
P        1.59597819       5.46035094       7.74477577       0.00000000 NULL      -0.11423600      -0.07959600       0.11013300
P        0.68768709       7.61967332       5.75230832       0.00000000 NULL       0.20510600       0.05385800       0.34072900
P        4.09829560       3.91598304       3.72267541       0.00000000 NULL       0.20510700      -0.32201000      -0.12372200
P        2.39299135       7.52554185       1.53000199       0.00000000 NULL       0.20510600       0.26815100      -0.21700700
P        3.13399342       9.37497594       4.43153330       0.00000000 NULL      -0.05058900       0.11133600       0.12924900
P        1.42868916       4.18215646       5.90319957       0.00000000 NULL      -0.05059100      -0.16760100       0.03179600
P        4.83929767       5.50406582       0.67025285       0.00000000 NULL      -0.05058900       0.05626400      -0.16104400
P        2.17009991       3.91831001       2.17776056       0.00000000 NULL       0.06892100       0.03385900      -0.02544100
P        0.46479566       8.86231387       2.30447463       0.00000000 NULL       0.06892000       0.00510400       0.04204300
P        3.87540417       6.28057434       6.52275053       0.00000000 NULL       0.06892100      -0.03896200      -0.01660200
P        2.89353405       4.25873921       9.10240480       0.00000000 NULL      -0.09498100      -0.05152700       0.03573000
P        1.18822980      -3.65855066      10.14195967       0.00000000 NULL      -0.09498200      -0.00517800      -0.06248700
P       -0.51707446      -0.60018665       2.76560808       0.00000000 NULL      -0.09498100       0.05670800       0.02675900
P        3.93222475       2.66640758      11.67639731       0.00000000 NULL      -0.10468900      -0.24659600       0.23257900
P        2.22692050      -5.09152775       7.47596377       0.00000000 NULL      -0.10469000      -0.07812100      -0.32984800
P        5.63752901       2.42512206       2.85761147       0.00000000 NULL      -0.10469100       0.32471800       0.09726800
P        3.35246986       7.24043786       3.51623707       0.00000000 NULL      -0.12533200       0.15096900       0.23995900
P        1.64716561       6.04209528       4.51228349       0.00000000 NULL      -0.12533200      -0.28329500       0.01076300
P        5.05777412       5.77866507       2.97646516       0.00000000 NULL      -0.12533100       0.13232700      -0.25072200
P        4.35660199       3.97320918       5.95485393       0.00000000 NULL       0.03747100       0.05430300       0.03502600
P        2.65129773       5.56380547       0.46347201       0.00000000 NULL       0.03747000      -0.05748500       0.02951400
P        0.94599347       9.52418357       4.58665977       0.00000000 NULL       0.03747000       0.00318200      -0.06454100
33
Lattice="5.117148892099449 2.6913352090917722e-39 -2.357395699951188e-38 1.8024781613642185e-39 12.696435891976705 -8.609480749501667e-14 4.201190797426444e-38 -6.348217945988277 10.995436019972406" Properties=species:S:1:pos:R:3:initial_magmoms:R:1:castep_labels:S:1:forces:R:3 n_minim_iter=4 energy=-174.323121145816 stress="-0.00031066595834992026 -0.0 -0.0 -0.0 6.122889658101885e-05 0.0 -0.0 0.0 6.122889658101885e-05" free_energy=-174.323121145816 pbc="T T T"
P        0.35940520      -5.77181898      10.32608747       0.00000000 NULL       0.01485900      -0.01982000       0.01157200
P        3.77083780       0.29147399       0.83384933       0.00000000 NULL       0.01486000      -0.00011200      -0.02295000
P        2.06512150       5.48034688      10.83093414       0.00000000 NULL       0.01485900       0.01993200       0.01137800
P        1.21219337      10.95421729       1.77656311       0.00000000 NULL      -0.10648000       0.02989000       0.04939800
P        4.62362596       5.68077909       8.59834779       0.00000000 NULL      -0.10647900      -0.05772400       0.00118600
P        2.91790966       2.40965936       0.62052401       0.00000000 NULL      -0.10648000       0.02783500      -0.05058400
P        4.85347807       0.45423088       6.66670863       0.00000000 NULL       0.01461100      -0.08967900      -0.03981300
P        3.14776177       0.34756410       8.05545609       0.00000000 NULL       0.01461100       0.07931900      -0.05775700
P        1.44204547      -0.80179309       7.26870622       0.00000000 NULL       0.01461100       0.01036000       0.09757000
P       -0.12070552       3.26255101       0.84374307       0.00000000 NULL       0.03711500       0.02955600      -0.06925000
P        3.29072708      10.33445808       2.40357942       0.00000000 NULL       0.03711500       0.04519500       0.06022100
P        1.58501078       5.44764664       7.74811242       0.00000000 NULL       0.03711400      -0.07475000       0.00902900
P        0.70810692       7.61882539       5.78113208       0.00000000 NULL      -0.03014600      -0.09505500      -0.11632700
P        4.11953952       3.88041658       3.70752919       0.00000000 NULL      -0.03014600       0.14827000      -0.02415700
P        2.41382322       7.54541376       1.50677364       0.00000000 NULL      -0.03014600      -0.05321400       0.14048400
P        3.13231947       9.37789777       4.44008606       0.00000000 NULL      -0.01357500       0.15180700       0.06611200
P        1.42660318       4.16226031       5.90145358       0.00000000 NULL      -0.01357600      -0.13315900       0.09841300
P        4.83803577       5.50449765       0.65389528       0.00000000 NULL      -0.01357600      -0.01864900      -0.16452500
P        2.17760324       3.91816156       2.17334604       0.00000000 NULL       0.12991000       0.06089900       0.03213100
P        0.47188694       8.85518286       2.30655333       0.00000000 NULL       0.12991000      -0.05827600       0.03667400
P        3.88331953       6.27131131       6.51553555       0.00000000 NULL       0.12991100      -0.00262300      -0.06880500
P        2.88455257       4.24920922       9.09810967       0.00000000 NULL      -0.00548900      -0.02814500       0.05297000
P        1.17883627      -3.65558014      10.12630321       0.00000000 NULL      -0.00549000      -0.03180100      -0.05085900
P       -0.52688003      -0.59362719       2.76645805       0.00000000 NULL      -0.00548900       0.05994500      -0.00211100
P        3.92253332       2.63948747      11.68919646       0.00000000 NULL       0.09125600       0.07108100       0.03403200
P        2.21681702      -5.09466625       7.43669989       0.00000000 NULL       0.09125600      -0.06501300       0.04454200
P        5.62824961       2.45518067       2.86497458       0.00000000 NULL       0.09125600      -0.00606700      -0.07857400
P        3.34098757       7.24962901       3.53670534       0.00000000 NULL      -0.13848600       0.02352200       0.07112700
P        1.63527127       6.00874534       4.51000912       0.00000000 NULL      -0.13848600      -0.07335900      -0.01519300
P        5.04670386       5.78628138       2.94872045       0.00000000 NULL      -0.13848500       0.04983700      -0.05593500
P        4.35850933       3.97456590       5.95307641       0.00000000 NULL       0.00642500      -0.01778500      -0.02155000
P        2.65279303       5.55363817       0.46553573       0.00000000 NULL       0.00642500       0.02755500      -0.00462700
P        0.94707673       9.51645166       4.57682277       0.00000000 NULL       0.00642500      -0.00977000       0.02617700
33
Lattice="5.142020468220465 2.8681398950401406e-39 -2.3939793027125636e-38 2.2772182198886527e-39 12.644602443654199 -7.952503529955267e-14 4.0990192453913747e-38 -6.322301221827029 10.950546936959363" Properties=species:S:1:pos:R:3:initial_magmoms:R:1:castep_labels:S:1:forces:R:3 n_minim_iter=5 energy=-174.415254289969 stress="-0.0006933089500577746 0.0 0.0 0.0 -0.0002550592657060792 -0.0 0.0 -0.0 -0.0002550592657060792" free_energy=-174.415254289969 pbc="T T T"
P        0.36466883      -5.75869345      10.27781206       0.00000000 NULL      -0.01672200      -0.03805500       0.00545800
P        3.79268248       0.30080224       0.82446499       0.00000000 NULL      -0.01672400       0.01430300      -0.03568600
P        2.07867566       5.45789310      10.79881572       0.00000000 NULL      -0.01672300       0.02375400       0.03022900
P        1.19959433      10.91806253       1.78302523       0.00000000 NULL       0.08420500       0.00494100       0.08870900
P        4.62760797       5.64142665       8.56380580       0.00000000 NULL       0.08420000      -0.07929700      -0.04007500
P        2.91360115       2.40741636       0.60371480       0.00000000 NULL       0.08420300       0.07435300      -0.04863600
P        4.88384723       0.41524555       6.62098523       0.00000000 NULL       0.00845000      -0.07844200      -0.06783600
P        3.16984040       0.38073767       7.99966642       0.00000000 NULL       0.00845100       0.09796800      -0.03401600
P        1.45583358      -0.79598133       7.28044112       0.00000000 NULL       0.00845300      -0.01952600       0.10185200
P       -0.12032364       3.25351416       0.80515459       0.00000000 NULL      -0.11435000      -0.03553900       0.02974500
P        3.30769001      10.32056166       2.41504752       0.00000000 NULL      -0.11435000      -0.00799300      -0.04565000
P        1.59368318       5.39282973       7.73034372       0.00000000 NULL      -0.11434600       0.04353000       0.01590500
P        0.72176594       7.56182972       5.75277701       0.00000000 NULL      -0.04770800      -0.06284500      -0.05054400
P        4.14977958       3.88163718       3.67234704       0.00000000 NULL      -0.04771100       0.07519700      -0.02915300
P        2.43577276       7.52343865       1.52542179       0.00000000 NULL      -0.04770900      -0.01235000       0.07969800
P        3.13806420       9.40083347       4.45702709       0.00000000 NULL       0.07845900      -0.00978800       0.05128900
P        1.42405737       4.08428765       5.91284595       0.00000000 NULL       0.07846300      -0.03952400      -0.03412100
P        4.85207102       5.48178444       0.58067278       0.00000000 NULL       0.07845900       0.04931200      -0.01716800
P        2.24022392       3.92588134       2.17292949       0.00000000 NULL      -0.05921600       0.01574900       0.02327900
P        0.52621710       8.79985026       2.31344713       0.00000000 NULL      -0.05921500      -0.02803500       0.00200000
P        3.95423075       6.24117395       6.46416922       0.00000000 NULL      -0.05921800       0.01228600      -0.02527900
P        2.88700663       4.21682799       9.08205638       0.00000000 NULL       0.08183600      -0.07321700       0.05271000
P        1.17299981      -3.65140369      10.06139781       0.00000000 NULL       0.08183700      -0.00904000      -0.08976400
P       -0.54100702      -0.56542241       2.75763858       0.00000000 NULL       0.08183600       0.08226100       0.03705400
P        3.96245204       2.62793157      11.67492499       0.00000000 NULL       0.07577600       0.13248200       0.08040200
P        2.24844522      -5.10244557       7.38893884       0.00000000 NULL       0.07577700      -0.13587300       0.07453200
P        5.67645886       2.47451589       2.83722894       0.00000000 NULL       0.07577800       0.00338900      -0.15493500
P        3.29669856       7.24256659       3.56976349       0.00000000 NULL       0.02554000      -0.14531400       0.15574100
P        1.58269173       5.93181391       4.48736381       0.00000000 NULL       0.02554100      -0.06221800      -0.20371600
P        5.01070538       5.79252506       2.89341853       0.00000000 NULL       0.02553900       0.20753200       0.04797500
P        4.38538604       3.95746720       5.92546988       0.00000000 NULL      -0.11627300      -0.07976200       0.01912500
P        2.67137921       5.53426202       0.46453109       0.00000000 NULL      -0.11626900       0.02331800      -0.07863700
P        0.95737239       9.47517633       4.56054486       0.00000000 NULL      -0.11626900       0.05644300       0.05951300
33
Lattice="5.148156863858045 2.978810855510991e-39 -2.4132284049158624e-38 2.570884971440747e-39 12.61089549709913 -7.605807391259484e-14 4.0347796834605843e-38 -6.305447748549497 10.92135586495867" Properties=species:S:1:pos:R:3:initial_magmoms:R:1:castep_labels:S:1:forces:R:3 n_minim_iter=6 energy=-174.458326549169 stress="-0.0006132890603774285 -0.0 -0.0 -0.0 -0.00040079219311959895 -0.0 -0.0 -0.0 -0.0004007780896572469" free_energy=-174.458326549169 pbc="T T T"
P        0.36454693      -5.75123452      10.24822525       0.00000000 NULL      -0.01261700      -0.00783500      -0.01746300
P        3.79665151       0.30584222       0.81652695       0.00000000 NULL      -0.01261500       0.01904500       0.00194500
P        2.08059922       5.44539418      10.77795843       0.00000000 NULL      -0.01261600      -0.01120900       0.01551900
P        1.20462262      10.89210913       1.79192443       0.00000000 NULL       0.00629500       0.02637600       0.04174200
P        4.63672720       5.61298948       8.53687990       0.00000000 NULL       0.00629600      -0.04934000       0.00197100
P        2.92067491       2.41124651       0.59255043       0.00000000 NULL       0.00629500       0.02296300      -0.04371400
P        4.89313223       0.39224193       6.59038820       0.00000000 NULL       0.00763400      -0.07249100      -0.06893000
P        3.17707994       0.40188380       7.96585214       0.00000000 NULL       0.00763400       0.09594000      -0.02831300
P        1.46102766      -0.79412385       7.28647028       0.00000000 NULL       0.00763300      -0.02345000       0.09724300
P       -0.13298374       3.24219522       0.79239003       0.00000000 NULL       0.06069800       0.04080000      -0.08430400
P        3.29912084      10.30356861       2.41162732       0.00000000 NULL       0.06069600       0.05260600       0.07748500
P        1.58306855       5.37058129       7.71733742       0.00000000 NULL       0.06069700      -0.09340900       0.00681800
P        0.72372605       7.52658767       5.73365688       0.00000000 NULL       0.00993400      -0.05637400      -0.03303300
P        4.15583063       3.88210977       3.65138659       0.00000000 NULL       0.00993500       0.05679400      -0.03230500
P        2.43977834       7.50764768       1.53631129       0.00000000 NULL       0.00993400      -0.00042000       0.06533800
P        3.14502897       9.39728741       4.46336857       0.00000000 NULL      -0.02874500      -0.03708700       0.02846400
P        1.42897668       4.04686185       5.90660424       0.00000000 NULL      -0.02874600      -0.00610700      -0.04635000
P        4.86108126       5.47219587       0.55138195       0.00000000 NULL      -0.02874500       0.04319400       0.01788700
P        2.25574015       3.92543862       2.17190866       0.00000000 NULL      -0.06927800       0.02631200       0.00177600
P        0.53968786       8.76724873       2.31357415       0.00000000 NULL      -0.06927800      -0.01469400       0.02189800
P        3.97179244       6.22365777       6.43587196       0.00000000 NULL      -0.06927800      -0.01161800      -0.02367500
P        2.89387381       4.19339678       9.07066944       0.00000000 NULL       0.00860700      -0.02407500      -0.00767100
P        1.17782152      -3.64668019      10.01760819       0.00000000 NULL       0.00860700       0.01868100      -0.01701300
P       -0.53823076      -0.54671471       2.75443300       0.00000000 NULL       0.00860800       0.00539800       0.02468600
P        3.98132561       2.63149399      11.66602862       0.00000000 NULL       0.01155800       0.07511400       0.04298800
P        2.26527332      -5.11337577       7.36728111       0.00000000 NULL       0.01155800      -0.07478600       0.04355700
P        5.69737790       2.48188366       2.80940091       0.00000000 NULL       0.01155700      -0.00032800      -0.08654500
P        3.28046556       7.21825835       3.59406944       0.00000000 NULL       0.04578100      -0.07792000       0.07884700
P        1.56441328       5.88921150       4.45415928       0.00000000 NULL       0.04578000      -0.02932400      -0.10690500
P        4.99651785       5.80887527       2.87312604       0.00000000 NULL       0.04578100       0.10724400       0.02805800
P        4.38207869       3.93971108       5.91041814       0.00000000 NULL      -0.03986600      -0.09332400      -0.01382000
P        2.66602641       5.52246832       0.45667971       0.00000000 NULL      -0.03986700       0.05863000      -0.07391100
P        0.94997412       9.45416573       4.55425691       0.00000000 NULL      -0.03986700       0.03469300       0.08773100
33
Lattice="5.158828666311554 3.0551281400830573e-39 -2.429314917836476e-38 2.7774290064751064e-39 12.58623605468839 -7.251070730812447e-14 3.988946074857592e-38 -6.29311802734413 10.90000016138781" Properties=species:S:1:pos:R:3:initial_magmoms:R:1:castep_labels:S:1:forces:R:3 n_minim_iter=7 energy=-174.492952960021 stress="-0.0003496624989735358 -0.0 -0.0 -0.0 -0.0003886881514633288 0.0 -0.0 0.0 -0.0003886881514633288" free_energy=-174.492952960021 pbc="T T T"
P        0.36298285      -5.74643447      10.22133399       0.00000000 NULL      -0.01716200      -0.00347700      -0.00439300
P        3.80220196       0.31440099       0.81277384       0.00000000 NULL      -0.01716100       0.00554300      -0.00081500
P        2.08259240       5.43203536      10.76589139       0.00000000 NULL      -0.01716200      -0.00206600       0.00520700
P        1.20778810      10.87801940       1.80305825       0.00000000 NULL       0.04389700      -0.00644900       0.06947400
P        4.64700721       5.58573272       8.51911093       0.00000000 NULL       0.04390000      -0.05694100      -0.04032200
P        2.92739766       2.41560383       0.57782988       0.00000000 NULL       0.04389800       0.06339000      -0.02915100
P        4.90759359       0.36125136       6.55654832       0.00000000 NULL       0.00856200      -0.09112000      -0.01233600
P        3.18798403       0.43435557       7.93457776       0.00000000 NULL       0.00856100       0.05624300      -0.07274400
P        1.46837447      -0.79560505       7.30887314       0.00000000 NULL       0.00855900       0.03487700       0.08508000
P       -0.12313481       3.24409767       0.76076983       0.00000000 NULL      -0.13833100       0.09882500       0.07430400
P        3.31608430      10.30534184       2.42908498       0.00000000 NULL      -0.13833200      -0.11376200       0.04843300
P        1.59647475       5.32991645       7.71014425       0.00000000 NULL      -0.13833400       0.01493700      -0.12273700