16
Lattice="6.250529982621639 -1.070764364184862 -0.6438489838479023 0.5826867172608737 6.756903977005176 0.21957530615866586 0.5468894332507126 3.345199006380319 7.318310282691594" Properties=species:S:1:pos:R:3:initial_magmoms:R:1:castep_labels:S:1:forces:R:3 n_minim_iter=1 energy=-82.736701992895 stress="0.0017533736207116474 0.002360042699616549 0.0004575658810432665 0.002360042699616549 0.0005137819472065437 0.0010455285237033602 0.0004575658810432665 0.0010455285237033602 -0.0006820108635046813" free_energy=-82.736701992895 pbc="T T T"
P        4.94713401       3.93069232       4.75096457       0.00000000 NULL       0.06653500       0.36555500       0.52602400
P        6.11819755       0.47249500       2.91461214       0.00000000 NULL      -0.64875100      -0.49740800      -0.25418900
P        3.84053535       3.72701209       2.81795031       0.00000000 NULL       0.36869400       0.26816000      -0.04913700
P        6.49638497       5.71306756       5.21245095       0.00000000 NULL       0.05316400      -0.44865000      -0.14525700
P        6.59799788       2.27724006       4.07354582       0.00000000 NULL       0.30695800       0.58426900      -0.17957100
P        3.35913444       5.29137408       1.18944785       0.00000000 NULL      -0.17153400      -0.34965300       0.21403900
P        3.07942889       0.66700433       1.26012938       0.00000000 NULL       0.01165100       0.47462900       0.11468100
P        5.92074931       1.53402638       0.18154996       0.00000000 NULL      -0.07971000      -0.21361800      -0.59860600
P        2.27808824       4.52019978       6.96894778       0.00000000 NULL      -0.48565300      -0.12920200      -0.01595300
P        5.53730806       4.62417007       1.46221566       0.00000000 NULL       0.13042900       0.36716700       0.33444700
P        4.98421651       7.27482560       5.64836405       0.00000000 NULL      -0.11849000      -0.56592800       0.15015700
P        1.97807504       1.56182605       3.02176018       0.00000000 NULL       0.39643500       0.32840100       0.23267400
P        7.02896835       8.53087382       6.48792239       0.00000000 NULL       0.06381800      -0.05147400      -0.79062800
P        4.35053663       3.17518179       0.42260082       0.00000000 NULL      -0.74008200      -0.60093400      -0.08543900
P        0.96570541       3.72561156       2.15374143       0.00000000 NULL       0.48410700      -0.10763200       0.49037500
P        3.16417109       5.31029504       5.11404891       0.00000000 NULL       0.36242800       0.57631600       0.05638200
16
Lattice="6.148990442407086 -1.2437181506031387 -0.6707303047359235 0.3652432657069336 6.695308919910489 0.12718923442995192 0.39258074710637775 3.2097790207092842 7.335881807938051" Properties=species:S:1:pos:R:3:initial_magmoms:R:1:castep_labels:S:1:forces:R:3 n_minim_iter=2 energy=-82.900627739661 stress="-0.00751050865281106 -0.010644035400848205 -0.004068175726055598 -0.010644035400848205 -0.006496419449926156 -0.005151927388873121 -0.004068175726055598 -0.005151927388873121 -0.0036054273627224736" free_energy=-82.900627739661 pbc="T T T"
P        4.69518064       3.70866116       4.73452920       0.00000000 NULL      -0.39773800      -0.07807400       0.35063700
P        5.92706134       0.22648736       2.88937691       0.00000000 NULL      -0.64249100      -0.50978600      -0.14695100
P        3.64263841       3.56147376       2.76891135       0.00000000 NULL       0.41126000       0.19009300      -0.00820500
P        6.15473303       5.39392004       5.13949638       0.00000000 NULL       0.47664400       0.15784200      -0.01814700
P        6.37308561       2.03388185       4.03398857       0.00000000 NULL       0.19490400       0.65187500       0.05534900
P        3.11262446       5.12762435       1.11900674       0.00000000 NULL      -0.15041900      -0.56997500       0.06203900
P        2.98433525       0.57291129       1.24952785       0.00000000 NULL      -0.16227200       0.43109200       0.20148500
P        5.74051778       1.33559842       0.10375874       0.00000000 NULL      -0.32299500      -0.23086600      -0.96019000
P        2.03265073       4.32548455       6.95722374       0.00000000 NULL      -0.39268200       0.02961100       0.21696200
P        5.27285121       4.42456603       1.39543798       0.00000000 NULL       0.59410300       0.74213500       0.46155900
P        4.61938715       6.98100006       5.57943953       0.00000000 NULL      -0.29064900      -0.93043000       0.19030000
P        1.88613289       1.46507972       3.02615525       0.00000000 NULL       0.50321400       0.34245900       0.13796900
P        6.58363017       8.17821743       6.35799301       0.00000000 NULL       0.53005300       0.16096600      -0.64633300
P        4.12743470       2.99524148       0.35579877       0.00000000 NULL      -0.83150900      -0.88103700      -0.44732400
P        0.83989558       3.63950667       2.13802564       0.00000000 NULL       0.43643800       0.19818100       0.65087100
P        2.91976956       5.13729433       5.07242758       0.00000000 NULL       0.04414000       0.29591400      -0.10002200
16
Lattice="6.1289892392706 -1.2763591288936433 -0.6592470095615695 0.3363005720403384 6.7425232949575795 0.12442818099123625 0.3998540880928734 3.223837215840515 7.439166772029899" Properties=species:S:1:pos:R:3:initial_magmoms:R:1:castep_labels:S:1:forces:R:3 n_minim_iter=3 energy=-83.067832905043 stress="0.002640348190409524 -0.008755541838886426 -0.0018684406437841886 -0.008755541838886426 0.007158420357903666 -0.0030248140427053976 -0.0018684406437841886 -0.0030248140427053976 0.011923358029749323" free_energy=-83.067832905043 pbc="T T T"
P        4.67561416       3.72377195       4.83461033       0.00000000 NULL      -0.55431000      -0.14723600       0.05855900
P        5.88799451       0.18271096       2.94036804       0.00000000 NULL      -0.26971800      -0.08763100       0.09487800
P        3.63669963       3.57983633       2.81525763       0.00000000 NULL       0.52087300       0.19967000       0.04767500
P        6.12968122       5.38908554       5.22327848       0.00000000 NULL       0.48773700       0.32234300       0.06571200
P        6.36315296       2.04285928       4.10427402       0.00000000 NULL       0.01092700       0.21699800       0.01236600
P        3.07690640       5.13616244       1.14881705       0.00000000 NULL      -0.01727300      -0.43394900       0.11374100
P        2.97312122       0.58277103       1.28158357       0.00000000 NULL      -0.32749700       0.22020400       0.06494800
P        5.70946268       1.31452434       0.09583483       0.00000000 NULL      -0.02741300       0.12135400      -0.67851700
P        2.00965247       4.33809717       7.06047575       0.00000000 NULL      -0.24144800       0.10848200       0.34052900
P        5.24588369       4.45104307       1.44298400       0.00000000 NULL       0.14990100       0.22677000       0.08733400
P        4.58501195       6.98273362       5.67506807       0.00000000 NULL      -0.26607100      -0.99130900       0.29222800
P        1.89765480       1.47760953       3.08293496       0.00000000 NULL       0.22954000       0.40159000       0.01263000
P        6.54932227       8.20456649       6.43146079       0.00000000 NULL       0.58700800       0.19987700      -0.68648200
P        4.07204163       2.97571278       0.36636370       0.00000000 NULL      -0.32991900      -0.34402900      -0.13850800
P        0.84659910       3.65696377       2.18940582       0.00000000 NULL       0.09574500      -0.17328500       0.34602500
P        2.91407698       5.17879325       5.15086114       0.00000000 NULL      -0.04808400       0.16014900      -0.03311900
16
Lattice="6.03896870230221 -1.2354883172357303 -0.6309354699456095 0.36284204127540387 6.6779160351654845 0.13243395125303484 0.4363944934140428 3.201667007757416 7.373085465911507" Properties=species:S:1:pos:R:3:initial_magmoms:R:1:castep_labels:S:1:forces:R:3 n_minim_iter=4 energy=-83.22263962275 stress="-0.011844760497818433 -0.005287598920279084 0.0007930629455043589 -0.005287598920279084 -0.005000355145396129 -0.000354106850973028 0.0007930629455043589 -0.000354106850973028 -0.003372540126445251" free_energy=-83.22263962275 pbc="T T T"
P        4.64508408       3.72523221       4.83023703       0.00000000 NULL      -0.47047900      -0.50025900       0.03462300
P        5.79656531       0.19353198       2.92644896       0.00000000 NULL      -0.20153300       0.04458300       0.07684500
P        3.63075075       3.57499869       2.80477142       0.00000000 NULL       0.46191300       0.04440200       0.35197400
P        6.09799035       5.35766045       5.19842895       0.00000000 NULL       0.84965300       0.30391800       0.00559300
P        6.31248363       2.08032075       4.08546443       0.00000000 NULL      -0.02130900       0.08972200      -0.28289300
P        3.05772319       5.08488665       1.16417349       0.00000000 NULL      -0.25587800      -0.16310800      -0.04721000
P        2.93806758       0.61142951       1.28624820       0.00000000 NULL      -0.23222600       0.08406900       0.03866100
P        5.63575799       1.32195161       0.08972297       0.00000000 NULL       0.29122800      -0.04882500      -0.46450300
P        2.00981081       4.30920902       7.00797476       0.00000000 NULL      -0.31301100       0.09337500       0.31029300
P        5.20811549       4.44969590       1.46812320       0.00000000 NULL       0.23543400       0.07567400      -0.17609300
P        4.57096144       6.91318466       5.65461092       0.00000000 NULL      -0.52841500      -0.59925500       0.05215400
P        1.90588637       1.48923304       3.07073418       0.00000000 NULL       0.10837200       0.39177000       0.20684400
P        6.52996292       8.16169479       6.37044095       0.00000000 NULL       0.67373200       0.17460400      -0.38226400
P        4.00434322       2.94148485       0.37666797       0.00000000 NULL      -0.17981700      -0.05032100       0.18853300
P        0.87799316       3.62249860       2.19766591       0.00000000 NULL      -0.01372800      -0.23518300       0.21399000
P        2.92851192       5.16801162       5.11965732       0.00000000 NULL      -0.40393400       0.29483400      -0.12654600
16
Lattice="6.145000474795325 -1.2052947452152796 -0.6742857350623901 0.38833880279208605 6.626411980688768 0.06756975615062392 0.3855711650479265 3.115764816139504 7.268352514557224" Properties=species:S:1:pos:R:3:initial_magmoms:R:1:castep_labels:S:1:forces:R:3 n_minim_iter=5 energy=-83.294952432715 stress="-0.0012013537494086571 -0.005233619300864016 -0.0034640694500059116 -0.005233619300864016 -0.007221937696610816 -0.003111564415443667 -0.0034640694500059116 -0.003111564415443667 -0.008106210859322232" free_energy=-83.294952432715 pbc="T T T"
P        4.68661354       3.66865534       4.71359327       0.00000000 NULL      -0.35013500      -0.58764900       0.16200300
P        5.85586416       0.17475706       2.83530203       0.00000000 NULL       0.15579300       0.03056900      -0.05045700
P        3.69219738       3.53863655       2.71269508       0.00000000 NULL       0.47808300       0.11683700       0.19248400
P        6.18305683       5.28276449       5.03608413       0.00000000 NULL       0.53946300       0.33482700       0.02011200
P        6.39480497       2.05714891       3.95567051       0.00000000 NULL      -0.15761700       0.10064800      -0.27904500
P        3.10942492       5.03501239       1.08114669       0.00000000 NULL      -0.11451500      -0.14473400      -0.02586800
P        2.97480150       0.61353141       1.24084575       0.00000000 NULL      -0.17193400       0.06331600       0.07988500
P        5.73962305       1.32238197       0.00273026       0.00000000 NULL       0.29549900      -0.18546900      -0.30680100
P        1.97949953       4.22110129       6.88574774       0.00000000 NULL      -0.31975300       0.10509200       0.12493600
P        5.30105362       4.42223251       1.36440136       0.00000000 NULL      -0.10112000       0.02937700      -0.02366300
P        4.61047967       6.80391772       5.49702969       0.00000000 NULL      -0.43573300      -0.40074000      -0.22210400
P        1.92260945       1.46860611       3.01507791       0.00000000 NULL      -0.28302800       0.48275000       0.24205100
P        6.61863078       8.06309344       6.14707514       0.00000000 NULL       0.61839100       0.10399700      -0.09013600
P        4.06383805       2.91562271       0.30907789       0.00000000 NULL       0.06670700      -0.10544700       0.06202700
P        0.89241021       3.57053003       2.14701714       0.00000000 NULL       0.04491800      -0.15508200       0.21338100
P        2.94913196       5.10779271       4.99366497       0.00000000 NULL      -0.26502100       0.21170900      -0.09880700
16
Lattice="6.055239241540141 -1.1558597965399333 -0.6912006369172051 0.4256010958812039 6.621239557963314 0.006122269087395637 0.3775487432959859 3.0488970283596455 7.313337419818878" Properties=species:S:1:pos:R:3:initial_magmoms:R:1:castep_labels:S:1:forces:R:3 n_minim_iter=6 energy=-83.408259444524 stress="-0.007938883340323222 -0.0010541529232608148 -0.006123054178478789 -0.0010541529232608148 -0.010675735093550008 -0.007473985902670385 -0.006123054178478789 -0.007473985902670385 -0.002037186487204582" free_energy=-83.408259444524 pbc="T T T"
P        4.61841314       3.64003768       4.72799726       0.00000000 NULL      -0.12139600      -0.49795000       0.08834300
P        5.75997744       0.18615768       2.83978386       0.00000000 NULL       0.06866800      -0.01486600       0.06700100
P        3.68566328       3.54444279       2.70663982       0.00000000 NULL       0.43121200       0.23322100      -0.00032300
P        6.14272914       5.27347986       5.01504138       0.00000000 NULL       0.39630700       0.13705000       0.04956300
P        6.30881725       2.07349386       3.93441888       0.00000000 NULL      -0.14185300      -0.12065000      -0.03892800
P        3.08655361       5.03098822       1.04149455       0.00000000 NULL      -0.27419200       0.02090600       0.09760800
P        2.92495371       0.63311151       1.24012626       0.00000000 NULL      -0.13286700      -0.04569900       0.13060400
P        5.68825617       1.35480329      -0.05192022       0.00000000 NULL       0.47601800      -0.24995600      -0.42511300
P        1.93441151       4.16905403       6.92007710       0.00000000 NULL      -0.28504400       0.13367400       0.08016500
P        5.24603045       4.44023087       1.31597791       0.00000000 NULL       0.05291400       0.08889800       0.10119500
P        4.55360373       6.74768598       5.47600096       0.00000000 NULL      -0.56430900      -0.25360100      -0.02726000
P        1.89242903       1.48118488       3.04037376       0.00000000 NULL      -0.17873500       0.43405800       0.14547700
P        6.58681520       8.04669273       6.08330259       0.00000000 NULL       0.67905600       0.19891900      -0.15094200
P        4.01688238       2.93097220       0.28427730       0.00000000 NULL      -0.03261400       0.00157100      -0.30061700
P        0.90401982       3.53284799       2.14881158       0.00000000 NULL       0.11257900      -0.25569600       0.29608400
P        2.92074814       5.10242763       4.98603591       0.00000000 NULL      -0.48574400       0.19011900      -0.11285700
16
Lattice="5.9824363151328965 -1.2099696603569783 -0.6430750091888247 0.3757152878613929 6.694330542885653 0.017605228951467336 0.4040194916749539 3.0917978394650865 7.294924226591695" Properties=species:S:1:pos:R:3:initial_magmoms:R:1:castep_labels:S:1:forces:R:3 n_minim_iter=7 energy=-83.626780856818 stress="-0.010438146459049592 -0.0060277367133329965 -0.005139461421407625 -0.0060277367133329965 -0.006640620999873202 -0.0054348102544056216 -0.005139461421407625 -0.0054348102544056216 -0.010443752210967916" free_energy=-83.626780856818 pbc="T T T"
P        4.54735482       3.62940022       4.78118362       0.00000000 NULL       0.08728200      -0.14999400       0.17319000
P        5.69323510       0.15041358       2.87091557       0.00000000 NULL      -0.05278300       0.10201600       0.01929100
P        3.69314376       3.58439051       2.75045495       0.00000000 NULL       0.09577800       0.08235100       0.10875900
P        6.11528331       5.29899483       5.04688760       0.00000000 NULL      -0.16357900       0.09870800       0.00462800
P        6.24360305       2.07796376       3.93323382       0.00000000 NULL      -0.32446800      -0.23775300      -0.09449600
P        3.00129537       5.05339088       1.08147373       0.00000000 NULL      -0.18640900       0.01745400       0.07859600
P        2.87504934       0.64261692       1.26445617       0.00000000 NULL      -0.14651300      -0.19243900       0.14968400
P        5.64850436       1.32091622      -0.05053156       0.00000000 NULL       0.34870900      -0.11606900      -0.26211700
P        1.88553073       4.21850673       6.93286236       0.00000000 NULL      -0.19258100       0.18804400       0.17839100
P        5.14588822       4.45483120       1.35061162       0.00000000 NULL       0.41910500       0.36717500      -0.03385400
P        4.44783240       6.74546474       5.50277480       0.00000000 NULL      -0.27456000      -0.19103600      -0.05174900
P        1.87070031       1.54781596       3.07369402       0.00000000 NULL       0.02195400       0.37000500       0.06731700
P        6.54551511       8.11120905       6.06474540       0.00000000 NULL       0.82582300       0.20867800       0.03520100
P        3.93310400       2.92990107       0.33912270       0.00000000 NULL      -0.03255000      -0.09741600      -0.23159300
P        0.89901577       3.52672575       2.18362295       0.00000000 NULL       0.08164600      -0.21444600       0.05663300
P        2.87050159       5.19938262       4.99359538       0.00000000 NULL      -0.50685500      -0.23527800      -0.19788300
16
Lattice="6.004899170799509 -1.2132758754311068 -0.5913390353996193 0.3559149319283927 6.552794220470439 0.05749091700679419 0.4709122955091006 3.0535563970540527 7.417963000826993" Properties=species:S:1:pos:R:3:initial_magmoms:R:1:castep_labels:S:1:forces:R:3 n_minim_iter=8 energy=-83.693510840188 stress="-0.010290435187175111 -0.006919179400857851 -0.002266057084887182 -0.006919179400857851 -0.016469811705436408 -0.0059290942718731926 -0.002266057084887182 -0.0059290942718731926 -0.005444689041620964" free_energy=-83.693510840188 pbc="T T T"
P        4.60110688       3.54597166       4.93368948       0.00000000 NULL      -0.02892400      -0.34143000      -0.10999300
P        5.73868986       0.13488014       2.97405808       0.00000000 NULL      -0.08446500       0.09258400       0.04584500
P        3.74863874       3.51344465       2.85896330       0.00000000 NULL       0.09101400       0.00616100       0.40049200
P        6.18578490       5.17653414       5.21140986       0.00000000 NULL      -0.32846800       0.12133800       0.01596500
P        6.29931152       2.02329621       4.05088651       0.00000000 NULL      -0.19227800      -0.06972500       0.02088500
P        2.99887336       4.93419317       1.16587194       0.00000000 NULL      -0.23878000      -0.18206300       0.13640500
P        2.88976952       0.62578192       1.32141332       0.00000000 NULL      -0.32421500       0.06086700       0.03710700
P        5.69008661       1.26430254       0.00086411       0.00000000 NULL       0.44484500      -0.14520500      -0.21143900
P        1.93039553       4.15260684       7.08181836       0.00000000 NULL       0.14121300       0.21956200       0.35625800
P        5.16461495       4.34599325       1.44460401       0.00000000 NULL       0.50517700       0.50112900      -0.19743700
P        4.48447251       6.58256093       5.66676934       0.00000000 NULL      -0.23949700       0.13865900       0.18533600
P        1.90249271       1.54719081       3.15696995       0.00000000 NULL       0.13123700       0.17310900       0.01857700
P        6.63848382       7.94022294       6.24020627       0.00000000 NULL       0.80167600       0.16673300      -0.07336000
P        3.93754851       2.85060092       0.41158283       0.00000000 NULL       0.05781200      -0.20411900      -0.27686800
P        0.92149457       3.43329382       2.25329205       0.00000000 NULL      -0.24008700      -0.12702800      -0.13685900
P        2.90774425       5.11371685       5.12016582       0.00000000 NULL      -0.49625900      -0.41057200      -0.21091500
16
Lattice="5.946265512541408 -1.2117890938777653 -0.6389853482070671 0.36044700289870335 6.569199448280106 0.1279153188130171 0.43485725866116354 3.1384246120643504 7.510447576056005" Properties=species:S:1:pos:R:3:initial_magmoms:R:1:castep_labels:S:1:forces:R:3 n_minim_iter=9 energy=-83.821351072795 stress="-0.014060435278170559 -0.004569576278143328 -0.0066804583473295985 -0.004569576278143328 -0.017781222608465104 -0.0020462366232878726 -0.0066804583473295985 -0.0020462366232878726 -0.005412710019357731" free_energy=-83.821351072795 pbc="T T T"
P        4.54300780       3.61359107       5.01375925       0.00000000 NULL      -0.22065500      -0.41351900      -0.06232600
P        5.64939387       0.18376726       2.96855169       0.00000000 NULL      -0.05461000       0.15687100       0.03977800
P        3.73525546       3.57331042       2.93250418       0.00000000 NULL       0.20358900      -0.03954500       0.15610400
P        6.08668347       5.23714738       5.27376383       0.00000000 NULL      -0.14708400       0.24882300       0.06599300
P        6.20822157       2.07691077       4.04434609       0.00000000 NULL      -0.15038100      -0.08801900       0.05825700
P        2.95059716       4.95137502       1.24004795       0.00000000 NULL      -0.22905000      -0.16170000      -0.01699400
P        2.83373498       0.65598168       1.32889047       0.00000000 NULL      -0.19208600       0.04298600       0.31896500
P        5.68512767       1.27115738      -0.03811979       0.00000000 NULL       0.21130900      -0.12468300      -0.15359300
P        1.85693028       4.24865715       7.20088293       0.00000000 NULL       0.25930600       0.32769600       0.13011300
P        5.11687578       4.39491945       1.45510306       0.00000000 NULL       0.36947700       0.39597600      -0.16305100
P        4.39887232       6.63768902       5.77575880       0.00000000 NULL      -0.30736500       0.30951800       0.15663500
P        1.87333826       1.63430348       3.20676889       0.00000000 NULL       0.34155400      -0.23977600       0.07346200
P        6.61308287       8.04001452       6.29703272       0.00000000 NULL       0.66251000       0.00439600      -0.01994800
P        3.89384547       2.86131467       0.43827174       0.00000000 NULL       0.12323900      -0.08971200      -0.14923300
P        0.90950931       3.41808367       2.30569062       0.00000000 NULL      -0.32319800       0.16405200      -0.27869400
P        2.84311970       5.19289916       5.19677872       0.00000000 NULL      -0.54655700      -0.49336400      -0.15547100
16
Lattice="5.920885572326879 -1.2060173619064563 -0.5730065787920029 0.36795994958738576 6.6027864611081375 0.08489021237852888 0.5048971497196524 3.1036925616645124 7.489783729385217" Properties=species:S:1:pos:R:3:initial_magmoms:R:1:castep_labels:S:1:forces:R:3 n_minim_iter=10 energy=-83.888195357916 stress="-0.014316810630431182 -0.002943375360105224 -0.0037977379155264266 -0.002943375360105224 -0.016730460920558594 -0.005321255346171073 -0.0037977379155264266 -0.005321255346171073 -0.005377480313708289" free_energy=-83.888195357916 pbc="T T T"
P        4.58041987       3.60408134       5.04173769       0.00000000 NULL      -0.27715600      -0.45265300      -0.12800300
P        5.64991679       0.17675951       3.01846956       0.00000000 NULL      -0.01634700       0.12548300      -0.03468200
P        3.77169386       3.58357215       2.95604876       0.00000000 NULL       0.11123600       0.02473400       0.09838500
P        6.10988605       5.22892810       5.29028179       0.00000000 NULL       0.00085600       0.21288700      -0.00029600
P        6.22199680       2.06584375       4.07278035       0.00000000 NULL      -0.13463400      -0.02633500       0.15605200
P        2.94942355       4.96529373       1.24479706       0.00000000 NULL      -0.16817900      -0.17211800       0.11617600
P        2.82704949       0.65931627       1.35577533       0.00000000 NULL      -0.14901400      -0.04841200       0.15334100
P        5.69194372       1.28327816      -0.00358443       0.00000000 NULL       0.07659700      -0.01618700      -0.18457000
P        1.91054957       4.22996900       7.19716214       0.00000000 NULL       0.42466600       0.17087200       0.05469600
P        5.12130526       4.42248785       1.45993129       0.00000000 NULL       0.31371300       0.33769200      -0.14434700
P        4.43440711       6.62695174       5.77592301       0.00000000 NULL      -0.32112800       0.35884200       0.24333200
P        1.90295521       1.64260029       3.22032548       0.00000000 NULL       0.29723500      -0.22772300       0.10411300
P        6.68872958       8.04796933       6.27719541       0.00000000 NULL       0.62776200      -0.05610800       0.01991300
P        3.88731228       2.87449827       0.46230971       0.00000000 NULL       0.10060500      -0.00494200      -0.09668000
P        0.93096488       3.39972342       2.28639865       0.00000000 NULL      -0.33768300       0.24132500      -0.24880500
P        2.87831402       5.18903926       5.18214275       0.00000000 NULL      -0.54852900      -0.46735600      -0.10862600
16
Lattice="5.895103917829353 -1.2765997697366573 -0.49902753015401613 0.29847661871348624 6.581400892570443 0.18474044269060613 0.5842811171065556 3.182705110813555 7.676781506762234" Properties=species:S:1:pos:R:3:initial_magmoms:R:1:castep_labels:S:1:forces:R:3 n_minim_iter=11 energy=-84.089042431097 stress="-0.011152600032133782 -0.003464014421381644 -0.0013203836135909617 -0.003464014421381644 -0.010868751713456776 -0.003725358484495773 -0.0013203836135909617 -0.003725358484495773 0.0027552978135287095" free_energy=-84.089042431097 pbc="T T T"
P        4.55736040       3.59140316       5.29952533       0.00000000 NULL      -0.36341700      -0.41883000      -0.30622300
P        5.63728261       0.17961208       3.13735589       0.00000000 NULL       0.31940900       0.37713400       0.00256900
P        3.83073970       3.60094545       3.15620132       0.00000000 NULL      -0.03292800      -0.27915500       0.28053700
P        6.08164001       5.20479147       5.53975954       0.00000000 NULL      -0.14363300       0.37417100       0.18705400
P        6.20587162       2.05481292       4.24004214       0.00000000 NULL       0.05114100       0.01696400       0.26588900
P        2.89143047       4.87779042       1.45074338       0.00000000 NULL      -0.42966700      -0.12280300      -0.01272900
P        2.79167059       0.65596208       1.45916517       0.00000000 NULL      -0.13413300       0.11258700       0.28075300
P        5.68097465       1.24320364       0.06329668       0.00000000 NULL       0.03123500      -0.12077300      -0.20822900
P        1.98248307       4.29973971       7.43498471       0.00000000 NULL       0.33135800       0.16715300      -0.11196700
P        5.05727978       4.40101070       1.57725601       0.00000000 NULL       0.85012400       0.51117300      -0.24668500
P        4.38913358       6.61108013       6.09713683       0.00000000 NULL      -0.16426200       0.18306100       0.24147500
P        1.97119771       1.68587404       3.38854780       0.00000000 NULL      -0.13561300       0.10809900      -0.25282100
P        6.78747926       7.99273047       6.52778175       0.00000000 NULL       0.44998200      -0.22149500      -0.06751300
P        3.84849829       2.82333637       0.64515562       0.00000000 NULL       0.00355800      -0.25227800      -0.38174700
P        0.89190979       3.38280416       2.34046750       0.00000000 NULL      -0.27476100      -0.13821900       0.07656500
P        2.85528749       5.17823022       5.39765778       0.00000000 NULL      -0.35839400      -0.29679000       0.25307100
16
Lattice="5.903385404655757 -1.355079975418797 -0.43994382417886574 0.21757959244866923 6.539727736513343 0.2646617010216552 0.635940370033754 3.2328470962729727 7.824048049002107" Properties=species:S:1:pos:R:3:initial_magmoms:R:1:castep_labels:S:1:forces:R:3 n_minim_iter=12 energy=-84.271417973093 stress="-0.005807543092315194 -0.005725509163459781 0.0009275223050878527 -0.005725509163459781 -0.007897944574612575 -0.0017796638791187844 0.0009275223050878527 -0.0017796638791187844 0.008261941026168104" free_energy=-84.271417973093 pbc="T T T"
P        4.52131394       3.53766542       5.49888506       0.00000000 NULL      -0.37736600      -0.32308300      -0.29290000
P        5.67726618       0.18499372       3.21432478       0.00000000 NULL       0.07779300       0.31471400       0.00132700
P        3.88351954       3.56515321       3.33441363       0.00000000 NULL       0.02670300      -0.16587400      -0.15671100
P        6.04374588       5.16086536       5.74691899       0.00000000 NULL      -0.20458000       0.28576100       0.30209900
P        6.21267283       2.02113380       4.37695084       0.00000000 NULL       0.23120400       0.11965400       0.39323200
P        2.81512528       4.77342375       1.61434806       0.00000000 NULL      -0.03678100      -0.32109100      -0.01921100
P        2.77453757       0.64927367       1.57087131       0.00000000 NULL      -0.19831100       0.22582200       0.17084500