26
Lattice="5.266962801474574 -0.13464514411506617 1.0935748389345579 0.3972001950916178 8.471975667285617 0.5174814093324509 5.0872220498996175 4.890260007320673 11.874263146955279" Properties=species:S:1:pos:R:3:initial_magmoms:R:1:castep_labels:S:1:forces:R:3 n_minim_iter=1 energy=-140.57478013306 stress="0.0006409382390471803 -0.001963425771277405 -0.0018481208994093983 -0.001963425771277405 0.004157206937308763 -0.000305367148713672 -0.0018481208994093983 -0.000305367148713672 0.0055614040800263335" free_energy=-140.57478013306 pbc="T T T"
P        6.23724105       4.38919506       8.70557229       0.00000000 NULL      -0.06402400      -0.15028100      -0.12520700
P        4.51414400       8.83839547       4.77974711       0.00000000 NULL       0.06402400       0.15028100       0.12520700
P        4.03744616       4.25134767       1.03266185       0.00000000 NULL       0.07508800      -0.06532700      -0.00536600
P        6.71393889       8.97624286      12.45265754       0.00000000 NULL      -0.07508800       0.06532700       0.00536600
P        3.47542490       5.51374671       2.95452007       0.00000000 NULL       0.11477500       0.01470000      -0.10090100
P        7.27596015       7.71384382      10.53079932       0.00000000 NULL      -0.11477500      -0.01470000       0.10090100
P        2.05324156       7.37133742       0.39861992       0.00000000 NULL      -0.14595100      -0.06730600       0.01312100
P        8.69814349       5.85625311      13.08669947       0.00000000 NULL       0.14595100       0.06730600      -0.01312100
P        5.72744096      10.76409765       9.27054717       0.00000000 NULL      -0.04692600       0.09990100       0.00112300
P        5.02394409       2.46349288       4.21477222       0.00000000 NULL       0.04692600      -0.09990100      -0.00112300
P        6.70219140       5.90454711       3.23487121       0.00000000 NULL       0.04849800      -0.01623900      -0.20420800
P        4.04919365       7.32304342      10.25044818       0.00000000 NULL      -0.04849800       0.01623900       0.20420800
P        6.74868946       1.49118302       5.54045708       0.00000000 NULL       0.13935400      -0.03257600      -0.05259300
P        4.00269558      11.73640751       7.94486232       0.00000000 NULL      -0.13935400       0.03257600       0.05259200
P        9.38967227      12.39361598      12.47238224       0.00000000 NULL      -0.10731500      -0.05528000      -0.00218100
P        1.36171277       0.83397455       1.01293715       0.00000000 NULL       0.10731500       0.05528000       0.00218100
P        6.72782827       4.37796505       6.47211252       0.00000000 NULL      -0.05468400       0.20253700       0.26265500
P        4.02355678       8.84962548       7.01320688       0.00000000 NULL       0.05468400      -0.20253700      -0.26265500
P        6.07120661       9.08131622       7.82518830       0.00000000 NULL       0.15409000      -0.07008200      -0.00650100
P        4.68017844       4.14627431       5.66013109       0.00000000 NULL      -0.15409000       0.07008200       0.00650100
P        4.06052123       5.17225062       8.73548267       0.00000000 NULL       0.12229300      -0.00442800      -0.13347000
P        6.69086381       8.05533991       4.74983673       0.00000000 NULL      -0.12229300       0.00442800       0.13347000
P        3.27073562       3.23971673       2.82894947       0.00000000 NULL       0.05036600      -0.00697700      -0.00978300
P        7.48064942       9.98787381      10.65636992       0.00000000 NULL      -0.05036600       0.00697700       0.00978300
P        6.48389249       6.64681727       6.78594708       0.00000000 NULL       0.08004400      -0.05718900      -0.10411800
P        4.26749255       6.58077326       6.69937231       0.00000000 NULL      -0.08004400       0.05718900       0.10411800
26
Lattice="5.2656764459575 -0.12566864241918133 1.096458729218715 0.41105044089361853 8.444594122548622 0.5178422455637621 5.109818740872815 4.884906500473242 11.830243085812944" Properties=species:S:1:pos:R:3:initial_magmoms:R:1:castep_labels:S:1:forces:R:3 n_minim_iter=2 energy=-140.587599317249 stress="-0.0022610961161744878 -0.0012985337614515628 -0.0005761097480774273 -0.0012985337614515628 -0.0015541455950695338 -0.0005664922459764167 -0.0005761097480774273 -0.0005664922459764167 -0.00032656762689653836" free_energy=-140.587599317249 pbc="T T T"
P        6.25367932       4.38627986       8.67698452       0.00000000 NULL      -0.04185500      -0.12899900      -0.07243400
P        4.53286630       8.81755212       4.76755954       0.00000000 NULL       0.04185600       0.12899900       0.07243400
P        4.04370474       4.24370668       1.03506579       0.00000000 NULL       0.15523100      -0.02700900      -0.08424900
P        6.74284089       8.96012530      12.40947827       0.00000000 NULL      -0.15523100       0.02700900       0.08424900
P        3.48685400       5.50163781       2.94770888       0.00000000 NULL       0.12409700       0.07598000      -0.05128200
P        7.29969163       7.70219417      10.49683518       0.00000000 NULL      -0.12409700      -0.07598000       0.05128200
P        2.06409683       7.35006500       0.40170488       0.00000000 NULL      -0.13441400      -0.08229500      -0.05783400
P        8.72244879       5.85376698      13.04283918       0.00000000 NULL       0.13441400       0.08229500       0.05783400
P        5.75500306      10.73977621       9.24047143       0.00000000 NULL      -0.05923900       0.10019900       0.05858200
P        5.03154256       2.46405577       4.20407263       0.00000000 NULL       0.05923900      -0.10019900      -0.05858200
P        6.71288715       5.89621821       3.23149790       0.00000000 NULL      -0.00041200      -0.02014800      -0.13935600
P        4.07365847       7.30761378      10.21304616       0.00000000 NULL       0.00041200       0.02014800       0.13935600
P        6.75599530       1.49811829       5.52609194       0.00000000 NULL       0.17597300      -0.00315300      -0.06478200
P        4.03055033      11.70571370       7.91845212       0.00000000 NULL      -0.17597300       0.00315300       0.06478200
P        9.42254295      12.37014909      12.43388704       0.00000000 NULL      -0.07485000      -0.14365800      -0.00130300
P        1.36400268       0.83368289       1.01065702       0.00000000 NULL       0.07485000       0.14365800       0.00130300
P        6.74072030       4.37590708       6.45481809       0.00000000 NULL      -0.01221500       0.15772000       0.18745800
P        4.04582533       8.82792490       6.98972597       0.00000000 NULL       0.01221500      -0.15772000      -0.18745800
P        6.09416100       9.06248127       7.80161339       0.00000000 NULL       0.13573400      -0.13156200       0.02617600
P        4.69238463       4.14135071       5.64293067       0.00000000 NULL      -0.13573400       0.13156200      -0.02617600
P        4.07965953       5.16357524       8.70372803       0.00000000 NULL       0.09057700       0.04536800      -0.11893600
P        6.70688610       8.04025674       4.74081603       0.00000000 NULL      -0.09057700      -0.04536800       0.11893600
P        3.27840777       3.23477016       2.82199123       0.00000000 NULL       0.02873400      -0.06021200       0.04853900
P        7.50813786       9.96906182      10.62255283       0.00000000 NULL      -0.02873400       0.06021200      -0.04853900
P        6.50115800       6.63648076       6.76683499       0.00000000 NULL       0.09368000      -0.04964000      -0.08988200
P        4.28538763       6.56735122       6.67770907       0.00000000 NULL      -0.09368000       0.04964000       0.08988200
26
Lattice="5.284834582199532 -0.11019714463354603 1.103007046108863 0.436537713945872 8.454874976639333 0.5262697881128998 5.159050881889221 4.915886836398444 11.826352427853074" Properties=species:S:1:pos:R:3:initial_magmoms:R:1:castep_labels:S:1:forces:R:3 n_minim_iter=3 energy=-140.593649093255 stress="0.0010015244364361556 -0.00021390004878608788 0.0005493254988699502 -0.00021390004878608788 -4.6432377595625176e-05 0.00011325749743953549 0.0005493254988699502 0.00011325749743953549 -0.0001945940670964888" free_energy=-140.593649093255 pbc="T T T"
P        6.30027642       4.41617321       8.67852236       0.00000000 NULL      -0.10044500      -0.16162900      -0.07247000
P        4.58014676       8.84439146       4.77710690       0.00000000 NULL       0.10044500       0.16162900       0.07247000
P        4.07127039       4.26008005       1.04391478       0.00000000 NULL       0.13625600      -0.04034900      -0.10711800
P        6.80915279       9.00048462      12.41171448       0.00000000 NULL      -0.13625600       0.04034900       0.10711800
P        3.51892399       5.52009768       2.95427960       0.00000000 NULL       0.07917600       0.05127800      -0.08104600
P        7.36149919       7.74046699      10.50134966       0.00000000 NULL      -0.07917600      -0.05127800       0.08104600
P        2.09140042       7.36332992       0.41159009       0.00000000 NULL      -0.05717100      -0.03901800      -0.04477500
P        8.78902275       5.89723475      13.04403918       0.00000000 NULL       0.05717100       0.03901800       0.04477500
P        5.81827952      10.77631489       9.24737403       0.00000000 NULL      -0.05010200       0.10841100       0.04887900
P        5.06214366       2.48424978       4.20825524       0.00000000 NULL       0.05010200      -0.10841100      -0.04888000
P        6.75691188       5.92389687       3.24273298       0.00000000 NULL       0.02495300      -0.00051200      -0.10953200
P        4.12351130       7.33666780      10.21289628       0.00000000 NULL      -0.02495300       0.00051200       0.10953200
P        6.79229344       1.52378471       5.53006160       0.00000000 NULL       0.12826600      -0.04716500      -0.08463700
P        4.08812974      11.73677996       7.92556766       0.00000000 NULL      -0.12826600       0.04716500       0.08463700
P        9.50759536      12.42072906      12.44342624       0.00000000 NULL      -0.12187000      -0.14288900       0.00831500
P        1.37282782       0.83983561       1.01220303       0.00000000 NULL       0.12187000       0.14288900      -0.00831500
P        6.78557945       4.40612156       6.46142527       0.00000000 NULL      -0.06710700       0.13800900       0.14192800
P        4.09484373       8.85444311       6.99420399       0.00000000 NULL       0.06710700      -0.13800900      -0.14192800
P        6.15251500       9.09588609       7.80928585       0.00000000 NULL       0.07312800      -0.14617400       0.00854800
P        4.72790818       4.16467858       5.64634341       0.00000000 NULL      -0.07312800       0.14617400      -0.00854800
P        4.12168926       5.18900466       8.70245417       0.00000000 NULL       0.09765100       0.04285700      -0.11809000
P        6.75873392       8.07156001       4.75317510       0.00000000 NULL      -0.09765100      -0.04285700       0.11809000
P        3.30295189       3.24973627       2.82652753       0.00000000 NULL       0.03779800      -0.03716400       0.06113900
P        7.57747129      10.01082839      10.62910173       0.00000000 NULL      -0.03779800       0.03716400      -0.06113900
P        6.55238027       6.66776875       6.77370403       0.00000000 NULL       0.01952300      -0.08286200      -0.08320700
P        4.32804291       6.59279592       6.68192523       0.00000000 NULL      -0.01952300       0.08286200       0.08320700
26
Lattice="5.273081179621369 -0.09436229748258408 1.0960079178765672 0.4603813946164854 8.465438023685646 0.5278248266967337 5.148544615241158 4.939362998781413 11.819980598226989" Properties=species:S:1:pos:R:3:initial_magmoms:R:1:castep_labels:S:1:forces:R:3 n_minim_iter=4 energy=-140.598613559512 stress="-0.001212526252726357 0.0015409156691522374 -0.0006220779443328993 0.0015409156691522374 0.0008108533372526542 0.00041478972336497495 -0.0006220779443328993 0.00041478972336497495 -9.286273424162387e-05" free_energy=-140.598613559512 pbc="T T T"
P        6.28912358       4.43979020       8.66984033       0.00000000 NULL      -0.07838300      -0.18564300      -0.05141900
P        4.59288361       8.87064852       4.77397302       0.00000000 NULL       0.07838300       0.18564300       0.05141900
P        4.07671693       4.27655465       1.03840521       0.00000000 NULL       0.15348700      -0.07712300      -0.07509100
P        6.80529026       9.03388407      12.40540813       0.00000000 NULL      -0.15348700       0.07712300       0.07509100
P        3.52609732       5.53791889       2.94994564       0.00000000 NULL       0.10850300       0.01702500      -0.06985300
P        7.35590987       7.77251983      10.49386770       0.00000000 NULL      -0.10850300      -0.01702500       0.06985300
P        2.10802349       7.37697294       0.41015273       0.00000000 NULL      -0.07828600      -0.01101900      -0.04275100
P        8.77398370       5.93346578      13.03366061       0.00000000 NULL       0.07828600       0.01101900       0.04275100
P        5.82685197      10.80878946       9.24244968       0.00000000 NULL      -0.03074400       0.09282800       0.01847000
P        5.05515522       2.50164926       4.20136366       0.00000000 NULL       0.03074400      -0.09282700      -0.01847000
P        6.75792520       5.95107476       3.23371240       0.00000000 NULL      -0.01025500       0.02882500      -0.12569800
P        4.12408199       7.35936397      10.21010094       0.00000000 NULL       0.01025500      -0.02882500       0.12569800
P        6.77852381       1.54647224       5.52019786       0.00000000 NULL       0.12335000      -0.08758100      -0.05252600
P        4.10348338      11.76396649       7.92361549       0.00000000 NULL      -0.12335000       0.08758100       0.05252600
P        9.50915292      12.46361436      12.43332477       0.00000000 NULL      -0.07059600      -0.12677200       0.01568300
P        1.37285427       0.84682437       1.01048857       0.00000000 NULL       0.07059600       0.12677200      -0.01568300
P        6.77683979       4.43439188       6.45515700       0.00000000 NULL      -0.04052300       0.10292100       0.13109100
P        4.10516740       8.87604684       6.98865634       0.00000000 NULL       0.04052300      -0.10292100      -0.13109100
P        6.15904401       9.12412147       7.80314138       0.00000000 NULL       0.10369500      -0.12740800       0.01222900
P        4.72296318       4.18631726       5.64067197       0.00000000 NULL      -0.10369500       0.12740800      -0.01222900
P        4.11928216       5.20947321       8.69627315       0.00000000 NULL       0.03677200       0.05067900      -0.10978200
P        6.76272503       8.10096551       4.74754019       0.00000000 NULL      -0.03677200      -0.05067900       0.10978200
P        3.30321351       3.26323289       2.82353103       0.00000000 NULL       0.02300800       0.00085700       0.01880900
P        7.57879368      10.04720584      10.62028231       0.00000000 NULL      -0.02300800      -0.00085700      -0.01880900
P        6.55157756       6.69512138       6.76529086       0.00000000 NULL       0.03946000      -0.09683300      -0.06828500
P        4.33042963       6.61531734       6.67852248       0.00000000 NULL      -0.03946000       0.09683300       0.06828500
26
Lattice="5.2817105361455505 -0.09989033434445578 1.093610302900032 0.456081517445584 8.444338641034214 0.5051101771938505 5.146517185780474 4.893258661234861 11.813457655926266" Properties=species:S:1:pos:R:3:initial_magmoms:R:1:castep_labels:S:1:forces:R:3 n_minim_iter=5 energy=-140.620846879694 stress="0.0014717784200300476 0.0010699656414716486 -0.0008300634137130206 0.0010699656414716486 -0.0018476863632945668 -0.0023223951351614217 -0.0008300634137130206 -0.0023223951351614217 0.0008810842127733119" free_energy=-140.620846879694 pbc="T T T"
P        6.28496565       4.39040825       8.65593417       0.00000000 NULL      -0.00241000      -0.05301400       0.03045100
P        4.59934359       8.84729871       4.75624396       0.00000000 NULL       0.00241000       0.05301400      -0.03045100
P        4.09157826       4.25824821       1.01802414       0.00000000 NULL       0.07289500      -0.08030100       0.05897300
P        6.79273098       8.97945876      12.39415400       0.00000000 NULL      -0.07289500       0.08030100      -0.05897300
P        3.53437633       5.51886509       2.92957984       0.00000000 NULL       0.06733100       0.04240000      -0.06703500
P        7.34993291       7.71884188      10.48259830       0.00000000 NULL      -0.06733100      -0.04240000       0.06703500
P        2.10145116       7.35479244       0.38577307       0.00000000 NULL      -0.03646500       0.04063900      -0.02960500
P        8.78285808       5.88291453      13.02640507       0.00000000 NULL       0.03646500      -0.04063900       0.02960500
P        5.82111409      10.76361012       9.22045603       0.00000000 NULL      -0.05506400      -0.07736100      -0.01902700
P        5.06319515       2.47409685       4.19172211       0.00000000 NULL       0.05506400       0.07736000       0.01902700
P        6.76525424       5.92536980       3.20675495       0.00000000 NULL       0.03615800      -0.00769200      -0.10342700
P        4.11905500       7.31233716      10.20542319       0.00000000 NULL      -0.03615800       0.00769200       0.10342700
P        6.79597444       1.52068952       5.51076855       0.00000000 NULL       0.06348400      -0.08666900       0.04847600
P        4.08833480      11.71701745       7.90140959       0.00000000 NULL      -0.06348400       0.08666900      -0.04847600
P        9.50232869      12.38587532      12.40464034       0.00000000 NULL      -0.06708400      -0.05869800      -0.01874100
P        1.38198055       0.85183165       1.00753780       0.00000000 NULL       0.06708400       0.05869800       0.01874100
P        6.77797458       4.41323487       6.45542627       0.00000000 NULL      -0.07420400      -0.04648300      -0.00384100
P        4.10633466       8.82447210       6.95675186       0.00000000 NULL       0.07420400       0.04648300       0.00384100
P        6.16626715       9.06848102       7.78201270       0.00000000 NULL       0.07341200      -0.00598000      -0.03013300
P        4.71804209       4.16922594       5.63016543       0.00000000 NULL      -0.07341200       0.00598000       0.03013300
P        4.12377500       5.17515007       8.67823671       0.00000000 NULL      -0.02906600       0.02934100      -0.03154500
P        6.76053424       8.06255689       4.73394143       0.00000000 NULL       0.02906600      -0.02934100       0.03154500
P        3.30776053       3.24409276       2.81844603       0.00000000 NULL       0.05942700       0.07417800      -0.11230700
P        7.57654871       9.99361421      10.59373211       0.00000000 NULL      -0.05942700      -0.07417800       0.11230700
P        6.55740233       6.65188630       6.74254767       0.00000000 NULL      -0.02062600       0.05523000      -0.05852300
P        4.32690691       6.58582067       6.66963046       0.00000000 NULL       0.02062600      -0.05523000       0.05852300
26
Lattice="5.273869094400646 -0.10762818664936762 1.097594704250975 0.43935837204183853 8.46020926185493 0.5266993917071132 5.14064301417162 4.922662314122219 11.81755309355124" Properties=species:S:1:pos:R:3:initial_magmoms:R:1:castep_labels:S:1:forces:R:3 n_minim_iter=6 energy=-140.628775055394 stress="1.7673124501108958e-05 -0.0002512230378961986 -0.0001672970408691933 -0.0002512230378961986 -0.00016992239632044497 0.00010693520984366654 -0.0001672970408691933 0.00010693520984366654 -0.0005274616578157061" free_energy=-140.628775055394 pbc="T T T"
P        6.27231222       4.40385638       8.66185695       0.00000000 NULL       0.02241200      -0.01596400       0.07782700
P        4.58155826       8.87138701       4.77999024       0.00000000 NULL      -0.02241200       0.01596400      -0.07782700
P        4.08132157       4.25908243       1.02976183       0.00000000 NULL       0.09219000      -0.07459700       0.02941800
P        6.77254891       9.01616096      12.41208535       0.00000000 NULL      -0.09219000       0.07459700      -0.02941800
P        3.52339121       5.53098531       2.94180903       0.00000000 NULL       0.06771500       0.02209300      -0.09808900
P        7.33047928       7.74425808      10.50003816       0.00000000 NULL      -0.06771500      -0.02209300       0.09808900
P        2.08163362       7.36417468       0.40511617       0.00000000 NULL      -0.03780600       0.12695300      -0.03955600
P        8.77223686       5.91106870      13.03673102       0.00000000 NULL       0.03780600      -0.12695300       0.03955600
P        5.79841588      10.79826429       9.24443758       0.00000000 NULL      -0.06255200      -0.16884800      -0.06134500
P        5.05545460       2.47697910       4.19740961       0.00000000 NULL       0.06255200       0.16884800       0.06134500
P        6.74580057       5.93128399       3.22170265       0.00000000 NULL       0.01720300      -0.06508600      -0.04896100
P        4.10806991       7.34395940      10.22014454       0.00000000 NULL      -0.01720300       0.06508600       0.04896100
P        6.79091893       1.52273700       5.51352877       0.00000000 NULL       0.06400500      -0.09510000       0.02966900
P        4.06295155      11.75250639       7.92831842       0.00000000 NULL      -0.06400500       0.09510000      -0.02966900
P        9.47183989      12.41803475      12.43200168       0.00000000 NULL      -0.05323600       0.00832400       0.04202700
P        1.38203059       0.85720864       1.00984551       0.00000000 NULL       0.05323600      -0.00832400      -0.04202700
P        6.76283688       4.42817243       6.47030359       0.00000000 NULL      -0.04686300      -0.02953100      -0.09141600
P        4.09103360       8.84707096       6.97154360       0.00000000 NULL       0.04686300       0.02953100       0.09141600
P        6.14889689       9.08937358       7.80285441       0.00000000 NULL       0.03888500       0.03159200       0.04511900
P        4.70497360       4.18586981       5.63899278       0.00000000 NULL      -0.03888500      -0.03159200      -0.04511900
P        4.11792386       5.20026789       8.68243069       0.00000000 NULL      -0.06597400       0.00124600      -0.00323400
P        6.73594662       8.07497550       4.75941650       0.00000000 NULL       0.06597400      -0.00124600       0.00323400
P        3.29978845       3.25026458       2.82782565       0.00000000 NULL       0.06043400       0.07859100      -0.10342700
P        7.55408203      10.02497881      10.61402154       0.00000000 NULL      -0.06043400      -0.07859100       0.10342700
P        6.54113053       6.66660060       6.75621159       0.00000000 NULL      -0.00616500       0.07798100      -0.02856200
P        4.31273995       6.60864279       6.68563560       0.00000000 NULL       0.00616500      -0.07798100       0.02856200
26
Lattice="5.261856534338521 -0.10409341124795601 1.118650512341997 0.4459627672325403 8.459618011312672 0.5278025776824654 5.168247961796092 4.923139044739261 11.87321236022607" Properties=species:S:1:pos:R:3:initial_magmoms:R:1:castep_labels:S:1:forces:R:3 n_minim_iter=7 energy=-140.634288641113 stress="-0.0011796462015994699 0.00016826788361786054 0.0013773598979731824 0.00016826788361786054 -0.00041994423249849274 -0.00025020405824283955 0.0013773598979731824 -0.00025020405824283955 0.001126409025638709" free_energy=-140.634288641113 pbc="T T T"
P        6.28464014       4.40228702       8.71147823       0.00000000 NULL       0.03500700      -0.01989000       0.00435300
P        4.59142712       8.87637663       4.80818722       0.00000000 NULL      -0.03500700       0.01989000      -0.00435300
P        4.08091366       4.25829633       1.04487381       0.00000000 NULL       0.10490000      -0.08040200       0.00908300
P        6.79515360       9.02036732      12.47479164       0.00000000 NULL      -0.10490000       0.08040200      -0.00908300
P        3.53042339       5.53374170       2.95782085       0.00000000 NULL       0.04667200       0.01226800      -0.12930300
P        7.34564387       7.74492195      10.56184460       0.00000000 NULL      -0.04667200      -0.01226800       0.12930300
P        2.07974766       7.36766788       0.40961241       0.00000000 NULL      -0.04451400       0.11527700      -0.00551400
P        8.79631960       5.91099577      13.11005304       0.00000000 NULL       0.04451400      -0.11527700       0.00551400
P        5.81717796      10.79651034       9.29105840       0.00000000 NULL      -0.05743400      -0.16269300      -0.04211600
P        5.05888930       2.48215330       4.22860705       0.00000000 NULL       0.05743400       0.16269300       0.04211600
P        6.74164397       5.93320290       3.24948935       0.00000000 NULL      -0.00862900      -0.04967300      -0.04321300
P        4.13442330       7.34546074      10.27017610       0.00000000 NULL       0.00862900       0.04967300       0.04321300
P        6.79446868       1.52246961       5.55369818       0.00000000 NULL       0.04826900      -0.08919000       0.00557800
P        4.08159859      11.75619404       7.96596727       0.00000000 NULL      -0.04826900       0.08919000      -0.00557800
P        9.49065736      12.41840190      12.50328505       0.00000000 NULL       0.00367800       0.00109400      -0.00643500
P        1.38540990       0.86026174       1.01638040       0.00000000 NULL      -0.00367800      -0.00109400       0.00643500
P        6.76513235       4.43266212       6.51364099       0.00000000 NULL      -0.01373500      -0.05652200      -0.08898900
P        4.11093491       8.84600153       7.00602446       0.00000000 NULL       0.01373500       0.05652200       0.08898900
P        6.16612088       9.08949069       7.84849449       0.00000000 NULL       0.03167800       0.01422700       0.01375700
P        4.70994638       4.18917296       5.67117096       0.00000000 NULL      -0.03167800      -0.01422700      -0.01375700
P        4.13802568       5.20157944       8.72173765       0.00000000 NULL      -0.11177400      -0.00246400       0.01837700
P        6.73804158       8.07708421       4.79792780       0.00000000 NULL       0.11177400       0.00246400      -0.01837700
P        3.30415226       3.25347953       2.84525817       0.00000000 NULL       0.08374700       0.07893600      -0.06863100
P        7.57191500      10.02518412      10.67440728       0.00000000 NULL      -0.08374700      -0.07893600       0.06863100
P        6.54948073       6.66972283       6.79653205       0.00000000 NULL       0.02258000       0.07028400      -0.05126700
P        4.32658653       6.60894081       6.72313340       0.00000000 NULL      -0.02258000      -0.07028400       0.05126700
26
Lattice="5.2540956376992485 -0.10097428326013569 1.0989459705372993 0.44624964208565066 8.478428503347597 0.5407578820841384 5.126057368846118 4.956067877190066 11.844357470667061" Properties=species:S:1:pos:R:3:initial_magmoms:R:1:castep_labels:S:1:forces:R:3 n_minim_iter=8 energy=-140.67763935419 stress="-0.0008474461392487379 0.0001360609997876941 0.0008549813656254331 0.0001360609997876941 0.0008085959635955213 -0.0008725279834204574 0.0008549813656254331 -0.0008725279834204574 -0.0007585603527542355" free_energy=-140.67763935419 pbc="T T T"
P        6.24672120       4.40658889       8.68816440       0.00000000 NULL      -0.02292200      -0.01009300      -0.09319300
P        4.57968145       8.92693320       4.79589693       0.00000000 NULL       0.02292200       0.01009300       0.09319300
P        4.10907993       4.24924486       1.03327535       0.00000000 NULL       0.29544400       0.02427100      -0.08798500
P        6.71732272       9.08427723      12.45078597       0.00000000 NULL      -0.29544400      -0.02427100       0.08798500
P        3.54241383       5.56018596       2.92221662       0.00000000 NULL       0.02946300       0.05267200      -0.09111700
P        7.28398882       7.77333614      10.56184471       0.00000000 NULL      -0.02946300      -0.05267300       0.09111700
P        2.06324140       7.40473590       0.40444921       0.00000000 NULL      -0.06785000       0.06060100       0.02561100
P        8.76316125       5.92878619      13.07961212       0.00000000 NULL       0.06785000      -0.06060100      -0.02561100
P        5.76734235      10.81546184       9.26771362       0.00000000 NULL      -0.02084000      -0.02236500       0.00511000
P        5.05906030       2.51806025       4.21634770       0.00000000 NULL       0.02084000       0.02236500      -0.00511000
P        6.73159907       5.94199504       3.20846724       0.00000000 NULL      -0.00119300      -0.01216500      -0.03824100
P        4.09480357       7.39152706      10.27559409       0.00000000 NULL       0.00119300       0.01216500       0.03824100
P        6.79732553       1.51237090       5.52179812       0.00000000 NULL      -0.05091800      -0.03138600       0.04566400
P        4.02907712      11.82115120       7.96226320       0.00000000 NULL       0.05091800       0.03138600      -0.04566400
P        9.42484442      12.45546254      12.47938163       0.00000000 NULL       0.09721200       0.01876100      -0.00584800
P        1.40155823       0.87805956       1.00467969       0.00000000 NULL      -0.09721200      -0.01876100       0.00584800
P        6.72472358       4.46252220       6.48679521       0.00000000 NULL       0.00151200      -0.07477600      -0.09231300
P        4.10167907       8.87099989       6.99726612       0.00000000 NULL      -0.00151200       0.07477600       0.09231300
P        6.15568715       9.11517107       7.83884120       0.00000000 NULL       0.00751800       0.02832700      -0.07721100