5
Lattice="3.2794760120212443 -0.3410970908715759 0.4606641921315884 0.3760493535076205 4.3748140663409485 0.31421178287019075 1.5550569482636392 1.9886288057817332 7.30906874193931" Properties=species:S:1:pos:R:3:initial_magmoms:R:1:castep_labels:S:1:forces:R:3 n_minim_iter=1 energy=-27.260751257992 stress="-1.8651503792922373e-05 0.0006154004150398802 -0.0008210630073948168 0.0006154004150398802 0.0012828861465227618 0.001534086186967865 -0.0008210630073948168 0.001534086186967865 0.0020985918070834412" free_energy=-27.260751257992 pbc="T T T"
P        2.69928147       1.37753598       1.47901123       0.00000000 NULL      -0.38706600      -0.24593500       0.28172100
P        1.06633975       2.81090270       2.00720367       0.00000000 NULL       0.08972400       0.60876600      -0.01376800
P        3.90294960       1.60178892       4.53254166       0.00000000 NULL       0.09556400      -0.25507600       0.13221300
P        2.58625664       4.62312126       3.87265298       0.00000000 NULL       0.27682100      -0.19627800      -0.71312100
P        2.25912102       2.97602610       5.36749302       0.00000000 NULL      -0.07504400       0.08852200       0.31295500
5
Lattice="3.286159479426569 -0.36410677722962803 0.4832118237183576 0.35158331308857793 4.312325511313569 0.24443443389841124 1.6030685161377642 1.8429380151617563 7.140377850052845" Properties=species:S:1:pos:R:3:initial_magmoms:R:1:castep_labels:S:1:forces:R:3 n_minim_iter=2 energy=-27.340349925259 stress="-0.0073339189803653965 -0.0023969228552711656 0.003980607692389064 -0.0023969228552711656 -0.002336584185911655 -0.0022417662769181382 0.003980607692389064 -0.0022417662769181382 -0.012773737350122213" free_energy=-27.340349925259 pbc="T T T"
P        2.66534152       1.29654614       1.47718574       0.00000000 NULL      -0.00572300       0.08022300      -0.33982800
P        1.07418256       2.79808596       1.92958085       0.00000000 NULL      -0.09117600       0.19365200       0.19990500
P        3.94092912       1.46320550       4.45981279       0.00000000 NULL       0.01907700       0.05754100       0.17371300
P        2.61709650       4.47140811       3.67455436       0.00000000 NULL       0.03773300      -0.41387700      -0.28823500
P        2.27797117       2.85119653       5.26012027       0.00000000 NULL       0.04008800       0.08246100       0.25444500
5
Lattice="3.3129085583427194 -0.35991391546436063 0.47923632329948124 0.36008139506585557 4.3116855582476195 0.24240534904683317 1.5994619482709431 1.837763907242013 7.2075416562315455" Properties=species:S:1:pos:R:3:initial_magmoms:R:1:castep_labels:S:1:forces:R:3 n_minim_iter=3 energy=-27.358337915192 stress="0.0056642005698169145 -0.0016783003022006727 0.0037493085728512302 -0.0016783003022006727 0.007687971077655725 -0.0008766684168729915 0.0037493085728512302 -0.0008766684168729915 0.0005821626205797209" free_energy=-27.358337915192 pbc="T T T"
P        2.67722867       1.29400971       1.48618096       0.00000000 NULL       0.06250900       0.25210400      -0.17628100
P        1.08295715       2.81305701       1.94576603       0.00000000 NULL      -0.22666500      -0.09947500       0.36155300
P        3.96723564       1.45881399       4.49836125       0.00000000 NULL       0.05299100       0.11265900       0.00770000
P        2.64264379       4.46155779       3.68195730       0.00000000 NULL       0.01668500      -0.31023800      -0.19327500
P        2.28581298       2.85137085       5.31527679       0.00000000 NULL       0.09447900       0.04495000       0.00030300
5
Lattice="3.2867383434066304 -0.3302257430895862 0.4369685960174792 0.3823818950714279 4.2168894445790395 0.24520411299134515 1.4998368815518863 1.8115989511842285 7.26658267245009" Properties=species:S:1:pos:R:3:initial_magmoms:R:1:castep_labels:S:1:forces:R:3 n_minim_iter=4 energy=-27.377191753245 stress="-0.005146195555610433 0.0014417668200043562 -0.002673877995820446 0.0014417668200043562 -0.005492240086609345 -0.0005645126802703624 -0.002673877995820446 -0.0005645126802703624 0.0030208447657234135" free_energy=-27.377191753245 pbc="T T T"
P        2.63981247       1.28381224       1.46474550       0.00000000 NULL       0.08623300       0.17873300      -0.22151400
P        1.06231125       2.77627786       1.96799698       0.00000000 NULL      -0.38514000      -0.00739400       0.44450000
P        3.89665843       1.45048742       4.50038183       0.00000000 NULL       0.12050000       0.08450100      -0.07790900
P        2.61511568       4.36032945       3.65831300       0.00000000 NULL      -0.02267700      -0.29857100      -0.06324400
P        2.21717470       2.81031177       5.35860688       0.00000000 NULL       0.20108400       0.04273100      -0.08183300
5
Lattice="3.330659948967426 -0.321108245026435 0.4077481383633533 0.3901184512783387 4.1743097405523075 0.2611093526694635 1.476653854505062 1.83052261361386 7.169636936386811" Properties=species:S:1:pos:R:3:initial_magmoms:R:1:castep_labels:S:1:forces:R:3 n_minim_iter=5 energy=-27.414494206082 stress="0.0011605821351543984 -0.002162432726502908 -0.003093299068144221 -0.002162432726502908 -0.0073741873985180275 0.009428902043468178 -0.003093299068144221 0.009428902043468178 -0.005092343849621381" free_energy=-27.414494206082 pbc="T T T"
P        2.65986482       1.29650253       1.41646803       0.00000000 NULL      -0.10240500       0.45191600      -0.30696100
P        1.02775897       2.78294678       2.00458009       0.00000000 NULL      -0.15417900      -0.02455100       0.13924900
P        3.94223198       1.46250230       4.42636771       0.00000000 NULL       0.03334400      -0.11616500       0.25735200
P        2.64814727       4.28336483       3.56003202       0.00000000 NULL      -0.06671100      -0.12933200       0.07853900
P        2.23441794       2.82082943       5.30088744       0.00000000 NULL       0.28995100      -0.18186700      -0.16817900
5
Lattice="3.3384383991144846 -0.3047156210230948 0.40413484485742 0.4215645402213239 4.163232325047614 0.18860372860466204 1.4791877159543243 1.7196518559746499 7.109197109315322" Properties=species:S:1:pos:R:3:initial_magmoms:R:1:castep_labels:S:1:forces:R:3 n_minim_iter=6 energy=-27.452787809903 stress="-0.0037964585432712816 0.003827799926467059 -0.0006128174429505472 0.003827799926467059 -0.00864274964418655 -0.0007297768431546567 -0.0006128174429505472 -0.0007297768431546567 -0.0044196539276773845" free_energy=-27.452787809903 pbc="T T T"
P        2.66291268       1.31394549       1.35968569       0.00000000 NULL      -0.14463600       0.21225400      -0.15223500
P        1.00546366       2.77354007       2.00429465       0.00000000 NULL      -0.03797000      -0.18166000       0.02591700
P        3.97356824       1.41123474       4.38656287       0.00000000 NULL      -0.02093700      -0.09625400       0.40480400
P        2.69407798       4.18072336       3.41607399       0.00000000 NULL      -0.05915200       0.05018200       0.05032400
P        2.27407097       2.75010036       5.23838908       0.00000000 NULL       0.26269600       0.01547900      -0.32881100
5
Lattice="3.3241809643439413 -0.3332107168118419 0.3924402639504616 0.38345698600919076 4.178067327181 0.1806503556282155 1.4268453812004847 1.703761539450668 7.113368267962738" Properties=species:S:1:pos:R:3:initial_magmoms:R:1:castep_labels:S:1:forces:R:3 n_minim_iter=7 energy=-27.464474017549 stress="-0.007436290400953259 -0.0046479275844161306 -0.004907895712939473 -0.0046479275844161306 -0.005005811169876324 -0.003131429565656612 -0.004907895712939473 -0.003131429565656612 -0.002508500753905982" free_energy=-27.464474017549 pbc="T T T"
P        2.62357915       1.30879318       1.34233903       0.00000000 NULL      -0.26079900       0.16663400      -0.12448000
P        0.95622682       2.77792291       2.01744397       0.00000000 NULL       0.07142900      -0.22300400       0.02840400
P        3.92870402       1.37390562       4.39150128       0.00000000 NULL      -0.10272600      -0.04874100       0.33097100
P        2.63625566       4.15740703       3.38522238       0.00000000 NULL      -0.07446200       0.08740700       0.05853800
P        2.23109097       2.73950506       5.22905164       0.00000000 NULL       0.36655800       0.01770500      -0.29343300
5
Lattice="3.3131225188518143 -0.3321139256539521 0.39877515259851803 0.3829281115992623 4.191554732293568 0.20011177352179926 1.437887169268609 1.7401048067389606 7.129588409153131" Properties=species:S:1:pos:R:3:initial_magmoms:R:1:castep_labels:S:1:forces:R:3 n_minim_iter=8 energy=-27.488368804866 stress="-0.009796088765872683 -0.0014307566750083823 0.0013451868383885196 -0.0014307566750083823 -0.004362093354179853 -0.0009489342656633684 0.0013451868383885196 -0.0009489342656633684 -0.0012320606137046332" free_energy=-27.488368804866 pbc="T T T"
P        2.59327280       1.34067262       1.34479601       0.00000000 NULL      -0.06342100       0.17747800      -0.09489000
P        0.94282028       2.79618273       2.06022419       0.00000000 NULL       0.06202300      -0.21085800      -0.05261400
P        3.92795713       1.38797197       4.44045758       0.00000000 NULL      -0.09388800      -0.02022400       0.25306800
P        2.64174343       4.16514487       3.37989525       0.00000000 NULL      -0.08784700       0.10548000       0.08602700
P        2.26378789       2.77781182       5.23530585       0.00000000 NULL       0.18313400      -0.05187600      -0.19159000
5
Lattice="3.361368917351261 -0.324030238090671 0.3546061966139692 0.3985186772151318 4.195071353658999 0.17775247971850444 1.3826225279499467 1.7234003983023514 7.0076094384518175" Properties=species:S:1:pos:R:3:initial_magmoms:R:1:castep_labels:S:1:forces:R:3 n_minim_iter=9 energy=-27.502931612107 stress="-0.0016931155047903005 0.00022459168389859743 -0.002546956474165603 0.00022459168389859743 -0.003829835743095126 -0.004379124603853563 -0.002546956474165603 -0.004379124603853563 -0.0068563481494857935" free_energy=-27.502931612107 pbc="T T T"
P        2.59721874       1.37317572       1.28181771       0.00000000 NULL      -0.08346400       0.04479500      -0.21131300
P        0.92932608       2.79076613       2.03440221       0.00000000 NULL      -0.03501500      -0.17831600      -0.09956800
P        3.94366431       1.37423111       4.36403167       0.00000000 NULL       0.04178500       0.04462300       0.11858400
P        2.66271289       4.14944280       3.25339464       0.00000000 NULL      -0.10720400       0.08647500       0.11041200
P        2.27975068       2.77382971       5.10634051       0.00000000 NULL       0.18389800       0.00242300       0.08188500
5
Lattice="3.381998172050457 -0.33514380846053626 0.3508271400492881 0.38231908229936773 4.1840154823889915 0.19361098866950172 1.3820913090060898 1.7407154867225036 6.985914158842619" Properties=species:S:1:pos:R:3:initial_magmoms:R:1:castep_labels:S:1:forces:R:3 n_minim_iter=10 energy=-27.512049110325 stress="0.003497913419306661 -0.0018854800646675015 0.0003248439087122492 -0.0018854800646675015 -0.004008648272597085 -0.0038564616928311933 0.0003248439087122492 -0.0038564616928311933 -0.0019574378496655044" free_energy=-27.512049110325 pbc="T T T"
P        2.58805856       1.38933390       1.26596456       0.00000000 NULL      -0.09480100      -0.07663900      -0.19680500
P        0.90916952       2.77162215       2.02688074       0.00000000 NULL       0.04260300       0.12333100       0.00150600
P        3.97365422       1.36841942       4.36554898       0.00000000 NULL       0.01096400      -0.05881800       0.06091600
P        2.64740925       4.15208953       3.24443662       0.00000000 NULL      -0.04344200      -0.02481500       0.21386100
P        2.30864288       2.76248445       5.11846270       0.00000000 NULL       0.08467600       0.03694100      -0.07947900
5
Lattice="3.363607953562736 -0.3263720768216504 0.3263420713542219 0.3915824785288108 4.233887853387968 0.21618231766431445 1.3392972534861511 1.8120347891942283 6.930671567009108" Properties=species:S:1:pos:R:3:initial_magmoms:R:1:castep_labels:S:1:forces:R:3 n_minim_iter=11 energy=-27.519070760763 stress="0.002478888889125855 -0.00017326848178431396 -0.0010561816958974501 -0.00017326848178431396 0.0028693384864521333 -0.001967472413901143 -0.0010561816958974501 -0.001967472413901143 -0.0018290026230191182" free_energy=-27.519070760763 pbc="T T T"
P        2.55975362       1.43466935       1.23581717       0.00000000 NULL      -0.12399700      -0.05651000      -0.16244400
P        0.89443476       2.81611890       2.01424431       0.00000000 NULL       0.02499900       0.17884300      -0.01285300
P        3.94369189       1.42025092       4.32359189       0.00000000 NULL       0.03932400      -0.03814900       0.07970100
P        2.61913741       4.23532744       3.22714933       0.00000000 NULL       0.00287700      -0.07563500       0.22693400
P        2.29435667       2.82479026       5.09387097       0.00000000 NULL       0.05679800      -0.00854800      -0.13133800
5
Lattice="3.367813330958868 -0.32959046520407004 0.30916636876024567 0.38101896510769806 4.222794994955407 0.2443238964942922 1.3121664691943014 1.8559307108918002 6.884105234401101" Properties=species:S:1:pos:R:3:initial_magmoms:R:1:castep_labels:S:1:forces:R:3 n_minim_iter=12 energy=-27.530362657667 stress="0.0032295023355967778 -0.0011748207415017773 -0.0006008984337318187 -0.0011748207415017773 0.0021242130815548334 -0.00025177717564402635 -0.0006008984337318187 -0.00025177717564402635 -0.001175343534640573" free_energy=-27.530362657667 pbc="T T T"
P        2.53278517       1.44805635       1.19973351       0.00000000 NULL      -0.09584700       0.04414100      -0.00479500
P        0.87434082       2.83557538       2.00321928       0.00000000 NULL       0.02136900       0.11953400      -0.04957100
P        3.94680410       1.43029842       4.29990305       0.00000000 NULL       0.01027300      -0.07955200      -0.01010500
P        2.58821530       4.24331989       3.24227928       0.00000000 NULL       0.07011400      -0.04056400       0.05663200
P        2.29862292       2.83235069       5.07266376       0.00000000 NULL      -0.00590900      -0.04355900       0.00783900
5
Lattice="3.3683454894165545 -0.32818096383053175 0.29722423838141837 0.3764952093505999 4.221594187395759 0.2813140142791553 1.293428076176277 1.9173812741125318 6.881407778442072" Properties=species:S:1:pos:R:3:initial_magmoms:R:1:castep_labels:S:1:forces:R:3 n_minim_iter=13 energy=-27.537356858108 stress="0.003981217278073804 -0.0013534293064698273 1.7093520607049577e-05 -0.0013534293064698273 0.0028762207956414035 0.0011476778498377335 1.7093520607049577e-05 0.0011476778498377335 0.0006413740615504001" free_energy=-27.537356858108 pbc="T T T"
P        2.50839154       1.48933809       1.19849879       0.00000000 NULL      -0.00761100       0.01161500      -0.01944400
P        0.85585032       2.86480421       2.00966074       0.00000000 NULL       0.02227200       0.14095400      -0.01045900
P        3.94552713       1.44626999       4.29088813       0.00000000 NULL      -0.02787700      -0.02831400       0.03088100
P        2.58865515       4.26541229       3.28047112       0.00000000 NULL       0.00202300       0.03469100      -0.01123000
P        2.29390565       2.85372862       5.08734746       0.00000000 NULL       0.01119300      -0.15894600       0.01025200
5
Lattice="3.3565631949886967 -0.32232151068338355 0.25558794586226374 0.3564316281328649 4.213921622227026 0.4360940580080476 1.2274285868017853 2.1722172317866195 6.864855939178828" Properties=species:S:1:pos:R:3:initial_magmoms:R:1:castep_labels:S:1:forces:R:3 n_minim_iter=14 energy=-27.562262330359 stress="0.002634380312412581 -0.002047083075989653 0.001940243367285664 -0.002047083075989653 0.002295983198972392 0.0054236674970643125 0.001940243367285664 0.0054236674970643125 0.008755931638175594" free_energy=-27.562262330359 pbc="T T T"
P        2.44025568       1.63390994       1.19268033       0.00000000 NULL       0.04138900       0.22413300      -0.01944500
P        0.77973903       3.00823144       2.06129297       0.00000000 NULL       0.16473500       0.04189800      -0.03829800
P        3.90465934       1.53395180       4.27998919       0.00000000 NULL       0.04727400      -0.10639900      -0.06705400
P        2.56606533       4.38459812       3.40756597       0.00000000 NULL      -0.10615000      -0.04575800      -0.07814200
P        2.28658786       2.89160619       5.14088618       0.00000000 NULL      -0.14724900      -0.11387400       0.20293900
5
Lattice="3.3502934375846376 -0.32342786223672815 0.2152046328287009 0.3286529337421727 4.213748914616486 0.5905534662029043 1.1721749306855813 2.4309434952725804 6.7831032255981745" Properties=species:S:1:pos:R:3:initial_magmoms:R:1:castep_labels:S:1:forces:R:3 n_minim_iter=15 energy=-27.590369664211 stress="0.0026983456509521555 -0.0051563966370190275 0.005568409226489152 -0.0051563966370190275 0.00117220949805022 0.010777149462384845 0.005568409226489152 0.010777149462384845 0.009751038237148608" free_energy=-27.590369664211 pbc="T T T"
P        2.36965465       1.79317866       1.17143367       0.00000000 NULL       0.12156900       0.31343400      -0.00191400
P        0.72469660       3.15285539       2.09858606       0.00000000 NULL       0.16017600       0.02090200      -0.08253500
P        3.88390183       1.61173590       4.23505991       0.00000000 NULL       0.04477700      -0.14818800      -0.08499300
P        2.52607048       4.49567523       3.50329316       0.00000000 NULL      -0.15473300      -0.02250500      -0.18179900
P        2.27684495       2.93925643       5.15505419       0.00000000 NULL      -0.17178900      -0.16364200       0.35124100
5
Lattice="3.350123792727504 -0.31558619968729035 0.1826549598128195 0.32655537256874395 4.209146786766245 0.6542086398133341 1.1243081730160973 2.5428467453726733 6.723559434625351" Properties=species:S:1:pos:R:3:initial_magmoms:R:1:castep_labels:S:1:forces:R:3 n_minim_iter=16 energy=-27.603258551847 stress="0.0014155200790458785 -0.006105188896024568 0.005647471106094918 -0.006105188896024568 0.0009127384949198656 0.011950895745167828 0.005647471106094918 0.011950895745167828 0.007095805718570568" free_energy=-27.603258551847 pbc="T T T"
P        2.33595558       1.87010163       1.14862212       0.00000000 NULL       0.06628300       0.34161900      -0.02925200
P        0.68448333       3.22005921       2.10491436       0.00000000 NULL       0.24130400      -0.05684800      -0.03890900
P        3.87930437       1.63987945       4.18770311       0.00000000 NULL      -0.00416400      -0.02792900      -0.10347200
P        2.50052295       4.54435240       3.51872771       0.00000000 NULL      -0.12634900      -0.02460300      -0.18306800
P        2.27505877       2.96286858       5.14187975       0.00000000 NULL      -0.17707400      -0.23223900       0.35470000
5
Lattice="3.3491264034571513 -0.3147117231984344 0.14883992855069214 0.3196520404300233 4.214658717165152 0.6918606628390126 1.0657025272291145 2.6155168613105473 6.65846863349521" Properties=species:S:1:pos:R:3:initial_magmoms:R:1:castep_labels:S:1:forces:R:3 n_minim_iter=17 energy=-27.617945902254 stress="-0.0005751516166651475 -0.00572794531243455 0.004942933385036109 -0.00572794531243455 0.0009674298426424654 0.01049221845463803 0.004942933385036109 0.01049221845463803 0.002306186040847205" free_energy=-27.617945902254 pbc="T T T"
P        2.27782523       1.93153852       1.11675097       0.00000000 NULL       0.22420300       0.30000400       0.01134200
P        0.66928703       3.27117315       2.10819469       0.00000000 NULL       0.07856900      -0.05110300      -0.10934000
P        3.86562144       1.67257078       4.12214656       0.00000000 NULL      -0.08430600      -0.18165300      -0.04144800
P        2.46876156       4.57448523       3.50394729       0.00000000 NULL      -0.16681500       0.01102700      -0.17463000
P        2.25223154       2.95512416       5.11440976       0.00000000 NULL      -0.05165100      -0.07827500       0.31407500
5
Lattice="3.352585655370767 -0.3141584041822238 0.13683592077512902 0.3177778743736269 4.189140825174725 0.6861990994553673 1.0436136335164956 2.597997625294303 6.626353696451329" Properties=species:S:1:pos:R:3:initial_magmoms:R:1:castep_labels:S:1:forces:R:3 n_minim_iter=18 energy=-27.633913279153 stress="-0.001670649124076734 -0.0037060813420908612 0.0034981262554682844 -0.0037060813420908612 3.07911398977075e-05 0.005997838310522097 0.0034981262554682844 0.005997838310522097 0.0016382494917963103" free_energy=-27.633913279153 pbc="T T T"
P        2.27820038       1.94744742       1.09471745       0.00000000 NULL       0.18426900       0.20001100      -0.01464400
P        0.68470604       3.27006795       2.09843123       0.00000000 NULL      -0.07613200      -0.18167200      -0.07534400
P        3.84040829       1.62951096       4.07670862       0.00000000 NULL       0.12095900       0.06536600       0.13837400
P        2.43100063       4.53573731       3.47441939       0.00000000 NULL      -0.01342700       0.10472900      -0.13618500
P        2.25751975       2.92792053       5.10997081       0.00000000 NULL      -0.21566900      -0.18843500       0.08780000
5
Lattice="3.355327676531388 -0.28658655599455046 0.1448818344535571 0.3573512450462739 4.179123836596746 0.6666279667298703 1.0807507471291242 2.5735283561408226 6.599795602244711" Properties=species:S:1:pos:R:3:initial_magmoms:R:1:castep_labels:S:1:forces:R:3 n_minim_iter=19 energy=-27.652847356052 stress="-0.0016701164008612228 0.0004119374499708097 0.0010624135464542433 0.0004119374499708097 -0.00036374549528628736 0.0016106258539300901 0.0010624135464542433 0.0016106258539300901 0.00457039585551157" free_energy=-27.652847356052 pbc="T T T"
P        2.33287735       1.96310136       1.08092321       0.00000000 NULL       0.10276000       0.04132700      -0.03166300
P        0.71883050       3.25486269       2.07288562       0.00000000 NULL      -0.03232000      -0.16718800       0.07105600
P        3.88839358       1.63559572       4.08370666       0.00000000 NULL      -0.05341100       0.13397100      -0.00403400
P        2.47222952       4.52917670       3.44049725       0.00000000 NULL       0.01476800       0.09233200      -0.09414400
P        2.25574655       2.92389974       5.09588437       0.00000000 NULL      -0.03179700      -0.10044200       0.05878500
5
Lattice="3.3594195121787642 -0.28196161072188575 0.15523582317864468 0.3701590666971758 4.177504689928341 0.6285744836369874 1.1137598115195086 2.51661068646732 6.520717317410175" Properties=species:S:1:pos:R:3:initial_magmoms:R:1:castep_labels:S:1:forces:R:3 n_minim_iter=20 energy=-27.660904727368 stress="-0.0018688076628222332 0.001747093012978364 -0.001631185359787351 0.001747093012978364 -0.002394340859905734 -0.0015065672116170536 -0.001631185359787351 -0.0015065672116170536 0.005305156002116511" free_energy=-27.660904727368 pbc="T T T"
P        2.36950107       1.93833179       1.03512607       0.00000000 NULL       0.09554200      -0.02726800       0.06125900
P        0.73132772       3.21714824       2.02568806       0.00000000 NULL       0.02485200      -0.08112600       0.09754300
P        3.88402591       1.62308913       4.06709147       0.00000000 NULL       0.06148600       0.08348800      -0.12697400
P        2.52916841       4.50532650       3.36983726       0.00000000 NULL      -0.12440200       0.04773400      -0.07445400
P        2.26338588       2.91123294       5.04875239       0.00000000 NULL      -0.05747800      -0.02282800       0.04262500
5
Lattice="3.3639107873798126 -0.2826652854759579 0.221208716197591 0.3904242217096819 4.197698334469997 0.5412415809212637 1.2568508877718558 2.379204811710752 6.459181722210732" Properties=species:S:1:pos:R:3:initial_magmoms:R:1:castep_labels:S:1:forces:R:3 n_minim_iter=21 energy=-27.678994904228 stress="0.00214669446140911 0.0039044270915459256 -0.0044336095472982985 0.0039044270915459256 -0.001219410381204636 -0.005380214456123377 -0.0044336095472982985 -0.005380214456123377 0.007914482425790128" free_energy=-27.678994904228 pbc="T T T"
P        2.48997864       1.86123622       1.02704723       0.00000000 NULL       0.01656200      -0.12378200      -0.00796000
P        0.82471287       3.13431618       1.96759016       0.00000000 NULL       0.04977800       0.12629300       0.05553500
P        3.93928969       1.59553192       4.09756651       0.00000000 NULL      -0.00395700      -0.05852300      -0.14124900
P        2.59610396       4.46870065       3.28613035       0.00000000 NULL      -0.06218800      -0.03449700      -0.00672200
P        2.28616480       2.89137262       5.00616536       0.00000000 NULL      -0.00019500       0.09050900       0.10039600
