52
Lattice="7.617849999999998 1.4477170768685239e-15 0.0 -2.6313649201376283 9.426522702835287 0.0 0.0 0.0 15.24157" Properties=species:S:1:pos:R:3:initial_magmoms:R:1:castep_labels:S:1 n_minim_iter=1 pbc="T T T"
P        2.28090272       3.40572536       4.83708752       0.00000000 NULL
P        2.70558236       6.02079735      12.45787252       0.00000000 NULL
P        2.70558236       6.02079735      10.40448248       0.00000000 NULL
P        2.28090272       3.40572536       2.78369748       0.00000000 NULL
P        0.58027487       5.62073101       8.74807133       0.00000000 NULL
P        4.40621021       3.80579170       1.12728633       0.00000000 NULL
P        4.40621021       3.80579170       6.49349867       0.00000000 NULL
P        0.58027487       5.62073101      14.11428367       0.00000000 NULL
P        1.92820962       0.75206212       4.81930213       0.00000000 NULL
P        3.05827546       8.67446059      12.44008713       0.00000000 NULL
P        3.05827546       8.67446059      10.42226787       0.00000000 NULL
P        1.92820962       0.75206212       2.80148287       0.00000000 NULL
P       -1.49890699       6.77723903      13.98952837       0.00000000 NULL
P        6.48539207       2.64928368       6.36874337       0.00000000 NULL
P        6.48539207       2.64928368       1.25204163       0.00000000 NULL
P       -1.49890699       6.77723903       8.87282663       0.00000000 NULL
P        3.77662465       2.52049192      14.95412009       0.00000000 NULL
P        1.20986043       6.90603079       7.33333509       0.00000000 NULL
P        1.20986043       6.90603079       0.28744991       0.00000000 NULL
P        3.77662465       2.52049192       7.90823491       0.00000000 NULL
P       -1.45400946       8.29652206       2.77487109       0.00000000 NULL
P        6.44049454       1.13000065      10.39565609       0.00000000 NULL
P        6.44049454       1.13000065      12.46669891       0.00000000 NULL
P       -1.45400946       8.29652206       4.84591391       0.00000000 NULL
P        4.71966791       5.69418059      10.41827001       0.00000000 NULL
P        0.26681717       3.73234212       2.79748501       0.00000000 NULL
P        0.26681717       3.73234212       4.82329999       0.00000000 NULL
P        4.71966791       5.69418059      12.44408499       0.00000000 NULL
P        1.29015342       9.10990466       9.47241170       0.00000000 NULL
P        3.69633166       0.31661805       1.85162670       0.00000000 NULL
P        3.69633166       0.31661805       5.76915830       0.00000000 NULL
P        1.29015342       9.10990466      13.38994330       0.00000000 NULL
P        0.16403061       7.42534075       9.77754336       0.00000000 NULL
P        4.82245447       2.00118196       2.15675836       0.00000000 NULL
P        4.82245447       2.00118196       5.46402664       0.00000000 NULL
P        0.16403061       7.42534075      13.08481164       0.00000000 NULL
P       -0.60499056       2.27746957      14.55437029       0.00000000 NULL
P        5.59147564       7.14905314       6.93358529       0.00000000 NULL
P        5.59147564       7.14905314       0.68719971       0.00000000 NULL
P       -0.60499056       2.27746957       8.30798471       0.00000000 NULL
P        5.11141962       1.07380537       7.44432877       0.00000000 NULL
P       -0.12493454       8.35271734      15.06511377       0.00000000 NULL
P       -0.12493454       8.35271734       7.79724123       0.00000000 NULL
P        5.11141962       1.07380537       0.17645623       0.00000000 NULL
P        5.44904232       3.69549572      10.40077268       0.00000000 NULL
P       -0.46255724       5.73102699       2.77998768       0.00000000 NULL
P       -0.46255724       5.73102699       4.84079732       0.00000000 NULL
P        5.44904232       3.69549572      12.46158232       0.00000000 NULL
P        4.02525515       8.90066602       5.34354965       0.00000000 NULL
P        0.96122993       0.52585669      12.96433465       0.00000000 NULL
P        0.96122993       0.52585669       9.89802035       0.00000000 NULL
P        4.02525515       8.90066602       2.27723535       0.00000000 NULL
52
Lattice="7.694669220939717 0.010200181634596184 0.0 -2.645277921761647 9.515378300050767 0.0 0.0 0.0 15.42754390255844" Properties=species:S:1:pos:R:3:initial_magmoms:R:1:castep_labels:S:1 n_minim_iter=2 pbc="T T T"
P        2.30869599       3.44212948       4.89632711       0.00000000 NULL
P        2.74069531       6.08344901      12.61009906       0.00000000 NULL
P        2.74069531       6.08344901      10.53121680       0.00000000 NULL
P        2.30869599       3.44212948       2.81744485       0.00000000 NULL
P        0.59363411       5.67625068       8.85493597       0.00000000 NULL
P        4.45575719       3.84932781       1.14116401       0.00000000 NULL
P        4.45575719       3.84932781       6.57260794       0.00000000 NULL
P        0.59363411       5.67625068      14.28637989       0.00000000 NULL
P        1.94856940       0.76238099       4.87837687       0.00000000 NULL
P        3.10082190       8.76319750      12.59214882       0.00000000 NULL
P        3.10082190       8.76319750      10.54916703       0.00000000 NULL
P        1.94856940       0.76238099       2.83539508       0.00000000 NULL
P       -1.50529415       6.84146415      14.16012628       0.00000000 NULL
P        6.55468545       2.68411434       6.44635433       0.00000000 NULL
P        6.55468545       2.68411434       1.26741762       0.00000000 NULL
P       -1.50529415       6.84146415       8.98118957       0.00000000 NULL
P        3.81770145       2.55033389      15.13618051       0.00000000 NULL
P        1.23168985       6.97524460       7.42240856       0.00000000 NULL
P        1.23168985       6.97524460       0.29136339       0.00000000 NULL
P        3.81770145       2.55033389       8.00513534       0.00000000 NULL
P       -1.45777096       8.37570213       2.80852046       0.00000000 NULL
P        6.50716226       1.14987636      10.52229241       0.00000000 NULL
P        6.50716226       1.14987636      12.61902345       0.00000000 NULL
P       -1.45777096       8.37570213       4.90525150       0.00000000 NULL
P        4.77510928       5.75639796      10.54506619       0.00000000 NULL
P        0.27428202       3.76918053       2.83129424       0.00000000 NULL
P        0.27428202       3.76918053       4.88247771       0.00000000 NULL
P        4.77510928       5.75639796      12.59624966       0.00000000 NULL
P        1.31533373       9.20124543       9.58799039       0.00000000 NULL
P        3.73405757       0.32433306       1.87421844       0.00000000 NULL
P        3.73405757       0.32433306       5.83955352       0.00000000 NULL
P        1.31533373       9.20124543      13.55332547       0.00000000 NULL
P        0.17568199       7.49833625       9.89729978       0.00000000 NULL
P        4.87370931       2.02724224       2.18352783       0.00000000 NULL
P        4.87370931       2.02724224       5.53024412       0.00000000 NULL
P        0.17568199       7.49833625      13.24401607       0.00000000 NULL
P       -0.60785193       2.29895955      14.73179527       0.00000000 NULL
P        5.65724323       7.22661894       7.01802332       0.00000000 NULL
P        5.65724323       7.22661894       0.69574863       0.00000000 NULL
P       -0.60785193       2.29895955       8.40952058       0.00000000 NULL
P        5.16457165       1.09090590       7.53528631       0.00000000 NULL
P       -0.11518035       8.43467259      15.24905826       0.00000000 NULL
P       -0.11518035       8.43467259       7.89225759       0.00000000 NULL
P        5.16457165       1.09090590       0.17848564       0.00000000 NULL
P        5.50895493       3.73890649      10.52752463       0.00000000 NULL
P       -0.45956363       5.78667200       2.81375268       0.00000000 NULL
P       -0.45956363       5.78667200       4.90001927       0.00000000 NULL
P        5.50895493       3.73890649      12.61379122       0.00000000 NULL
P        4.07786302       8.99322376       5.40867798       0.00000000 NULL
P        0.97152828       0.53235473      13.12244994       0.00000000 NULL
P        0.97152828       0.53235473      10.01886592       0.00000000 NULL
P        4.07786302       8.99322376       2.30509397       0.00000000 NULL
52
Lattice="8.054846581126128 0.06474067557240802 0.0 -2.7022009205465642 9.933972590931733 0.0 0.0 0.0 16.31267363841862" Properties=species:S:1:pos:R:3:initial_magmoms:R:1:castep_labels:S:1 n_minim_iter=3 pbc="T T T"
P        2.44207835       3.61634335       5.17828381       0.00000000 NULL
P        2.91056731       6.38236993      13.33462063       0.00000000 NULL
P        2.91056731       6.38236993      11.13438983       0.00000000 NULL
P        2.44207835       3.61634335       2.97805301       0.00000000 NULL
P        0.66119113       5.93958232       9.36356344       0.00000000 NULL
P        4.69145453       4.05913096       1.20722662       0.00000000 NULL
P        4.69145453       4.05913096       6.94911020       0.00000000 NULL
P        0.66119113       5.93958232      15.10544702       0.00000000 NULL
P        2.04468200       0.81301372       5.15968503       0.00000000 NULL
P        3.30796367       9.18569955      13.31602185       0.00000000 NULL
P        3.30796367       9.18569955      11.15298861       0.00000000 NULL
P        2.04468200       0.81301372       2.99665179       0.00000000 NULL
P       -1.52947548       7.14425232      14.97208383       0.00000000 NULL
P        6.88212114       2.85446095       6.81574701       0.00000000 NULL
P        6.88212114       2.85446095       1.34058981       0.00000000 NULL
P       -1.52947548       7.14425232       9.49692663       0.00000000 NULL
P        4.01233167       2.69481361      16.00248269       0.00000000 NULL
P        1.34031400       7.30389966       7.84614587       0.00000000 NULL
P        1.34031400       7.30389966       0.31019094       0.00000000 NULL
P        4.01233167       2.69481361       8.46652776       0.00000000 NULL
P       -1.46832701       8.74946917       2.96858483       0.00000000 NULL
P        6.82097267       1.24924410      11.12492165       0.00000000 NULL
P        6.82097267       1.24924410      13.34408881       0.00000000 NULL
P       -1.46832701       8.74946917       5.18775199       0.00000000 NULL
P        5.04021234       6.05490129      11.14843065       0.00000000 NULL
P        0.31243332       3.94381198       2.99209383       0.00000000 NULL
P        0.31243332       3.94381198       5.16424298       0.00000000 NULL
P        5.04021234       6.05490129      13.32057980       0.00000000 NULL
P        1.44142944       9.63497030      10.13812034       0.00000000 NULL
P        3.91121622       0.36374297       1.98178352       0.00000000 NULL
P        3.91121622       0.36374297       6.17455330       0.00000000 NULL
P        1.44142944       9.63497030      14.33089012       0.00000000 NULL
P        0.23688016       7.84414380      10.46754026       0.00000000 NULL
P        5.11576550       2.15456947       2.31120344       0.00000000 NULL
P        5.11576550       2.15456947       5.84513338       0.00000000 NULL
P        0.23688016       7.84414380      14.00147020       0.00000000 NULL
P       -0.61919829       2.40019607      15.57625191       0.00000000 NULL
P        5.97184395       7.59851721       7.41991509       0.00000000 NULL
P        5.97184395       7.59851721       0.73642173       0.00000000 NULL
P       -0.61919829       2.40019607       8.89275855       0.00000000 NULL
P        5.41481340       1.17598884       7.96827352       0.00000000 NULL
P       -0.06216774       8.82272444      16.12461034       0.00000000 NULL
P       -0.06216774       8.82272444       8.34440012       0.00000000 NULL
P        5.41481340       1.17598884       0.18806330       0.00000000 NULL
P        5.79308571       3.94895342      11.13083999       0.00000000 NULL
P       -0.44044005       6.04975986       2.97450317       0.00000000 NULL
P       -0.44044005       6.04975986       5.18183365       0.00000000 NULL
P        5.79308571       3.94895342      13.33817047       0.00000000 NULL
P        4.33259444       9.43473622       5.71859182       0.00000000 NULL
P        1.02005122       0.56397705      13.87492864       0.00000000 NULL
P        1.02005122       0.56397705      10.59408182       0.00000000 NULL
P        4.33259444       9.43473622       2.43774500       0.00000000 NULL
52
Lattice="8.110835731922855 0.11646281731619094 0.0 -2.657538442803861 10.03287337227895 0.0 0.0 0.0 16.57477867576986" Properties=species:S:1:pos:R:3:initial_magmoms:R:1:castep_labels:S:1 n_minim_iter=4 pbc="T T T"
P        2.48243046       3.67379761       5.26157898       0.00000000 NULL
P        2.97086683       6.47553859      13.54896832       0.00000000 NULL
P        2.97086683       6.47553859      11.31319970       0.00000000 NULL
P        2.48243046       3.67379761       3.02581036       0.00000000 NULL
P        0.70335582       6.01284596       9.51416915       0.00000000 NULL
P        4.74994147       4.13649024       1.22677981       0.00000000 NULL
P        4.74994147       4.13649024       7.06060953       0.00000000 NULL
P        0.70335582       6.01284596      15.34799887       0.00000000 NULL
P        2.06384379       0.83674293       5.24345287       0.00000000 NULL
P        3.38945350       9.31259327      13.53084221       0.00000000 NULL
P        3.38945350       9.31259327      11.33132581       0.00000000 NULL
P        2.06384379       0.83674293       3.04393647       0.00000000 NULL
P       -1.49555645       7.21734139      15.21279231       0.00000000 NULL
P        6.94885374       2.93199481       6.92540297       0.00000000 NULL
P        6.94885374       2.93199481       1.36198636       0.00000000 NULL
P       -1.49555645       7.21734139       9.64937570       0.00000000 NULL
P        4.05614408       2.75218279      16.25848205       0.00000000 NULL
P        1.39715321       7.39715341       7.97109271       0.00000000 NULL
P        1.39715321       7.39715341       0.31629662       0.00000000 NULL
P        4.05614408       2.75218279       8.60368596       0.00000000 NULL
P       -1.42409674       8.84234382       3.01578030       0.00000000 NULL
P        6.87739403       1.30699238      11.30316963       0.00000000 NULL
P        6.87739403       1.30699238      13.55899838       0.00000000 NULL
P       -1.42409674       8.84234382       5.27160904       0.00000000 NULL
P        5.11425072       6.15755461      11.32696983       0.00000000 NULL
P        0.33904657       3.99178158       3.03958049       0.00000000 NULL
P        0.33904657       3.99178158       5.24780884       0.00000000 NULL
P        5.11425072       6.15755461      13.53519818       0.00000000 NULL
P        1.51283827       9.75767816      10.30122286       0.00000000 NULL
P        3.94045902       0.39165803       2.01383352       0.00000000 NULL
P        3.94045902       0.39165803       6.27355582       0.00000000 NULL
P        1.51283827       9.75767816      14.56094516       0.00000000 NULL
P        0.28877221       7.93721820      10.63735969       0.00000000 NULL
P        5.16452508       2.21211800       2.34997035       0.00000000 NULL
P        5.16452508       2.21211800       5.93741898       0.00000000 NULL
P        0.28877221       7.93721820      14.22480832       0.00000000 NULL
P       -0.60792076       2.42400177      15.82657775       0.00000000 NULL
P        6.06121804       7.72533442       7.53918841       0.00000000 NULL
P        6.06121804       7.72533442       0.74820093       0.00000000 NULL
P       -0.60792076       2.42400177       9.03559026       0.00000000 NULL
P        5.46029419       1.22347196       8.09682890       0.00000000 NULL
P       -0.00699690       8.92586424      16.38421824       0.00000000 NULL
P       -0.00699690       8.92586424       8.47794978       0.00000000 NULL
P        5.46029419       1.22347196       0.19056044       0.00000000 NULL
P        5.85801135       4.03182386      11.30987919       0.00000000 NULL
P       -0.40471406       6.11751233       3.02248985       0.00000000 NULL
P       -0.40471406       6.11751233       5.26489949       0.00000000 NULL
P        5.85801135       4.03182386      13.55228882       0.00000000 NULL
P        4.42396672       9.57188457       5.81017236       0.00000000 NULL
P        1.02933056       0.57745163      14.09756170       0.00000000 NULL
P        1.02933056       0.57745163      10.76460632       0.00000000 NULL
P        4.42396672       9.57188457       2.47721698       0.00000000 NULL
52
Lattice="8.089158401385664 0.16362573134139746 0.0 -2.591690041098879 10.051253046179426 0.0 0.0 0.0 16.65702124078943" Properties=species:S:1:pos:R:3:initial_magmoms:R:1:castep_labels:S:1 n_minim_iter=5 pbc="T T T"
P        2.49738673       3.70016519       5.28746807       0.00000000 NULL
P        3.00008163       6.51471359      13.61597869       0.00000000 NULL
P        3.00008163       6.51471359      11.36955317       0.00000000 NULL
P        2.49738673       3.70016519       3.04104255       0.00000000 NULL
P        0.73613478       6.03723179       9.56140204       0.00000000 NULL
P        4.76133358       4.17764699       1.23289142       0.00000000 NULL
P        4.76133358       4.17764699       7.09561920       0.00000000 NULL
P        0.73613478       6.03723179      15.42412982       0.00000000 NULL
P        2.06290801       0.85272992       5.27022581       0.00000000 NULL
P        3.43456035       9.36214887      13.59873643       0.00000000 NULL
P        3.43456035       9.36214887      11.38679543       0.00000000 NULL
P        2.06290801       0.85272992       3.05828481       0.00000000 NULL
P       -1.45027729       7.23227850      15.28869614       0.00000000 NULL
P        6.94774565       2.98260029       6.96018552       0.00000000 NULL
P        6.94774565       2.98260029       1.36832510       0.00000000 NULL
P       -1.45027729       7.23227850       9.69683572       0.00000000 NULL
P        4.06005179       2.78551480      16.33819023       0.00000000 NULL
P        1.43741657       7.42936399       8.00967961       0.00000000 NULL
P        1.43741657       7.42936399       0.31883101       0.00000000 NULL
P        4.06005179       2.78551480       8.64734163       0.00000000 NULL
P       -1.37019976       8.86413033       3.03038018       0.00000000 NULL
P        6.86766812       1.35074845      11.35889081       0.00000000 NULL
P        6.86766812       1.35074845      13.62664106       0.00000000 NULL
P       -1.37019976       8.86413033       5.29813044       0.00000000 NULL
P        5.13676184       6.20765882      11.38287336       0.00000000 NULL
P        0.36070653       4.00721997       3.05436274       0.00000000 NULL
P        0.36070653       4.00721997       5.27414788       0.00000000 NULL
P        5.13676184       6.20765882      13.60265850       0.00000000 NULL
P        1.56565346       9.80025394      10.35259275       0.00000000 NULL
P        3.93181490       0.41462485       2.02408213       0.00000000 NULL
P        3.93181490       0.41462485       6.30442849       0.00000000 NULL
P        1.56565346       9.80025394      14.63293911       0.00000000 NULL
P        0.33462709       7.96554581      10.69171993       0.00000000 NULL
P        5.16284127       2.24933297       2.36320931       0.00000000 NULL
P        5.16284127       2.24933297       5.96530131       0.00000000 NULL
P        0.33462709       7.96554581      14.29381193       0.00000000 NULL
P       -0.59206920       2.42819850      15.90541124       0.00000000 NULL
P        6.08953756       7.78668028       7.57690062       0.00000000 NULL
P        6.08953756       7.78668028       0.75161000       0.00000000 NULL
P       -0.59206920       2.42819850       9.08012062       0.00000000 NULL
P        5.45311992       1.25871758       8.13751186       0.00000000 NULL
P        0.04434844       8.95616120      16.46602248       0.00000000 NULL
P        0.04434844       8.95616120       8.51950938       0.00000000 NULL
P        5.45311992       1.25871758       0.19099876       0.00000000 NULL
P        5.86507650       4.07942156      11.36653811       0.00000000 NULL
P       -0.36760814       6.13545723       3.03802749       0.00000000 NULL
P       -0.36760814       6.13545723       5.29048313       0.00000000 NULL
P        5.86507650       4.07942156      13.61899375       0.00000000 NULL
P        4.46934861       9.62901431       5.83868011       0.00000000 NULL
P        1.02811975       0.58586448      14.16719073       0.00000000 NULL
P        1.02811975       0.58586448      10.81834113       0.00000000 NULL
P        4.46934861       9.62901431       2.48983051       0.00000000 NULL
52
Lattice="8.037509252151406 0.23189266132664677 0.0 -2.489374095680058 10.057658464626167 0.0 0.0 0.0 16.709852285336442" Properties=species:S:1:pos:R:3:initial_magmoms:R:1:castep_labels:S:1 n_minim_iter=6 pbc="T T T"
P        2.51321766       3.73087454       5.30362743       0.00000000 NULL
P        3.03491749       6.55867660      13.65855357       0.00000000 NULL
P        3.03491749       6.55867660      11.40622486       0.00000000 NULL
P        2.51321766       3.73087454       3.05129872       0.00000000 NULL
P        0.78184544       6.06073617       9.59164600       0.00000000 NULL
P        4.76628972       4.22881497       1.23671986       0.00000000 NULL
P        4.76628972       4.22881497       7.11820629       0.00000000 NULL
P        0.78184544       6.06073617      15.47313243       0.00000000 NULL
P        2.05624986       0.87473496       5.28821492       0.00000000 NULL
P        3.49188530       9.41481617      13.64314107       0.00000000 NULL
P        3.49188530       9.41481617      11.42163736       0.00000000 NULL
P        2.05624986       0.87473496       3.06671122       0.00000000 NULL
P       -1.38110231       7.23902477      15.33815493       0.00000000 NULL
P        6.92923747       3.05052636       6.98322879       0.00000000 NULL
P        6.92923747       3.05052636       1.37169735       0.00000000 NULL
P       -1.38110231       7.23902477       9.72662350       0.00000000 NULL
P        4.05517199       2.82892537      16.38823563       0.00000000 NULL
P        1.49296316       7.46062576       8.03330949       0.00000000 NULL
P        1.49296316       7.46062576       0.32161665       0.00000000 NULL
P        4.05517199       2.82892537       8.67654280       0.00000000 NULL
P       -1.28896864       8.87825837       3.03942686       0.00000000 NULL
P        6.83710380       1.41129277      11.39435300       0.00000000 NULL
P        6.83710380       1.41129277      13.67042543       0.00000000 NULL
P       -1.28896864       8.87825837       5.31549928       0.00000000 NULL
P        5.15725957       6.26793242      11.41858939       0.00000000 NULL
P        0.39087559       4.02161872       3.06366325       0.00000000 NULL
P        0.39087559       4.02161872       5.29126290       0.00000000 NULL
P        5.15725957       6.26793242      13.64618904       0.00000000 NULL
P        1.63861116       9.84283345      10.38588416       0.00000000 NULL
P        3.90952400       0.44671768       2.03095802       0.00000000 NULL
P        3.90952400       0.44671768       6.32396813       0.00000000 NULL
P        1.63861116       9.84283345      14.67889427       0.00000000 NULL
P        0.40075467       7.99077211      10.72857615       0.00000000 NULL
P        5.14738049       2.29877903       2.37365001       0.00000000 NULL
P        5.14738049       2.29877903       5.98127613       0.00000000 NULL
P        0.40075467       7.99077211      14.33620227       0.00000000 NULL
P       -0.56761669       2.42906596      15.95654631       0.00000000 NULL
P        6.11575185       7.86048517       7.60162017       0.00000000 NULL
P        6.11575185       7.86048517       0.75330597       0.00000000 NULL
P       -0.56761669       2.42906596       9.10823211       0.00000000 NULL
P        5.42966920       1.30726391       8.16421754       0.00000000 NULL
P        0.11846596       8.98228722      16.51914368       0.00000000 NULL
P        0.11846596       8.98228722       8.54563474       0.00000000 NULL
P        5.42966920       1.30726391       0.19070860       0.00000000 NULL
P        5.86065955       4.14055480      11.40380894       0.00000000 NULL
P       -0.31252439       6.14899634       3.04888280       0.00000000 NULL
P       -0.31252439       6.14899634       5.30604335       0.00000000 NULL
P        5.86065955       4.14055480      13.66096949       0.00000000 NULL
P        4.52520751       9.69237997       5.85662954       0.00000000 NULL
P        1.02292764       0.59717117      14.21155568       0.00000000 NULL
P        1.02292764       0.59717117      10.85322274       0.00000000 NULL
P        4.52520751       9.69237997       2.49829660       0.00000000 NULL
52
Lattice="8.019432322104942 0.28252387660659123 0.0 -2.4204775828980303 10.07630105057874 0.0 0.0 0.0 16.719075879710577" Properties=species:S:1:pos:R:3:initial_magmoms:R:1:castep_labels:S:1 n_minim_iter=7 pbc="T T T"
P        2.53204513       3.75818153       5.30544090       0.00000000 NULL
P        3.06690961       6.60064340      13.66497884       0.00000000 NULL
P        3.06690961       6.60064340      11.41363498       0.00000000 NULL
P        2.53204513       3.75818153       3.05409704       0.00000000 NULL
P        0.81674493       6.08687403       9.59660739       0.00000000 NULL
P        4.78220980       4.27195090       1.23706945       0.00000000 NULL
P        4.78220980       4.27195090       7.12246849       0.00000000 NULL
P        0.81674493       6.08687403      15.48200643       0.00000000 NULL
P        2.05573613       0.89378485       5.29277534       0.00000000 NULL
P        3.54321861       9.46504008      13.65231328       0.00000000 NULL
P        3.54321861       9.46504008      11.42630054       0.00000000 NULL
P        2.05573613       0.89378485       3.06676260       0.00000000 NULL
P       -1.33514018       7.25288822      15.34822418       0.00000000 NULL
P        6.93409492       3.10593671       6.98868624       0.00000000 NULL
P        6.93409492       3.10593671       1.37085170       0.00000000 NULL
P       -1.33514018       7.25288822       9.73038964       0.00000000 NULL
P        4.05975854       2.86663112      16.39453062       0.00000000 NULL
P        1.53919620       7.49219381       8.03499268       0.00000000 NULL
P        1.53919620       7.49219381       0.32454526       0.00000000 NULL
P        4.05975854       2.86663112       8.68408320       0.00000000 NULL
P       -1.23460387       8.90202974       3.04043048       0.00000000 NULL
P        6.83355861       1.45679519      11.39996842       0.00000000 NULL
P        6.83355861       1.45679519      13.67864540       0.00000000 NULL
P       -1.23460387       8.90202974       5.31910746       0.00000000 NULL
P        5.18668323       6.32099044      11.42444487       0.00000000 NULL
P        0.41227151       4.03783449       3.06490693       0.00000000 NULL
P        0.41227151       4.03783449       5.29463101       0.00000000 NULL
P        5.18668323       6.32099044      13.65416895       0.00000000 NULL
P        1.69589084       9.88946059      10.39217706       0.00000000 NULL
P        3.90306390       0.46936435       2.03263912       0.00000000 NULL
P        3.90306390       0.46936435       6.32689882       0.00000000 NULL
P        1.69589084       9.88946059      14.68643676       0.00000000 NULL
P        0.45079348       8.02085942      10.73892522       0.00000000 NULL
P        5.14816126       2.33796551       2.37938728       0.00000000 NULL
P        5.14816126       2.33796551       5.98015066       0.00000000 NULL
P        0.45079348       8.02085942      14.33968860       0.00000000 NULL
P       -0.55116810       2.43208929      15.96642571       0.00000000 NULL
P        6.15012283       7.92673564       7.60688777       0.00000000 NULL
P        6.15012283       7.92673564       0.75265017       0.00000000 NULL
P       -0.55116810       2.43208929       9.11218811       0.00000000 NULL
P        5.42760016       1.34404229       8.16994474       0.00000000 NULL
P        0.17135458       9.01478265      16.52948268       0.00000000 NULL
P        0.17135458       9.01478265       8.54913114       0.00000000 NULL
P        5.42760016       1.34404229       0.18959320       0.00000000 NULL
P        5.87144472       4.19168979      11.41208509       0.00000000 NULL
P       -0.27248998       6.16713514       3.05254715       0.00000000 NULL
P       -0.27248998       6.16713514       5.30699079       0.00000000 NULL
P        5.87144472       4.19168979      13.66652873       0.00000000 NULL
P        4.57999688       9.75167008       5.85912483       0.00000000 NULL
P        1.01895786       0.60715486      14.21866277       0.00000000 NULL
P        1.01895786       0.60715486      10.85995105       0.00000000 NULL
P        4.57999688       9.75167008       2.50041311       0.00000000 NULL
52
Lattice="8.00207740031043 0.2998353489194286 0.0 -2.393061170238514 10.059316794313663 0.0 0.0 0.0 16.650264275751127" Properties=species:S:1:pos:R:3:initial_magmoms:R:1:castep_labels:S:1 n_minim_iter=8 pbc="T T T"
P        2.53674952       3.75822088       5.28212923       0.00000000 NULL
P        3.07226671       6.60093127      13.60726137       0.00000000 NULL
P        3.07226671       6.60093127      11.36813505       0.00000000 NULL
P        2.53674952       3.75822088       3.04300291       0.00000000 NULL
P        0.82684867       6.08277943       9.55651525       0.00000000 NULL
P        4.78216756       4.27637272       1.23138311       0.00000000 NULL
P        4.78216756       4.27637272       7.09374903       0.00000000 NULL