20
Lattice="5.122526023570094 -0.9888011629394534 -0.8826136541359462 -1.1814619862556053 5.081549781023134 -0.8826136541359244 -4.759705255444474 -4.9428978880486465 20.258733673407654" Properties=species:S:1:pos:R:3:initial_magmoms:R:1:castep_labels:S:1:forces:R:3 n_minim_iter=1 energy=-107.09682374075 stress="0.0012237063598355808 0.0002704628700436253 -0.000262985145275006 0.0002704628700436253 0.0012441868938457758 -0.0002731255613558934 -0.000262985145275006 -0.0002731255613558934 0.0004178872123661987" free_energy=-107.09682374075 pbc="T T T"
P       -0.93717758       2.18441303       3.50171026       0.00000000 NULL       0.01037100      -0.04048800      -0.00298100
P       -0.16161980      -3.32550117      13.63107710       0.00000000 NULL      -0.04085100       0.00883600      -0.00298200
P        1.43394432      -0.50442463       8.64874880       0.00000000 NULL      -0.12424100      -0.01766100      -0.02502900
P       -2.93804641      -1.05756767      18.77811564       0.00000000 NULL      -0.01295700      -0.12482100      -0.02502400
P        0.26595588      -1.04374742      13.64829831       0.00000000 NULL       0.03360600      -0.02546000      -0.05742600
P        1.32680976       2.69781582       3.51893147       0.00000000 NULL      -0.02671200       0.03262300      -0.05742500
P       -0.70304799       1.40369488       5.60596453       0.00000000 NULL       0.05732500      -0.00298400      -0.01584900
P       -0.95061947      -3.12100906      15.73533137       0.00000000 NULL      -0.00514500       0.05717100      -0.01584900
P        1.24927646       2.03975663      -0.39732898       0.00000000 NULL       0.13316700       0.11997700      -0.05688200
P       -0.38870757      -1.14606594       9.73203786       0.00000000 NULL       0.11486400       0.13760200      -0.05688100
P       -3.18170394      -2.61993279      15.44474016       0.00000000 NULL       0.00405800      -0.08058100       0.04113600
P       -0.11810968      -0.80688479       5.31537332       0.00000000 NULL      -0.08067600       0.00101200       0.04113600
P        2.90139724       3.30080914       0.34332694       0.00000000 NULL       0.05071000      -0.07071100      -0.08030600
P        0.80908178       0.55247967      10.47269378       0.00000000 NULL      -0.07257600       0.04800600      -0.08030000
P       -2.65826587      -0.45427107      15.08639417       0.00000000 NULL       0.01730200      -0.01645300      -0.00343000
P        2.02624977      -0.20207020       4.95702733       0.00000000 NULL      -0.01709400       0.01666800      -0.00343000
P        0.69252338      -5.91299757      16.63519728       0.00000000 NULL       0.03938300       0.02846700       0.02860300
P       -3.55507212       2.94027441       6.50583044       0.00000000 NULL       0.02696000       0.04042900       0.02860200
P       -0.37618106       0.77982704       8.61338548       0.00000000 NULL       0.11635200      -0.21961100       0.17215800
P       -1.58638128      -2.81792491      18.74275231       0.00000000 NULL      -0.22384600       0.10798000       0.17215900
20
Lattice="5.115889181819311 -0.9892219367092566 -0.8810743318266108 -1.1816319320588682 5.0749017860310905 -0.881074331826589 -4.746410327807655 -4.929091262173521 20.246947805476687" Properties=species:S:1:pos:R:3:initial_magmoms:R:1:castep_labels:S:1:forces:R:3 n_minim_iter=2 energy=-107.098159006549 stress="-0.0004696539113279756 3.3608710776988916e-05 -0.0001048547261393343 3.3608710776988916e-05 -0.0004670720501027235 -0.00010888331994770184 -0.0001048547261393343 -0.00010888331994770184 -0.0004389609231415731" free_energy=-107.098159006549 pbc="T T T"
P       -0.93558033       2.18271143       3.50051736       0.00000000 NULL      -0.01423900      -0.05126800      -0.02308700
P       -0.15673302      -3.31706598      13.62399126       0.00000000 NULL      -0.05069500      -0.01616400      -0.02308800
P        1.43434882      -0.50169647       8.64509502       0.00000000 NULL      -0.06449500      -0.02744900      -0.05054100
P       -2.92868800      -1.05015717      18.76856893       0.00000000 NULL      -0.02499300      -0.06548400      -0.05053900
P        0.26980959      -1.03853390      13.64185918       0.00000000 NULL       0.03316700      -0.00611100      -0.07260700
P        1.32522663       2.69496027       3.51838527       0.00000000 NULL      -0.00736000       0.03291500      -0.07260600
P       -0.70083127       1.40366033       5.60364332       0.00000000 NULL       0.04065000      -0.00270100      -0.00099500
P       -0.94409021      -3.11189191      15.72711722       0.00000000 NULL      -0.00423300       0.04051800      -0.00099500
P        1.24726487       2.03686277      -0.39634372       0.00000000 NULL       0.06758300       0.06810800      -0.02810200
P       -0.38487596      -1.14128202       9.72713018       0.00000000 NULL       0.06551000       0.07010900      -0.02810400
P       -3.17247140      -2.61124709      15.43631104       0.00000000 NULL      -0.00438200      -0.09794000       0.04743000
P       -0.11642614      -0.80423428       5.31283713       0.00000000 NULL      -0.09770500      -0.00807700       0.04743000
P        2.89688293       3.29553452       0.34475609       0.00000000 NULL       0.07696200      -0.04696100      -0.05110100
P        0.81062879       0.55467278      10.46823000       0.00000000 NULL      -0.04983200       0.07513500      -0.05109600
P       -2.65040763      -0.44855758      15.07879536       0.00000000 NULL       0.02320200       0.00110600      -0.00703000
P        2.02501509      -0.20090520       4.95532146       0.00000000 NULL       0.00022900       0.02322500      -0.00703000
P        0.69807222      -5.90046096      16.62633600       0.00000000 NULL       0.05176800       0.04807500       0.04428700
P       -3.54940136       2.93938923       6.50286210       0.00000000 NULL       0.04608700       0.05354500       0.04428600
P       -0.37322920       0.78088773       8.61008007       0.00000000 NULL       0.08470200      -0.16885100       0.14174300
P       -1.57878530      -2.80803180      18.73355397       0.00000000 NULL      -0.17192600       0.07826900       0.14174400
20
Lattice="5.118632599148784 -0.9955140306331712 -0.8773956750917115 -1.1880231002799881 5.077405733586524 -0.8773956750916896 -4.716888709797035 -4.89843340932653 20.279059804742925" Properties=species:S:1:pos:R:3:initial_magmoms:R:1:castep_labels:S:1:forces:R:3 n_minim_iter=3 energy=-107.10125933233 stress="-4.4674365451102674e-05 -0.00043753816212661385 0.00062025054952519 -0.00043753816212661385 -7.774759230690906e-05 0.0006441404659059436 0.00062025054952519 0.0006441404659059436 0.0009434853327195636" free_energy=-107.10125933233 pbc="T T T"
P       -0.93338835       2.18870024       3.50988497       0.00000000 NULL       0.00626300      -0.03004100       0.03431100
P       -0.13607041      -3.29932056      13.64941487       0.00000000 NULL      -0.03025600       0.00512400       0.03431200
P        1.44594352      -0.49131988       8.66495307       0.00000000 NULL      -0.02135600       0.01762600      -0.02097900
P       -2.90399567      -1.02285011      18.80448297       0.00000000 NULL       0.01841900      -0.02067300      -0.02098100
P        0.29050969      -1.01992665      13.67010570       0.00000000 NULL       0.04985200      -0.01429200      -0.02934500
P        1.32827843       2.70101907       3.53057580       0.00000000 NULL      -0.01616300       0.04927600      -0.02934500
P       -0.69375813       1.41303815       5.61727129       0.00000000 NULL       0.04449800      -0.01812700      -0.02351200
P       -0.92022527      -3.08914089      15.75680119       0.00000000 NULL      -0.01979400       0.04378200      -0.02351200
P        1.24747279       2.03802553      -0.39332528       0.00000000 NULL      -0.00975800       0.01580900       0.04138900
P       -0.36896107      -1.12570144       9.74620462       0.00000000 NULL       0.01616800      -0.00915700       0.04139000
P       -3.15074653      -2.58966340      15.46405167       0.00000000 NULL      -0.00658300      -0.07435900       0.03359000
P       -0.11043872      -0.79703908       5.32452176       0.00000000 NULL      -0.07405800      -0.00938400       0.03359000
P        2.89774178       3.29412610       0.35304760       0.00000000 NULL       0.03149000      -0.03742500      -0.11721400
P        0.82394977       0.57080678      10.49257751       0.00000000 NULL      -0.03858500       0.03005400      -0.11721100
P       -2.63024594      -0.42483284      15.10844709       0.00000000 NULL       0.02140300      -0.01118000      -0.00189300
P        2.03320104      -0.19519124       4.96891718       0.00000000 NULL      -0.01198000       0.02096600      -0.00189300
P        0.72777338      -5.87938430      16.65729049       0.00000000 NULL       0.03236300       0.02717100      -0.01728900
P       -3.54422170       2.95453589       6.51776058       0.00000000 NULL       0.02592900       0.03336600      -0.01728900
P       -0.36020619       0.79013827       8.63337719       0.00000000 NULL       0.07414100      -0.08925500       0.10093700
P       -1.55527214      -2.77933996      18.77290709       0.00000000 NULL      -0.09199400       0.07072100       0.10094200
20
Lattice="5.1230192404275465 -0.9913808369510985 -0.8803164769310378 -1.1840584396926002 5.081945268601135 -0.880316476931016 -4.745027750830935 -4.927655472255547 20.26232843009068" Properties=species:S:1:pos:R:3:initial_magmoms:R:1:castep_labels:S:1:forces:R:3 n_minim_iter=4 energy=-107.104253374799 stress="6.970954939371578e-05 0.0004021602439259595 0.0002202812891942004 0.0004021602439259595 0.00010006335763798958 0.0002287732603830659 0.0002202812891942004 0.0002287732603830659 -0.00027755220715983906" free_energy=-107.104253374799 pbc="T T T"
P       -0.93603213       2.18504045       3.50386951       0.00000000 NULL       0.01575400      -0.01693200       0.02101400
P       -0.15369732      -3.31671164      13.63503373       0.00000000 NULL      -0.01751500       0.01510300       0.02101400
P        1.43633394      -0.49994220       8.65160665       0.00000000 NULL       0.01919000      -0.03033500      -0.02733500
P       -2.92631862      -1.04738934      18.78277086       0.00000000 NULL      -0.03103900       0.01803800      -0.02734300
P        0.27740048      -1.03510686      13.65134637       0.00000000 NULL       0.03654500      -0.02331300      -0.01636900
P        1.32767340       2.70195721       3.52018215       0.00000000 NULL      -0.02467500       0.03563700      -0.01636900
P       -0.69751905       1.40773227       5.60887686       0.00000000 NULL       0.04368600      -0.00616500      -0.01515500
P       -0.93945491      -3.10771045      15.74004107       0.00000000 NULL      -0.00781000       0.04342300      -0.01515500
P        1.25218530       2.04306267      -0.39653304       0.00000000 NULL      -0.05127200       0.02425900       0.05478400
P       -0.37817493      -1.13541317       9.73463118       0.00000000 NULL       0.02618200      -0.05031900       0.05478100
P       -3.17100548      -2.61309853      15.45088663       0.00000000 NULL      -0.00213800      -0.03673800       0.02111900
P       -0.11902289      -0.80355719       5.31972242       0.00000000 NULL      -0.03663200      -0.00352300       0.02111900
P        2.90420325       3.29767679       0.34412971       0.00000000 NULL       0.03456600       0.02695800       0.00614000
P        0.81318450       0.56278665      10.47529393       0.00000000 NULL       0.02563600       0.03555600       0.00613400
P       -2.64724058      -0.44313259      15.09162474       0.00000000 NULL       0.01525700      -0.03113000       0.00057700
P        2.02962537      -0.19825352       4.96046052       0.00000000 NULL      -0.03168400       0.01407100       0.00057700
P        0.70831701      -5.90023645      16.64158113       0.00000000 NULL       0.02186300       0.00474200      -0.02308600
P       -3.55025502       2.94891729       6.51041692       0.00000000 NULL       0.00391300       0.02202700      -0.02308500
P       -0.36596200       0.77716677       8.62554398       0.00000000 NULL      -0.03785900      -0.00339800      -0.02168000
P       -1.58208664      -2.80019235      18.75670820       0.00000000 NULL      -0.00196700      -0.03796000      -0.02168100
20
Lattice="5.124493156894532 -0.995534612716641 -0.8839406678384394 -1.1882648925342811 5.083261337502362 -0.8839406678384178 -4.7555878119007 -4.93862197138902 20.281198222380656" Properties=species:S:1:pos:R:3:initial_magmoms:R:1:castep_labels:S:1:forces:R:3 n_minim_iter=5 energy=-107.10478428284 stress="2.8102549122149776e-05 -0.00014727242816773285 -8.639095936761816e-05 -0.00014727242816773285 1.695461362653358e-05 -8.971539341203651e-05 -8.639095936761816e-05 -8.971539341203651e-05 4.607665585563831e-05" free_energy=-107.10478428284 pbc="T T T"
P       -0.94071794       2.18262054       3.50491656       0.00000000 NULL      -0.00028200      -0.02883900       0.03047300
P       -0.16121865      -3.32696871      13.64551567       0.00000000 NULL      -0.02880700      -0.00137100       0.03047300
P        1.42997308      -0.50838964       8.65538304       0.00000000 NULL      -0.00190100      -0.01774400      -0.01061000
P       -2.93979997      -1.05954779      18.79598215       0.00000000 NULL      -0.01766100      -0.00256900      -0.01061300
P        0.26838086      -1.04629261      13.65919595       0.00000000 NULL       0.02924100      -0.02939800       0.00270800
P        1.32211613       2.69800503       3.51859684       0.00000000 NULL      -0.03048000       0.02810800       0.00270700
P       -0.70265452       1.40373979       5.61128577       0.00000000 NULL       0.04911200       0.00001400      -0.02865900
P       -0.94853072      -3.11847621      15.75188488       0.00000000 NULL      -0.00184000       0.04907800      -0.02865900
P        1.25044584       2.04241163      -0.39907050       0.00000000 NULL      -0.07137800       0.00825400       0.03279800
P       -0.38403987      -1.14265922       9.74152861       0.00000000 NULL       0.01094300      -0.07101600       0.03279800
P       -3.18020815      -2.62267671      15.46436472       0.00000000 NULL      -0.00573600      -0.03320900       0.01783000
P       -0.12296682      -0.80763161       5.32376561       0.00000000 NULL      -0.03296900      -0.00698500       0.01783100
P        2.90117104       3.29417483       0.33914451       0.00000000 NULL       0.05893700       0.06198600       0.01975300
P        0.80451946       0.55414116      10.47974362       0.00000000 NULL       0.05971700       0.06123300       0.01974900
P       -2.65805257      -0.45270838      15.10241471       0.00000000 NULL       0.01978200      -0.03007300       0.00185500
P        2.02574456      -0.20393603       4.96181560       0.00000000 NULL      -0.03079800       0.01863300       0.00185600
P        0.70164841      -5.91328240      16.65501004       0.00000000 NULL       0.03230100       0.01407400      -0.03740600
P       -3.55775992       2.94724423       6.51441093       0.00000000 NULL       0.01284500       0.03281000      -0.03740500
P       -0.37308226       0.76980596       8.63057206       0.00000000 NULL      -0.03430700      -0.01802200      -0.02873800
P       -1.59445346      -2.81306864      18.77117117       0.00000000 NULL      -0.01671500      -0.03496400      -0.02874000
20
Lattice="5.120126328157487 -0.9943822953813914 -0.8905261365825969 -1.1869485570422544 5.0789411188351865 -0.8905261365825754 -4.773674514017856 -4.957404798664804 20.331330129593002" Properties=species:S:1:pos:R:3:initial_magmoms:R:1:castep_labels:S:1:forces:R:3 n_minim_iter=6 energy=-107.108061445469 stress="-0.00036769446996756834 0.0005679809843894563 -0.00018467862133432887 0.0005679809843894563 -0.0003247505936740995 -0.00019177311819231028 -0.00018467862133432887 -0.00019177311819231028 0.0009316626295717289" free_energy=-107.108061445469 pbc="T T T"
P       -0.94391947       2.17154734       3.51323849       0.00000000 NULL      -0.05483800      -0.03058700       0.00172000
P       -0.18120646      -3.33997736      13.67890355       0.00000000 NULL      -0.02849500      -0.05595200       0.00171900
P        1.41677675      -0.52198023       8.66750455       0.00000000 NULL       0.00074700      -0.01026700       0.07184700
P       -2.96192608      -1.08263915      18.83316961       0.00000000 NULL      -0.01029000       0.00035800       0.07184500
P        0.25696289      -1.06597168      13.68377226       0.00000000 NULL      -0.00895400       0.00603400       0.02476400
P        1.31192545       2.69524377       3.51810720       0.00000000 NULL       0.00636600      -0.00871700       0.02476500
P       -0.70167212       1.39487674       5.61760280       0.00000000 NULL      -0.00848300       0.03207600       0.00239100
P       -0.96646790      -3.12722049      15.78326786       0.00000000 NULL       0.03237400      -0.00726700       0.00239100
P        1.24277131       2.04390048      -0.39940310       0.00000000 NULL       0.00944300       0.05978800       0.02870400
P       -0.39130573      -1.15966349       9.76626197       0.00000000 NULL       0.05938700       0.01168900       0.02870700
P       -3.19540004      -2.64531263      15.50428178       0.00000000 NULL      -0.01666200       0.01557900       0.00311400
P       -0.13596980      -0.81427572       5.33861672       0.00000000 NULL       0.01619900      -0.01606400       0.00311300
P        2.90511329       3.29436245       0.33186364       0.00000000 NULL      -0.02412000       0.04037600      -0.07920000
P        0.79551478       0.54869627      10.49752871       0.00000000 NULL       0.04125700      -0.02258100      -0.07920400
P       -2.67020436      -0.47439324      15.13468601       0.00000000 NULL       0.02020100      -0.01479500      -0.00032200
P        2.01357722      -0.20750630       4.96902094       0.00000000 NULL      -0.01554600       0.01962700      -0.00032200
P        0.68708158      -5.92500277      16.68960417       0.00000000 NULL       0.04749800       0.02061200      -0.04665700
P       -3.55987871       2.94163678       6.52393911       0.00000000 NULL       0.01880400       0.04824200      -0.04665700
P       -0.38490375       0.75185259       8.64718504       0.00000000 NULL      -0.06895000      -0.01855000      -0.00636000
P       -1.62099115      -2.83495082      18.81285010       0.00000000 NULL      -0.01593700      -0.06960200      -0.00635900
20
Lattice="5.1250042483845055 -1.0037361099183437 -0.888854304185898 -1.1964798371480785 5.083462473906091 -0.8888543041858764 -4.7681160959897255 -4.951632446962835 20.292670788931158" Properties=species:S:1:pos:R:3:initial_magmoms:R:1:castep_labels:S:1:forces:R:3 n_minim_iter=7 energy=-107.109567091066 stress="6.603229732736311e-05 -6.447911829076518e-05 2.6159972630699296e-05 -6.447911829076518e-05 6.112868922610395e-05 2.7180633140463645e-05 2.6159972630699296e-05 2.7180633140463645e-05 -0.00016310598711473327" free_energy=-107.109567091066 pbc="T T T"
P       -0.94844496       2.17196851       3.50807141       0.00000000 NULL      -0.07277900      -0.01128700      -0.03953800
P       -0.17783556      -3.34159755      13.65440680       0.00000000 NULL      -0.00853100      -0.07315300      -0.03953800
P        1.41790677      -0.52621078       8.65004220       0.00000000 NULL      -0.01963200       0.03102900       0.06318300
P       -2.96341706      -1.07878346      18.79637759       0.00000000 NULL       0.03174900      -0.01844400       0.06318200
P        0.26116331      -1.06869912      13.65689607       0.00000000 NULL       0.00881100       0.00884700      -0.00240700
P        1.30626218       2.69645206       3.51056067       0.00000000 NULL       0.00850800       0.00913800      -0.00240700
P       -0.70128564       1.39673734       5.60537619       0.00000000 NULL      -0.02299700       0.01316800       0.05376400
P       -0.96184399      -3.12387788      15.75171158       0.00000000 NULL       0.01402700      -0.02248300       0.05376400
P        1.23711638       2.04474171      -0.39642108       0.00000000 NULL       0.02285700       0.04897200       0.05141500
P       -0.38747244      -1.16239645       9.74991432       0.00000000 NULL       0.04807700       0.02469000       0.05141400
P       -3.19327020      -2.64421472      15.47648336       0.00000000 NULL      -0.02217400       0.03349400      -0.01002300
P       -0.13773227      -0.81499213       5.33014796       0.00000000 NULL       0.03430800      -0.02089300      -0.01002300
P        2.90480013       3.29343113       0.33053317       0.00000000 NULL      -0.04706500       0.04343300      -0.06980400
P        0.79737516       0.55123435      10.47686856       0.00000000 NULL       0.04518100      -0.04539200      -0.06979900
P       -2.66960666      -0.47197080      15.10589481       0.00000000 NULL       0.02127900      -0.00796100      -0.00110600
P        2.01319616      -0.20970376       4.95955942       0.00000000 NULL      -0.00875800       0.02096400      -0.00110600
P        0.70028317      -5.92783155      16.65600285       0.00000000 NULL       0.03152100       0.02219700      -0.02395500
P       -3.56598301       2.95183600       6.50966745       0.00000000 NULL       0.02099100       0.03233600      -0.02395500
P       -0.38772901       0.74978945       8.63105032       0.00000000 NULL      -0.03912000      -0.04776300      -0.02153100
P       -1.62016697      -2.83496577      18.77738572       0.00000000 NULL      -0.04625200      -0.04089300      -0.02152700
20
Lattice="5.125407529913089 -1.0120506533611737 -0.8983344333114311 -1.204803677813745 5.083551609906712 -0.8983344333114096 -4.790489441242715 -4.974866902683193 20.362059231300165" Properties=species:S:1:pos:R:3:initial_magmoms:R:1:castep_labels:S:1:forces:R:3 n_minim_iter=8 energy=-107.115568172014 stress="0.00011861999161794379 4.7186465275523606e-05 -2.9278215419899804e-05 4.7186465275523606e-05 0.0001221883433837302 -3.0430726549222127e-05 -2.9278215419899804e-05 -3.0430726549222127e-05 0.00010452389395930922" free_energy=-107.115568172014 pbc="T T T"
P       -0.96907108       2.15544015       3.51558982       0.00000000 NULL      -0.04871300       0.01779300       0.02107900
P       -0.20476021      -3.37445011      13.69661943       0.00000000 NULL       0.01961900      -0.04800700       0.02107900
P        1.39790917      -0.54624706       8.67546407       0.00000000 NULL       0.08624000      -0.02827700      -0.08136700
P       -2.99387086      -1.11114037      18.85649368       0.00000000 NULL      -0.03151100       0.08511200      -0.08136700
P        0.24935207      -1.09899271      13.68979583       0.00000000 NULL      -0.02949700      -0.00877300      -0.00488900
P        1.28762270       2.69512294       3.50876621       0.00000000 NULL      -0.00765300      -0.02980700      -0.00488900
P       -0.70382436       1.38857124       5.61958447       0.00000000 NULL      -0.06324200       0.03260700       0.02424200
P       -0.98109511      -3.13834027      15.80061409       0.00000000 NULL       0.03497100      -0.06196600       0.02424200
P        1.22389980       2.05556785      -0.38731456       0.00000000 NULL       0.02216300      -0.02556600       0.04660700
P       -0.38734178      -1.18681218       9.79371505       0.00000000 NULL      -0.02638400       0.02118700       0.04660400
P       -3.21768262      -2.67140328      15.53191089       0.00000000 NULL       0.00188000       0.06232700      -0.03842400
P       -0.15279326      -0.82879624       5.35088128       0.00000000 NULL       0.06221100       0.00423200      -0.03842400
P        2.90347606       3.30029326       0.30817636       0.00000000 NULL       0.05837000      -0.00971400       0.00695500
P        0.79309570       0.53855303      10.48920598       0.00000000 NULL      -0.01191200       0.05796200       0.00695300
P       -2.68470485      -0.50235269      15.15000339       0.00000000 NULL       0.00247900       0.02349400      -0.00788300
P        1.99459252      -0.21432082       4.96897377       0.00000000 NULL       0.02338400       0.00336500      -0.00788300
P        0.69743291      -5.94688706      16.69740377       0.00000000 NULL       0.01186700      -0.01243700      -0.01759000
P       -3.57373068       2.95988570       6.51637415       0.00000000 NULL      -0.01287600       0.01138900      -0.01759000
P       -0.41462110       0.71596643       8.65060526       0.00000000 NULL      -0.01984800      -0.07235400       0.05127600
P       -1.66413743      -2.87473268      18.83163487       0.00000000 NULL      -0.07154800      -0.02256600       0.05127100
20
Lattice="5.11759022499235 -1.020987301253527 -0.9079979549768821 -1.2134388681397397 5.075402535124288 -0.9079979549768605 -4.8072245039843065 -4.99224606837568 20.414005460651413" Properties=species:S:1:pos:R:3:initial_magmoms:R:1:castep_labels:S:1:forces:R:3 n_minim_iter=9 energy=-107.12203799823 stress="0.0005010339259229039 0.0002259412133101376 -8.564815557213702e-05 0.0002259412133101376 0.0005181813494352689 -8.889526819574958e-05 -8.564815557213702e-05 -8.889526819574958e-05 0.0004608675875787648" free_energy=-107.12203799823 pbc="T T T"
P       -1.00171782       2.13423026       3.52347431       0.00000000 NULL       0.00697800       0.03547300       0.03771700
P       -0.23309017      -3.41656380      13.73047704       0.00000000 NULL       0.03518200       0.00831300       0.03771500
P        1.38749371      -0.57381382       8.67932800       0.00000000 NULL      -0.13268400      -0.01150800       0.07063500
P       -3.02939235      -1.13127858      18.88633073       0.00000000 NULL      -0.00649500      -0.13302100       0.07062700
P        0.23288607      -1.13456042      13.70743943       0.00000000 NULL      -0.05368800      -0.03362000      -0.06655200
P        1.26106944       2.68601564       3.50043670       0.00000000 NULL      -0.03157300      -0.05491400      -0.06655000
P       -0.71461469       1.38263554       5.63252898       0.00000000 NULL      -0.05447000       0.01359400      -0.00455200
P       -0.99498681      -3.15803656      15.83953171       0.00000000 NULL       0.01564200      -0.05391900      -0.00455100
P        1.20619717       2.06134079      -0.36442949       0.00000000 NULL      -0.00009600       0.12753700       0.00372200
P       -0.38927225      -1.21297386       9.84257324       0.00000000 NULL       0.12745100       0.00471700       0.00372200
P       -3.24054535      -2.68862676      15.56892242       0.00000000 NULL       0.07224600      -0.02435600      -0.03030400
P       -0.16077391      -0.84360325       5.36191969       0.00000000 NULL      -0.02706400       0.07127200      -0.03030500
P        2.90831020       3.30419216       0.28180800       0.00000000 NULL       0.02324500       0.00282500      -0.03608600
P        0.78844181       0.53484132      10.48881073       0.00000000 NULL       0.00194600       0.02333200      -0.03609500
P       -2.69535279      -0.53361770      15.17863116       0.00000000 NULL      -0.01597000       0.07631500      -0.02401500
P        1.97211927      -0.21745178       4.97162843       0.00000000 NULL       0.07686400      -0.01308000      -0.02401600
P        0.69897981      -5.95952125      16.71681777       0.00000000 NULL      -0.01911700      -0.03091300       0.05857600
P       -3.57804673       2.96964415       6.50981504       0.00000000 NULL      -0.03016900      -0.02027100       0.05857600
P       -0.45078162       0.66187318       8.66857915       0.00000000 NULL       0.02852300      -0.01568400      -0.00913100
P       -1.72519467      -2.92159892      18.87558188       0.00000000 NULL      -0.01675100       0.02790900      -0.00913300
20
Lattice="5.113753146111909 -1.0277537602794178 -0.9180194345869644 -1.2200556622373995 5.071312770100112 -0.9180194345869429 -4.838971808004172 -5.025215269947886 20.438123374109953" Properties=species:S:1:pos:R:3:initial_magmoms:R:1:castep_labels:S:1:forces:R:3 n_minim_iter=10 energy=-107.131381927364 stress="0.0011375391575426084 0.00040150409996368724 -0.00021863907883632063 0.00040150409996368724 0.0011679125153354257 -0.00022703024895395424 -0.00021863907883632063 -0.00022703024895395424 0.0010284762629551737" free_energy=-107.131381927364 pbc="T T T"
P       -1.03218894       2.11990619       3.53032241       0.00000000 NULL       0.01166000       0.03303300      -0.03018100
P       -0.26212745      -3.46403851      13.74938409       0.00000000 NULL       0.03256800       0.01289900      -0.03018100
P        1.36161724      -0.60619120       8.67518284       0.00000000 NULL      -0.09316100      -0.01558500       0.07098800
P       -3.07664352      -1.17484338      18.89424452       0.00000000 NULL      -0.01205900      -0.09367900       0.07098100
P        0.20176615      -1.17982664      13.69543638       0.00000000 NULL      -0.05099300      -0.03418500       0.00466300
P        1.23288385       2.66969379       3.47637469       0.00000000 NULL      -0.03223700      -0.05224400       0.00466400
P       -0.73696535       1.37580532       5.63545733       0.00000000 NULL       0.01130200      -0.00068000       0.00789800
P       -1.01684211      -3.19711371      15.85451902       0.00000000 NULL      -0.00110600       0.01126800       0.00789800
P        1.18568615       2.07859980      -0.34319584       0.00000000 NULL       0.13321200       0.15124600      -0.01876900
P       -0.38712494      -1.24930337       9.87586585       0.00000000 NULL       0.14611200       0.13882800      -0.01877100
P       -3.26334017      -2.71897186      15.57872491       0.00000000 NULL       0.09385600      -0.05192600      -0.02474100
P       -0.17436327      -0.85104269       5.35966322       0.00000000 NULL      -0.05543100       0.09182700      -0.02474100