33
Lattice="5.51722 0.0 0.0 0.0 12.046419999999996 -1.4589249251029294e-16 0.0 -6.023209999999999 10.432505744656934" Properties=species:S:1:pos:R:3:initial_magmoms:R:1:castep_labels:S:1 n_minim_iter=1 pbc="T T T"
P        1.45331354      -5.26615093       9.93602801       0.00000000 NULL
P        5.13146021       0.05143339       0.90387021       0.00000000 NULL
P        3.29238687       5.21471934      10.02511222       0.00000000 NULL
P        1.33950212       9.39098728       1.71549516       0.00000000 NULL
P        5.01764879       5.86526457       7.27508493       0.00000000 NULL
P        3.17857545       2.81337995       1.44192461       0.00000000 NULL
P        5.16987348       0.51329976       6.02509860       0.00000000 NULL
P        3.33080015       0.54867227       7.86448603       0.00000000 NULL
P        1.49172681      -1.06197023       6.97542581       0.00000000 NULL
P        0.27582624       3.00433077       2.22003201       0.00000000 NULL
P        3.95397291       8.62165109       1.49180972       0.00000000 NULL
P        2.11489957       6.44364993       6.72066296       0.00000000 NULL
P        0.40578932       7.28040210       5.40881606       0.00000000 NULL
P        4.08393599       3.72204743       3.60060409       0.00000000 NULL
P        2.24486265       7.06718226       1.42308454       0.00000000 NULL
P        3.17078826       8.13459928       3.38378115       0.00000000 NULL
P        1.33171493       5.04868052       5.35287801       0.00000000 NULL
P        5.00986159       4.88635200       1.69584554       0.00000000 NULL
P        2.33046821       4.36743921       2.44545655       0.00000000 NULL
P        0.49139488       7.74487349       2.55958399       0.00000000 NULL
P        4.16954154       5.95731909       5.42746416       0.00000000 NULL
P        3.77193242       4.55462491       8.18727611       0.00000000 NULL
P        1.93285909      -3.34449096      10.28328752       0.00000000 NULL
P        0.09378575      -1.21013215       2.39444681       0.00000000 NULL
P        3.02988012       1.92352476      10.20470677       0.00000000 NULL
P        1.19080679      -3.77608709       6.99597262       0.00000000 NULL
P        4.86895345       1.85256412       3.66433105       0.00000000 NULL
P        2.90441633       6.20693838       3.89624253       0.00000000 NULL
P        1.06534300       5.56870639       3.42724401       0.00000000 NULL
P        4.74348966       6.29398702       3.10901816       0.00000000 NULL
P        5.07474999       4.16977492       5.73509372       0.00000000 NULL
P        3.23567666       4.99479628       0.74358310       0.00000000 NULL
P        1.39660332       8.90506060       3.95382787       0.00000000 NULL
33
Lattice="5.558172288101006 0.0 0.0 0.0 12.143254332841002 -1.5369775042845488e-16 0.0 -6.071627166420502 10.516366736855764" Properties=species:S:1:pos:R:3:initial_magmoms:R:1:castep_labels:S:1 n_minim_iter=2 pbc="T T T"
P        1.46405700      -5.30877990      10.01590014       0.00000000 NULL
P        5.16950519       0.05199375       0.91087736       0.00000000 NULL
P        3.31678109       5.25678796      10.10595491       0.00000000 NULL
P        1.34958889       9.46675125       1.72902104       0.00000000 NULL
P        5.05503709       5.91250317       7.33393550       0.00000000 NULL
P        3.20231299       2.83562890       1.45340914       0.00000000 NULL
P        5.20825549       0.51731641       6.07372647       0.00000000 NULL
P        3.35553139       0.55296814       7.92751161       0.00000000 NULL
P        1.50280729      -1.07028275       7.03149434       0.00000000 NULL
P        0.27816341       3.02840901       2.23769665       0.00000000 NULL
P        3.98361160       8.69114828       1.50382976       0.00000000 NULL
P        2.13088751       6.49532601       6.77483927       0.00000000 NULL
P        0.40879297       7.33907984       5.45200865       0.00000000 NULL
P        4.11424116       3.75213702       3.62982421       0.00000000 NULL
P        2.26151707       7.12366644       1.43453282       0.00000000 NULL
P        3.19461096       8.20024312       3.41105861       0.00000000 NULL
P        1.34188686       5.08906996       5.39608850       0.00000000 NULL
P        5.04733505       4.92557023       1.70921856       0.00000000 NULL
P        2.34755557       4.40231648       2.46523315       0.00000000 NULL
P        0.49483147       7.80714216       2.57990028       0.00000000 NULL
P        4.20027966       6.00542467       5.47123225       0.00000000 NULL
P        3.79974261       4.59102427       8.25306162       0.00000000 NULL
P        1.94701851      -3.37124540      10.36577852       0.00000000 NULL
P        0.09429441      -1.21977707       2.41389227       0.00000000 NULL
P        3.05238298       1.93902149      10.28639309       0.00000000 NULL
P        1.19965888      -3.80616071       7.05241101       0.00000000 NULL
P        4.90510707       1.86714103       3.69392831       0.00000000 NULL
P        2.92583381       6.25670101       3.92760727       0.00000000 NULL
P        1.07310971       5.61349676       3.45465733       0.00000000 NULL
P        4.77855790       6.34468554       3.13410108       0.00000000 NULL
P        5.11226739       4.20286776       5.78124794       0.00000000 NULL
P        3.25954329       5.03511347       0.74916523       0.00000000 NULL
P        1.40681920       8.97690208       3.98595251       0.00000000 NULL
33
Lattice="5.910464104909607 1.366252559105839e-58 1.872298194248092e-42 2.8442308321160895e-58 12.976346628620279 1.9981493877858245e-15 4.0838597766215726e-42 -6.488173314310142 11.237845828697717" Properties=species:S:1:pos:R:3:initial_magmoms:R:1:castep_labels:S:1 n_minim_iter=3 pbc="T T T"
P        1.55651224      -5.67568564      10.70315492       0.00000000 NULL
P        5.49682164       0.05681272       0.97097930       0.00000000 NULL
P        3.52666694       5.61887486      10.80155631       0.00000000 NULL
P        1.43637977      10.11886472       1.84527669       0.00000000 NULL
P        5.37668918       6.31885842       7.84055444       0.00000000 NULL
P        3.40653448       3.02679874       1.55201357       0.00000000 NULL
P        5.53843967       0.55169140       6.49235711       0.00000000 NULL
P        3.56828496       0.58978207       8.46944492       0.00000000 NULL
P        1.59813026      -1.14147153       7.51388850       0.00000000 NULL
P        0.29842377       3.23548342       2.38959729       0.00000000 NULL
P        4.23873317       9.28915361       1.60721107       0.00000000 NULL
P        2.26857847       6.93988485       7.24103634       0.00000000 NULL
P        0.43470190       7.84417481       5.82352689       0.00000000 NULL
P        4.37501130       4.01093764       3.88149009       0.00000000 NULL
P        2.40485660       7.60940943       1.53282772       0.00000000 NULL
P        3.39970243       8.76513122       3.64589360       0.00000000 NULL
P        1.42954773       5.43634518       5.76787838       0.00000000 NULL
P        5.36985713       5.26304547       1.82407272       0.00000000 NULL
P        2.49436132       4.70210085       2.63537124       0.00000000 NULL
P        0.52420662       8.34299841       2.75445204       0.00000000 NULL
P        4.46451602       6.41942263       5.84802142       0.00000000 NULL
P        4.03882422       4.90417172       8.81913897       0.00000000 NULL
P        2.06866952      -3.60151029      11.07541252       0.00000000 NULL
P        0.09851482      -1.30265950       2.58113904       0.00000000 NULL
P        3.24597405       2.07231055      10.98910010       0.00000000 NULL
P        1.27581935      -4.06482117       7.53796824       0.00000000 NULL
P        5.21612875       1.99251255       3.94862219       0.00000000 NULL
P        3.11008299       6.68484214       4.19753117       0.00000000 NULL
P        1.13992829       5.99875757       3.69047641       0.00000000 NULL
P        5.08023769       6.78092216       3.34983712       0.00000000 NULL
P        5.43489908       4.48744127       6.17833468       0.00000000 NULL
P        3.46474438       5.38203185       0.79706967       0.00000000 NULL
P        1.49458968       9.59504876       4.26244035       0.00000000 NULL
33
Lattice="6.003534731022974 -6.43258659613414e-44 -2.340380973701109e-42 -1.4122659728316091e-43 13.162540936249666 -3.840199689203816e-15 -2.4469767936646987e-42 -6.58127046812483 11.399094829144824" Properties=species:S:1:pos:R:3:initial_magmoms:R:1:castep_labels:S:1 n_minim_iter=4 pbc="T T T"
P        1.58127351      -5.75852341      10.85768882       0.00000000 NULL
P        5.58362999       0.05749847       0.98322172       0.00000000 NULL
P        3.58245175       5.70102690      10.95727797       0.00000000 NULL
P        1.45928701      10.26638497       1.87107580       0.00000000 NULL
P        5.46164350       6.40894993       7.95541115       0.00000000 NULL
P        3.46046525       3.06847847       1.57260673       0.00000000 NULL
P        5.62559660       0.55822784       6.58803561       0.00000000 NULL
P        3.62441836       0.59675100       8.58851537       0.00000000 NULL
P        1.62324012      -1.15497688       7.62163753       0.00000000 NULL
P        0.30415160       3.28110933       2.42350416       0.00000000 NULL
P        4.30650809       9.42317075       1.62977081       0.00000000 NULL
P        2.30532985       7.03953328       7.34581871       0.00000000 NULL
P        0.44227565       7.95826112       5.90652648       0.00000000 NULL
P        4.44463213       4.06820905       3.93879192       0.00000000 NULL
P        2.44345389       7.71734320       1.55377529       0.00000000 NULL
P        3.45430786       8.89181556       3.69919156       0.00000000 NULL
P        1.45312962       5.51303994       5.85094124       0.00000000 NULL
P        5.45548611       5.33895786       1.84896088       0.00000000 NULL
P        2.53235757       4.76731192       2.67318408       0.00000000 NULL
P        0.53117932       8.46384030       2.79202005       0.00000000 NULL
P        4.53353581       6.51266115       5.93388955       0.00000000 NULL
P        4.10140364       4.97442416       8.94647603       0.00000000 NULL
P        2.10022540      -3.65381648      11.23383336       0.00000000 NULL
P        0.09904715      -1.32060571       2.61787911       0.00000000 NULL
P        3.29719737       2.10179489      11.14632673       0.00000000 NULL
P        1.29601912      -4.12262843       7.64613809       0.00000000 NULL
P        5.29837561       2.02083550       4.00572369       0.00000000 NULL
P        3.15851596       6.78111756       4.25809755       0.00000000 NULL
P        1.15733772       6.08436216       3.74357016       0.00000000 NULL
P        5.15969421       6.87833365       3.39742597       0.00000000 NULL
P        5.51989985       4.55108050       6.26713112       0.00000000 NULL
P        3.51872161       5.45950657       0.80778463       0.00000000 NULL
P        1.51754336       9.73322629       4.32417793       0.00000000 NULL
33
Lattice="6.030017087464135 -6.198259131695993e-44 -7.523839461788142e-42 -1.365862196406083e-43 13.174281672072691 -3.67060114225487e-16 1.8588558079488393e-43 -6.587140836036346 11.409262604626685" Properties=species:S:1:pos:R:3:initial_magmoms:R:1:castep_labels:S:1 n_minim_iter=5 pbc="T T T"
P        1.58865726      -5.76485738      10.86865932       0.00000000 NULL
P        5.60866865       0.05703510       0.98241886       0.00000000 NULL
P        3.59866295       5.70782425      10.96744587       0.00000000 NULL
P        1.46583825      10.27790624       1.87251773       0.00000000 NULL
P        5.48584964       6.41368128       7.96466790       0.00000000 NULL
P        3.47584394       3.06983695       1.57207583       0.00000000 NULL
P        5.65032728       0.55718333       6.59676892       0.00000000 NULL
P        3.64032159       0.59558036       8.59341192       0.00000000 NULL
P        1.63031589      -1.15276172       7.62834322       0.00000000 NULL
P        0.30609029       3.28320940       2.42567298       0.00000000 NULL
P        4.32610169       9.43198320       1.63050511       0.00000000 NULL
P        2.31609599       7.04623187       7.35308336       0.00000000 NULL
P        0.44528342       7.96682320       5.91170386       0.00000000 NULL
P        4.46529481       4.07118500       3.94361821       0.00000000 NULL
P        2.45528912       7.72341627       1.55393939       0.00000000 NULL
P        3.47024907       8.90042018       3.70339191       0.00000000 NULL
P        1.46024338       5.51684076       5.85629288       0.00000000 NULL
P        5.48025477       5.34416353       1.84957666       0.00000000 NULL
P        2.54243288       4.76906741       2.67529936       0.00000000 NULL
P        0.53242718       8.47287141       2.79248271       0.00000000 NULL
P        4.55243858       6.51948565       5.94147939       0.00000000 NULL
P        4.11856592       4.97911252       8.95548746       0.00000000 NULL
P        2.10856023      -3.65809442      11.24355566       0.00000000 NULL
P        0.09855453      -1.32101613       2.61948094       0.00000000 NULL
P        3.31187070       2.10331920      11.15646456       0.00000000 NULL
P        1.30186500      -4.12629984       7.65255704       0.00000000 NULL
P        5.32187639       2.02298260       4.00950246       0.00000000 NULL
P        3.17195545       6.78778963       4.26210177       0.00000000 NULL
P        1.16194976       6.08929910       3.74734623       0.00000000 NULL
P        5.18196115       6.88433574       3.39981346       0.00000000 NULL
P        5.54384192       4.55515951       6.27280141       0.00000000 NULL
P        3.53383622       5.46429719       0.80848201       0.00000000 NULL
P        1.52383052       9.74196777       4.32797804       0.00000000 NULL
33
Lattice="6.04368487476891 -6.114444165767645e-44 -7.537173700132317e-42 -1.3523201551558944e-43 13.157997837197298 -1.1327544877392663e-15 8.577230068873976e-42 -6.578998918598648 11.395160389953565" Properties=species:S:1:pos:R:3:initial_magmoms:R:1:castep_labels:S:1 n_minim_iter=6 pbc="T T T"
P        1.59274715      -5.75905852      10.85671911       0.00000000 NULL
P        5.62187040       0.05633428       0.97930871       0.00000000 NULL
P        3.60730877       5.70272621      10.95429181       0.00000000 NULL
P        1.46925395      10.26786879       1.87003549       0.00000000 NULL
P        5.49837720       6.40456585       7.95721633       0.00000000 NULL
P        3.48381558       3.06456407       1.56790742       0.00000000 NULL
P        5.66303490       0.55472985       6.59188594       0.00000000 NULL
P        3.64847327       0.59289396       8.57962642       0.00000000 NULL
P        1.63391165      -1.14762185       7.61880727       0.00000000 NULL
P        0.30739902       3.27822202       2.42274852       0.00000000 NULL
P        4.33652227       9.42072571       1.62764814       0.00000000 NULL
P        2.32196065       7.03805099       7.34476257       0.00000000 NULL
P        0.44753211       7.95858356       5.90436277       0.00000000 NULL
P        4.47665536       4.06537855       3.94015301       0.00000000 NULL
P        2.46209373       7.71303661       1.55064345       0.00000000 NULL
P        3.47879140       8.89017181       3.69980191       0.00000000 NULL
P        1.46422978       5.50879013       5.84921254       0.00000000 NULL
P        5.49335303       5.33803677       1.84614479       0.00000000 NULL
P        2.54699208       4.76033363       2.67166845       0.00000000 NULL
P        0.53243045       8.46409892       2.78673449       0.00000000 NULL
P        4.56155370       6.51256617       5.93675630       0.00000000 NULL
P        4.12685798       4.97330445       8.94559701       0.00000000 NULL
P        2.11229635      -3.65476692      11.22936874       0.00000000 NULL
P        0.09773473      -1.31853557       2.61535388       0.00000000 NULL
P        3.31953863       2.10031965      11.14299913       0.00000000 NULL
P        1.30497700      -4.12128058       7.64258986       0.00000000 NULL
P        5.33410025       2.02096289       4.00473064       0.00000000 NULL
P        3.17860750       6.78009217       4.25701059       0.00000000 NULL
P        1.16404588       6.08127308       3.74322562       0.00000000 NULL
P        5.19316913       6.87563346       3.39492303       0.00000000 NULL
P        5.55601732       4.54969782       6.26512661       0.00000000 NULL
P        3.54145570       5.45739077       0.80758944       0.00000000 NULL
P        1.52689407       9.72991013       4.32244319       0.00000000 NULL
33
Lattice="6.0929068293412945 -1.7075392217794898e-44 -6.453358007912294e-42 -4.098685320865172e-44 13.098859000693427 -8.291554313945495e-17 4.710515939965648e-42 -6.549429500346713 11.343944655190958" Properties=species:S:1:pos:R:3:initial_magmoms:R:1:castep_labels:S:1 n_minim_iter=7 pbc="T T T"
P        1.60810754      -5.73971560      10.81511721       0.00000000 NULL
P        5.67004542       0.05312170       0.96564539       0.00000000 NULL
P        3.63907648       5.68659585      10.90712557       0.00000000 NULL
P        1.48167058      10.23468328       1.86083934       0.00000000 NULL
P        5.54360847       6.36998386       7.93307492       0.00000000 NULL
P        3.51263952       3.04362331       1.55002925       0.00000000 NULL
P        5.70866792       0.54363457       6.57819256       0.00000000 NULL
P        3.67769898       0.58073100       8.52564859       0.00000000 NULL
P        1.64673004      -1.12436361       7.58404702       0.00000000 NULL
P        0.31305970       3.25896907       2.41218279       0.00000000 NULL
P        4.37499758       9.38036354       1.61625748       0.00000000 NULL
P        2.34402864       7.00895784       7.31550325       0.00000000 NULL
P        0.45716954       7.93051633       5.87759852       0.00000000 NULL
P        4.51910742       4.04345185       3.92922821       0.00000000 NULL
P        2.48813848       7.67432228       1.53711678       0.00000000 NULL
P        3.51018901       8.85406965       3.68794783       0.00000000 NULL
P        1.47922006       5.47796831       5.82387420       0.00000000 NULL
P        5.54115795       5.31625249       1.83212149       0.00000000 NULL
P        2.56181727       4.72517892       2.65821756       0.00000000 NULL
P        0.53084833       8.43418625       2.76301507       0.00000000 NULL
P        4.59278621       6.48892528       5.92271088       0.00000000 NULL
P        4.15528978       4.95261081       8.91099651       0.00000000 NULL
P        2.12432084      -3.64402460      11.17753204       0.00000000 NULL
P        0.09335189      -1.30858425       2.59935962       0.00000000 NULL
P        3.34742960       2.08899911      11.09439440       0.00000000 NULL
P        1.31646066      -4.10309680       7.60587262       0.00000000 NULL
P        5.37839855       2.01409964       3.98762115       0.00000000 NULL
P        3.20189181       6.75272252       4.23860523       0.00000000 NULL
P        1.17092287       6.05175858       3.72872549       0.00000000 NULL
P        5.23286075       6.84380935       3.37661279       0.00000000 NULL
P        5.59954782       4.53010517       6.23735368       0.00000000 NULL
P        3.56857888       5.43210032       0.80450819       0.00000000 NULL
P        1.53760994       9.68608496       4.30208164       0.00000000 NULL
33
Lattice="6.067401346348252 -2.245051519787177e-44 -5.92121923695603e-42 -5.233339781735798e-44 13.112278862515005 3.2389709117192905e-15 7.27073947434629e-42 -6.556139431257505 11.355566596443719" Properties=species:S:1:pos:R:3:initial_magmoms:R:1:castep_labels:S:1 n_minim_iter=8 pbc="T T T"
P        1.60364093      -5.75247564      10.83300853       0.00000000 NULL
P        5.64857516       0.05071731       0.95727116       0.00000000 NULL
P        3.62610804       5.70176028      10.92085236       0.00000000 NULL
P        1.47585774      10.25793166       1.86206871       0.00000000 NULL
P        5.52079197       6.37071487       7.95259391       0.00000000 NULL
P        3.49832486       3.03977372       1.54090283       0.00000000 NULL
P        5.68430474       0.53547983       6.60101789       0.00000000 NULL
P        3.66183763       0.57175097       8.51879565       0.00000000 NULL
P        1.63937051      -1.10722885       7.59131850       0.00000000 NULL
P        0.31527494       3.25791241       2.41481578       0.00000000 NULL
P        4.36020917       9.39203150       1.61402588       0.00000000 NULL
P        2.33774205       7.01847634       7.32672379       0.00000000 NULL
P        0.46071359       7.94581438       5.88308074       0.00000000 NULL
P        4.50564782       4.04447495       3.93973561       0.00000000 NULL
P        2.48318071       7.67813092       1.53274911       0.00000000 NULL
P        3.49756217       8.86766747       3.69633112       0.00000000 NULL
P        1.47509505       5.47732912       5.83145861       0.00000000 NULL
P        5.52002928       5.32342365       1.82777573       0.00000000 NULL
P        2.54527237       4.71648872       2.65997485       0.00000000 NULL
P        0.52280526       8.45042936       2.75461048       0.00000000 NULL
P        4.56773949       6.50150217       5.94098012       0.00000000 NULL
P        4.13267603       4.95922632       8.92517133       0.00000000 NULL
P        2.11020891      -3.65289818      11.18779578       0.00000000 NULL
P        0.08774180      -1.30632618       2.59816495       0.00000000 NULL
P        3.33455125       2.08958697      11.10688167       0.00000000 NULL
P        1.31208414      -4.10749509       7.61176003       0.00000000 NULL
P        5.35701837       2.01791007       3.99249035       0.00000000 NULL
P        3.18618821       6.76177075       4.24319039       0.00000000 NULL
P        1.16372109       6.05668346       3.73426892       0.00000000 NULL
P        5.20865532       6.84996603       3.37810615       0.00000000 NULL
P        5.57507446       4.53574870       6.24415412       0.00000000 NULL
P        3.55260735       5.43680906       0.80599540       0.00000000 NULL
P        1.53014023       9.69586248       4.30541593       0.00000000 NULL
33
Lattice="6.013229141590309 -3.121229555041095e-44 -2.1679537141097962e-41 -7.074937462180598e-44 13.126299445654613 3.629177901845189e-16 3.898504772389153e-41 -6.563149722827307 11.367708777618493" Properties=species:S:1:pos:R:3:initial_magmoms:R:1:castep_labels:S:1 n_minim_iter=9 pbc="T T T"
P        1.59217628      -5.76796522      10.85323005       0.00000000 NULL
P        5.60099571       0.04796004       0.94588821       0.00000000 NULL
P        3.59658600       5.72000713      10.93629815       0.00000000 NULL
P        1.46348184      10.28552653       1.86320999       0.00000000 NULL
P        5.47230126       6.36994965       7.97592113       0.00000000 NULL
P        3.46789155       3.03397495       1.52857651       0.00000000 NULL
P        5.63300750       0.52370829       6.63078415       0.00000000 NULL
P        3.62859779       0.55886870       8.50586025       0.00000000 NULL
P        1.62418807      -1.08257504       7.59877201       0.00000000 NULL
P        0.31678726       3.25611226       2.41742348       0.00000000 NULL
P        4.32560669       9.40469382       1.61116306       0.00000000 NULL
P        2.32119698       7.02864505       7.33912109       0.00000000 NULL
P        0.46369834       7.96370905       5.88812878       0.00000000 NULL
P        4.47251777       4.04517646       3.95270881       0.00000000 NULL
P        2.46810806       7.68056561       1.52687004       0.00000000 NULL
P        3.46951723       8.88285001       3.70637637       0.00000000 NULL
P        1.46510752       5.47505899       5.83958444       0.00000000 NULL
P        5.47392694       5.33154212       1.82174682       0.00000000 NULL
P        2.51487964       4.70309582       2.66143657       0.00000000 NULL
P        0.51046993       8.46988050       2.74228104       0.00000000 NULL
P        4.51928936       6.51647480       5.96399003       0.00000000 NULL
P        4.08886357       4.96647614       8.94140243       0.00000000 NULL
P        2.08445386      -3.66356935      11.19810093       0.00000000 NULL
P        0.08004414      -1.30290483       2.59591306       0.00000000 NULL
P        3.30629994       2.09008789      11.12039480       0.00000000 NULL
P        1.30189023      -4.11243797       7.61757945       0.00000000 NULL
P        5.31070966       2.02235204       3.99744216       0.00000000 NULL
P        3.15517068       6.77238358       4.24825723       0.00000000 NULL
P        1.15076097       6.06100962       3.74092648       0.00000000 NULL
P        5.15958040       6.85605792       3.37852393       0.00000000 NULL
P        5.52321167       4.54191251       6.25140737       0.00000000 NULL
P        3.51880195       5.44146624       0.80770680       0.00000000 NULL
P        1.51439224       9.70607237       4.30859347       0.00000000 NULL
33
Lattice="6.000501799310125 -4.758798054917949e-43 -3.0669888695150106e-41 -1.0405571118690512e-42 13.262857500979212 -2.0464473807917265e-15 -3.899709921075714e-41 -6.631428750489604 11.485971522620998" Properties=species:S:1:pos:R:3:initial_magmoms:R:1:castep_labels:S:1 n_minim_iter=10 pbc="T T T"
P        1.59138593      -5.83763199      10.97400957       0.00000000 NULL
P        5.59172046       0.04647433       0.94342799       0.00000000 NULL
P        3.59155319       5.79115964      11.05450433       0.00000000 NULL
P        1.46181415      10.40872514       1.88141446       0.00000000 NULL
P        5.46214868       6.42914287       8.07351201       0.00000000 NULL
P        3.46198141       3.05642022       1.53104390       0.00000000 NULL
P        5.62065251       0.51599270       6.72386672       0.00000000 NULL
P        3.62048524       0.55039367       8.57089980       0.00000000 NULL
P        1.62031798      -1.06638439       7.67717537       0.00000000 NULL
P        0.32018483       3.28546199       2.44206672       0.00000000 NULL
P        4.32051936       9.50523534       1.62425904       0.00000000 NULL
P        2.32035210       7.10359090       7.41964460       0.00000000 NULL
P        0.46941963       8.05593553       5.94715261       0.00000000 NULL
P        4.46975417       4.08450515       4.00306736       0.00000000 NULL
P        2.46958690       7.75384755       1.53575039       0.00000000 NULL
P        3.46637903       8.98065265       3.75114833       0.00000000 NULL
P        1.46621176       5.52394208       5.90189802       0.00000000 NULL
P        5.46654630       5.38969350       1.83292401       0.00000000 NULL
P        2.50189839       4.73308572       2.68774462       0.00000000 NULL
P        0.50173112       8.56866018       2.75509901       0.00000000 NULL
P        4.50206565       6.59254234       6.04312674       0.00000000 NULL
P        4.07312158       5.01969590       9.04109723       0.00000000 NULL
P        2.07295431      -3.70823842      11.31260593       0.00000000 NULL
P        0.07278704      -1.31145550       2.61823873       0.00000000 NULL
P        3.30077691       2.11055974      11.23753379       0.00000000 NULL
P        1.30060965      -4.15584021       7.69500183       0.00000000 NULL
P        5.30094418       2.04528244       4.03940627       0.00000000 NULL
P        3.14651977       6.84706069       4.29360875       0.00000000 NULL
P        1.14635250       6.12095356       3.78292298       0.00000000 NULL
P        5.14668704       6.92627397       3.40943864       0.00000000 NULL
P        5.50821235       4.58986417       6.31713341       0.00000000 NULL
P        3.50804508       5.49712806       0.81637112       0.00000000 NULL
P        1.50787782       9.80729600       4.35246584       0.00000000 NULL
33
Lattice="5.960223411420881 -7.265032822030024e-43 -4.821820967472739e-42 -1.593978626054975e-42 13.181460273876239 -9.411023435595012e-16 -7.414307648113908e-41 -6.590730136938118 11.415479456152212" Properties=species:S:1:pos:R:3:initial_magmoms:R:1:castep_labels:S:1 n_minim_iter=11 pbc="T T T"
P        1.58106154      -5.80280630      10.90763589       0.00000000 NULL
P        5.55454382       0.04584416       0.93628270       0.00000000 NULL
P        3.56780268       5.75696411      10.98703917       0.00000000 NULL
P        1.45210507      10.34665428       1.86995515       0.00000000 NULL
P        5.42558734       6.38870512       8.02548674       0.00000000 NULL
P        3.43884620       3.03683297       1.52003642       0.00000000 NULL
P        5.58287843       0.51111313       6.68574151       0.00000000 NULL
P        3.59613729       0.54515223       8.51524451       0.00000000 NULL
P        1.60939616      -1.05626339       7.62997174       0.00000000 NULL
P        0.31818089       3.26490100       2.42718687       0.00000000 NULL
P        4.29166317       9.44700493       1.61389263       0.00000000 NULL
P        2.30492203       7.06028644       7.37439881       0.00000000 NULL
P        0.46722932       8.00754807       5.91055265       0.00000000 NULL
P        4.44071159       4.05899815       3.97946258       0.00000000 NULL
P        2.45397045       7.70564616       1.52546307       0.00000000 NULL
P        3.44350968       8.92596381       3.72878996       0.00000000 NULL
P        1.45676854       5.48925219       5.86571529       0.00000000 NULL
P        5.43025081       5.35697638       1.82097306       0.00000000 NULL
P        2.48431478       4.70171153       2.67091430       0.00000000 NULL
P        0.49757365       8.51752552       2.73634333       0.00000000 NULL
P        4.47105592       6.55295532       6.00822067       0.00000000 NULL
P        4.04502444       4.98926653       8.98650584       0.00000000 NULL
P        2.05828331      -3.68644483      11.24305695       0.00000000 NULL