60
Lattice="10.344609999999996 -2.3886187423240634e-31 -1.9898735948791696e-31 5.172304999999998 11.261091021311259 1.8080100233255203e-13 5.172304999999998 3.0093279947016986 10.851549014337156" Properties=species:S:1:pos:R:3:initial_magmoms:R:1:castep_labels:S:1 n_minim_iter=1 pbc="T T T"
P       13.57783907       7.72944090       3.37372163       0.00000000 NULL
P        7.11138094       9.44246482       1.12099540       0.00000000 NULL
P       12.28368594       8.95383572       4.30477911       0.00000000 NULL
P        8.40553407      10.66685964       2.05205288       0.00000000 NULL
P        9.83634569      12.37923068       4.04564737       0.00000000 NULL
P       10.85287431      11.33252837       5.42212188       0.00000000 NULL
P        5.68056931       7.06377217       0.00365263       0.00000000 NULL
P        4.66404069       6.01706986       1.38012714       0.00000000 NULL
P       12.76530977       5.83745109       0.18081936       0.00000000 NULL
P        7.92391023       5.86008072       0.15106008       0.00000000 NULL
P       13.09621523      12.53621981       5.27471443       0.00000000 NULL
P       17.93761477      12.55884945       5.24495515       0.00000000 NULL
P       12.70876045      10.93912717      10.67786455       0.00000000 NULL
P       13.15276456       6.07761258       2.26204879       0.00000000 NULL
P        2.80815456       1.05759693       3.16372572       0.00000000 NULL
P       12.70876045      10.46650136       5.59945897       0.00000000 NULL
P        6.06326195       5.03902507       0.27514971       0.00000000 NULL
P        9.45365305       8.74694320      10.20801201       0.00000000 NULL
P        9.45365305      12.65868533       6.06931152       0.00000000 NULL
P        6.06326195       2.09618444       5.15062480       0.00000000 NULL
P       16.71242244       9.54310606       8.26939471       0.00000000 NULL
P        9.14910256       3.38367166       1.56041910       0.00000000 NULL
P        9.14910256       3.75153786       3.86535541       0.00000000 NULL
P       16.71242244      11.86252247       8.00792881       0.00000000 NULL
P        9.17415773       1.83149947       2.91699187       0.00000000 NULL
P       16.68736728      10.43555250       6.41115158       0.00000000 NULL
P       16.68736728      10.97007603       9.86617194       0.00000000 NULL
P        9.17415773       5.30371004       2.50878264       0.00000000 NULL
P       17.12800318      13.06546593      10.51549824       0.00000000 NULL
P        8.73352182       6.48937772       4.35444665       0.00000000 NULL
P        8.73352182       0.64583179       1.07132786       0.00000000 NULL
P        6.78339318       8.34016260       5.76182528       0.00000000 NULL
P        5.70997024       3.45445743       3.72033747       0.00000000 NULL
P        9.80694477      11.64338902       7.76040606       0.00000000 NULL
P        9.80694477       9.76223951       8.51691747       0.00000000 NULL
P        5.70997024       3.68075208       1.70543704       0.00000000 NULL
P       12.69158632      13.37109122       9.09566204       0.00000000 NULL
P       13.16993868       5.20285093       5.02838319       0.00000000 NULL
P        2.82532868       1.93235859       0.39739132       0.00000000 NULL
P       12.69158632       8.03453731       7.18166148       0.00000000 NULL
P        8.54496854      10.68781544       4.49175998       0.00000000 NULL
P       12.14425146      11.31041591       3.67300410       0.00000000 NULL
P        6.97194646       7.08588462       1.75277041       0.00000000 NULL
P       13.71727354       7.70848510       0.93401453       0.00000000 NULL
P        2.34793734       3.87273898       0.65605427       0.00000000 NULL
P       13.16897766       8.80232568       8.98235124       0.00000000 NULL
P       13.16897766      12.60330285       7.29497228       0.00000000 NULL
P       12.69254734       3.26247053       4.76972024       0.00000000 NULL
P       10.25963885       3.83976727       9.34423630       0.00000000 NULL
P       10.42958115       5.90463481       6.62881521       0.00000000 NULL
P       15.60188615       4.23990269       9.64850832       0.00000000 NULL
P       15.43194385       6.30477024       6.93308722       0.00000000 NULL
P       11.01908427       4.05653173       1.83570229       0.00000000 NULL
P       14.84244074       9.98818777       8.84421971       0.00000000 NULL
P       14.84244074      11.41744076       7.43310381       0.00000000 NULL
P       11.01908427       3.07867778       3.59007222       0.00000000 NULL
P       11.42446884       3.40383164       7.73452078       0.00000000 NULL
P        9.26475117       4.23696513       6.63890172       0.00000000 NULL
P       14.43705617       5.90757238       9.63842180       0.00000000 NULL
P        6.25216384       6.74070587       8.54280274       0.00000000 NULL
60
Lattice="10.455636553953909 2.9004606369889145e-18 8.125943206011444e-18 5.227818276976954 11.410291529215163 0.005886832787015727 5.227818276976954 3.054871940560395 10.993750263820639" Properties=species:S:1:pos:R:3:initial_magmoms:R:1:castep_labels:S:1 n_minim_iter=2 pbc="T T T"
P       13.72385594       7.83379314       3.42158234       0.00000000 NULL
P        7.18741717       9.56829951       1.14060543       0.00000000 NULL
P       12.41523545       9.07457376       4.36509995       0.00000000 NULL
P        8.49603767      10.80908013       2.08412304       0.00000000 NULL
P        9.94189681      12.54546400       4.10382956       0.00000000 NULL
P       10.96937630      11.48484580       5.49860427       0.00000000 NULL
P        5.74155802       7.15802747       0.00710112       0.00000000 NULL
P        4.71407854       6.09740927       1.40187582       0.00000000 NULL
P       12.90187167       5.91513012       0.18599925       0.00000000 NULL
P        8.00940144       5.93765886       0.15637264       0.00000000 NULL
P       13.23721972      12.70521441       5.34933274       0.00000000 NULL
P       18.12968995      12.72774315       5.31970613       0.00000000 NULL
P       12.84527966      11.08979590      10.82166330       0.00000000 NULL
P       13.29381173       6.15907301       2.29476630       0.00000000 NULL
P        2.83817518       1.07350874       3.20505225       0.00000000 NULL
P       12.84527966      10.60794931       5.67779235       0.00000000 NULL
P        6.12845907       5.10548550       0.28100705       0.00000000 NULL
P        9.55499576       8.86772012      10.34453419       0.00000000 NULL
P        9.55499576      12.83002509       6.15492146       0.00000000 NULL
P        6.12845907       2.12709624       5.21881151       0.00000000 NULL
P       16.89212821       9.67335666       8.38149512       0.00000000 NULL
P        9.24696318       3.42913016       1.58193187       0.00000000 NULL
P        9.24696318       3.80345158       3.91788669       0.00000000 NULL
P       16.89212821      12.02438855       8.11796053       0.00000000 NULL
P        9.27261342       1.85695828       2.95571495       0.00000000 NULL
P       16.86647797      10.57704296       6.49938049       0.00000000 NULL
P       16.86647797      11.12070225      10.00007516       0.00000000 NULL
P        9.27261342       5.37562346       2.54410360       0.00000000 NULL
P       17.31176924      13.24415499      10.65858002       0.00000000 NULL
P        8.82732215       6.57763519       4.41435704       0.00000000 NULL
P        8.82732215       0.65494655       1.08546151       0.00000000 NULL
P        6.85613269       8.45359022       5.84087563       0.00000000 NULL
P        5.77118855       3.50252153       3.77027406       0.00000000 NULL
P        9.91226628      11.80172603       7.86742154       0.00000000 NULL
P        9.91226628       9.89601918       8.63203411       0.00000000 NULL
P        5.77118855       3.73006021       1.72954450       0.00000000 NULL
P       12.82778948      13.55302773       9.22062871       0.00000000 NULL
P       13.31130191       5.27451992       5.09626387       0.00000000 NULL
P        2.85566536       1.95806182       0.40355468       0.00000000 NULL
P       12.82778948       8.14471748       7.27882694       0.00000000 NULL
P        8.63662679      10.83140194       4.55552435       0.00000000 NULL
P       12.27464633      11.46206055       3.72617154       0.00000000 NULL
P        7.04682805       7.18081272       1.77953384       0.00000000 NULL
P       13.86444506       7.81147133       0.95018103       0.00000000 NULL
P        2.37314213       3.92403081       0.66659969       0.00000000 NULL
P       13.31031271       8.92356664       9.10300367       0.00000000 NULL
P       13.31031271      12.77417857       7.39645198       0.00000000 NULL
P       12.82877868       3.30855093       4.83321886       0.00000000 NULL
P       10.36975218       3.89545519       9.46743165       0.00000000 NULL
P       10.54152094       5.98640315       6.71771329       0.00000000 NULL
P       15.76933921       4.30105053       9.77585552       0.00000000 NULL
P       15.59757045       6.39199850       7.02613716       0.00000000 NULL
P       11.13760256       4.11143553       1.86147312       0.00000000 NULL
P       15.00148883      10.12506566       8.96428401       0.00000000 NULL
P       15.00148883      11.57267955       7.53517163       0.00000000 NULL
P       11.13760256       3.12114621       3.63834543       0.00000000 NULL
P       11.54701704       3.45297452       7.83640670       0.00000000 NULL
P        9.36425608       4.29644996       6.72718736       0.00000000 NULL
P       14.59207435       5.99100372       9.76638145       0.00000000 NULL
P        6.31919876       6.83447917       8.65716211       0.00000000 NULL
60
Lattice="10.976117448391612 1.8359753086052334e-17 9.798595278835316e-17 5.488058724195806 12.087233883043716 0.041984968319484436 5.488058724195806 3.2705581701304807 11.636427069197728" Properties=species:S:1:pos:R:3:initial_magmoms:R:1:castep_labels:S:1 n_minim_iter=3 pbc="T T T"
P       14.40851605       8.31017623       3.64369495       0.00000000 NULL
P        7.54371885      10.14026740       1.23701846       0.00000000 NULL
P       13.03177757       9.62586251       4.64417253       0.00000000 NULL
P        8.92045733      11.45595369       2.23749604       0.00000000 NULL
P       10.43692473      13.30306381       4.37598329       0.00000000 NULL
P       11.51531017      12.18018513       5.85263417       0.00000000 NULL
P        6.02725145       7.58594479       0.02855682       0.00000000 NULL
P        4.94886600       6.46306610       1.50520770       0.00000000 NULL
P       13.54182504       6.26779752       0.21412363       0.00000000 NULL
P        8.41040986       6.28963263       0.18540920       0.00000000 NULL
P       13.89846859      13.47649729       5.69578179       0.00000000 NULL
P       19.02988376      13.49833240       5.66706736       0.00000000 NULL
P       13.48533911      11.78245129      11.47814898       0.00000000 NULL
P       13.95495452       6.53046934       2.44740959       0.00000000 NULL
P        2.97883707       1.14842669       3.39179643       0.00000000 NULL
P       13.48533911      11.25423679       6.03946908       0.00000000 NULL
P        6.43404636       5.40697747       0.31138903       0.00000000 NULL
P       10.03012981       9.42387988      10.96632995       0.00000000 NULL
P       10.03012981      13.61280820       6.55128811       0.00000000 NULL
P        6.43404636       2.27191856       5.52781699       0.00000000 NULL
P       17.73470701      10.27082919       8.89417157       0.00000000 NULL
P        9.70558662       3.63651136       1.68128437       0.00000000 NULL
P        9.70558662       4.04238467       4.15792165       0.00000000 NULL
P       17.73470701      12.76585890       8.62344649       0.00000000 NULL
P        9.73418330       1.97477390       3.13139630       0.00000000 NULL
P       17.70611032      11.22413359       6.90535114       0.00000000 NULL
P       17.70611032      11.81255450      10.61226692       0.00000000 NULL
P        9.73418330       5.70412213       2.70780972       0.00000000 NULL
P       18.17317970      14.06367113      11.31370043       0.00000000 NULL
P        9.26711393       6.98161721       4.68961228       0.00000000 NULL
P        9.26711393       0.69727882       1.14959374       0.00000000 NULL
P        7.19706225       8.97301695       6.20391763       0.00000000 NULL
P        6.05815040       3.72388571       3.99792437       0.00000000 NULL
P       10.40602578      12.52656716       8.35928711       0.00000000 NULL
P       10.40602578      10.51012093       9.15833095       0.00000000 NULL
P        6.05815040       3.95501032       1.84128165       0.00000000 NULL
P       13.46629946      14.38599183       9.79446006       0.00000000 NULL
P       13.97399416       5.60376292       5.40620105       0.00000000 NULL
P        2.99787671       2.07513312       0.43300497       0.00000000 NULL
P       13.46629946       8.65069626       7.72315800       0.00000000 NULL
P        9.06622084      11.48632517       4.85153471       0.00000000 NULL
P       12.88601407      12.15295039       3.97488373       0.00000000 NULL
P        7.39795534       7.61317953       1.90630726       0.00000000 NULL
P       14.55427956       8.27980474       1.02965628       0.00000000 NULL
P        2.49126823       4.15691996       0.71737865       0.00000000 NULL
P       13.97290795       9.48104869       9.65324082       0.00000000 NULL
P       13.97290795      13.55563940       7.86437724       0.00000000 NULL
P       13.46738568       3.52197607       5.12182738       0.00000000 NULL
P       10.88611023       4.15576351      10.02512448       0.00000000 NULL
P       11.06612467       6.36274861       7.12281052       0.00000000 NULL
P       16.55418339       4.58670559      10.35282257       0.00000000 NULL
P       16.37416896       6.79369070       7.45050861       0.00000000 NULL
P       11.69334525       4.36215848       1.98087720       0.00000000 NULL
P       15.74694838      10.75344285       9.51336754       0.00000000 NULL
P       15.74694838      12.28324524       8.00425052       0.00000000 NULL
P       11.69334525       3.31673755       3.85832883       0.00000000 NULL
P       12.12117396       3.68248038       8.29795334       0.00000000 NULL
P        9.83106094       4.57191446       7.12829572       0.00000000 NULL
P       15.31911967       6.37753974      10.34733737       0.00000000 NULL
P        6.63311524       7.26697382       9.17767975       0.00000000 NULL
60
Lattice="11.232746687687534 -5.514979867106461e-17 7.245716391488876e-17 5.616373343843767 12.254173498449799 0.07597171694008115 5.616373343843767 3.3479205611201195 11.788213085464367" Properties=species:S:1:pos:R:3:initial_magmoms:R:1:castep_labels:S:1 n_minim_iter=4 pbc="T T T"
P       14.74660989       8.43580234       3.71176743       0.00000000 NULL
P        7.71888349      10.28422420       1.28098502       0.00000000 NULL
P       13.33525683       9.77099633       4.72707910       0.00000000 NULL
P        9.13023655      11.61941819       2.29629669       0.00000000 NULL
P       10.68166392      13.49881836       4.46398057       0.00000000 NULL
P       11.78382946      12.36208269       5.95885418       0.00000000 NULL
P        6.16745612       7.69313784       0.04920994       0.00000000 NULL
P        5.06529057       6.55640218       1.54408356       0.00000000 NULL
P       13.85650159       6.35559196       0.23307568       0.00000000 NULL
P        8.60899179       6.37614555       0.20604650       0.00000000 NULL
P       14.22536513      13.67907498       5.80201762       0.00000000 NULL
P       19.47287493      13.69962857       5.77498844       0.00000000 NULL
P       13.80144066      11.97768434      11.65078505       0.00000000 NULL
P       14.28042607       6.62684859       2.49652210       0.00000000 NULL
P        3.04767938       1.17419844       3.43557030       0.00000000 NULL
P       13.80144066      11.42545675       6.14549216       0.00000000 NULL
P        6.58487043       5.48054375       0.32877156       0.00000000 NULL
P       10.26424961       9.58244054      11.12546199       0.00000000 NULL
P       10.26424961      13.82070056       6.67081522       0.00000000 NULL
P        6.58487043       2.32050329       5.60332084       0.00000000 NULL
P       18.15048007      10.43522418       9.03143978       0.00000000 NULL
P        9.93138665       3.69056808       1.71013178       0.00000000 NULL
P        9.93138665       4.11047896       4.22196062       0.00000000 NULL
P       18.15048007      12.96791691       8.76483743       0.00000000 NULL
P        9.96189259       2.00993844       3.17436077       0.00000000 NULL
P       18.11997413      11.39708364       7.02064170       0.00000000 NULL
P       18.11997413      12.00605746      10.77563551       0.00000000 NULL
P        9.96189259       5.79110860       2.75773163       0.00000000 NULL
P       18.59761325      14.28886634      11.49094305       0.00000000 NULL
P        9.48425347       7.09044234       4.76636627       0.00000000 NULL
P        9.48425347       0.71060470       1.16572614       0.00000000 NULL
P        7.36486657       9.11427475       6.30533416       0.00000000 NULL
P        6.19961144       3.78759179       4.05680727       0.00000000 NULL
P       10.64950860      12.72248394       8.49782730       0.00000000 NULL
P       10.64950860      10.68065716       9.29844990       0.00000000 NULL
P        6.19961144       4.01345524       1.87528513       0.00000000 NULL
P       13.78120209      14.61132001       9.95398995       0.00000000 NULL
P       14.30066463       5.69555502       5.48781659       0.00000000 NULL
P        3.06791794       2.10549202       0.44427581       0.00000000 NULL
P       13.78120209       8.79182108       7.84228726       0.00000000 NULL
P        9.27769407      11.65694150       4.94209911       0.00000000 NULL
P       13.18779931      12.33060397       4.05619372       0.00000000 NULL
P        7.57142597       7.72461657       1.95187040       0.00000000 NULL
P       14.89406741       8.39827904       1.06596501       0.00000000 NULL
P        2.54940413       4.21416475       0.73776534       0.00000000 NULL
P       14.29971590       9.63814262       9.79584213       0.00000000 NULL
P       14.29971590      13.76499848       8.00043507       0.00000000 NULL
P       13.78215082       3.58688229       5.19432707       0.00000000 NULL
P       11.14150028       4.24005277      10.15877162       0.00000000 NULL
P       11.32399310       6.46927150       7.22721915       0.00000000 NULL
P       16.94036645       4.67969610      10.49308634       0.00000000 NULL
P       16.75787362       6.90891483       7.56153387       0.00000000 NULL
P       11.96758512       4.42844901       2.01694108       0.00000000 NULL
P       16.11428161      10.92806114       9.66049617       0.00000000 NULL
P       16.11428161      12.47507995       8.13578104       0.00000000 NULL
P       11.96758512       3.37259803       3.91515133       0.00000000 NULL
P       12.40251353       3.75689979       8.41000556       0.00000000 NULL
P       10.06297985       4.65499023       7.22896431       0.00000000 NULL
P       15.67935319       6.49397736      10.49134118       0.00000000 NULL
P        6.78614019       7.39206781       9.31029993       0.00000000 NULL
60
Lattice="11.38381425180124 -8.634780078790997e-17 6.62321694336886e-17 5.69190712590062 12.250558794996415 0.10021805036744655 5.69190712590062 3.3703191410474878 11.778250436069545" Properties=species:S:1:pos:R:3:initial_magmoms:R:1:castep_labels:S:1 n_minim_iter=5 pbc="T T T"
P       14.94619209       8.44157334       3.72358318       0.00000000 NULL
P        7.82143642      10.28414580       1.30049307       0.00000000 NULL
P       13.51334355       9.77685197       4.73895922       0.00000000 NULL
P        9.25428496      11.61942443       2.31586911       0.00000000 NULL
P       10.82611722      13.50338994       4.48184820       0.00000000 NULL
P       11.94151129      12.36751555       5.97558919       0.00000000 NULL
P        6.24960416       7.69348222       0.06386311       0.00000000 NULL
P        5.13421010       6.55760782       1.55760409       0.00000000 NULL
P       14.04089037       6.35484008       0.24421905       0.00000000 NULL
P        8.72673814       6.37367609       0.21944859       0.00000000 NULL
P       14.41864526      13.68732167       5.82000370       0.00000000 NULL
P       19.73279750      13.70615769       5.79523325       0.00000000 NULL
P       13.98801059      11.99801861      11.65757112       0.00000000 NULL
P       14.47152505       6.62942991       2.50716155       0.00000000 NULL
P        3.08771079       1.18100907       3.43207269       0.00000000 NULL
P       13.98801059      11.43329830       6.16013161       0.00000000 NULL
P        6.67408430       5.47756853       0.33766586       0.00000000 NULL
P       10.40163708       9.59960824      11.12735997       0.00000000 NULL
P       10.40163708      13.83170867       6.69034276       0.00000000 NULL
P        6.67408430       2.33287044       5.60156839       0.00000000 NULL
P       18.39552142      10.44810954       9.03922580       0.00000000 NULL
P       10.06401422       3.69212238       1.71332600       0.00000000 NULL
P       10.06401422       4.11831659       4.22590824       0.00000000 NULL
P       18.39552142      12.98320737       8.77847693       0.00000000 NULL
P       10.09607774       2.01504970       3.17266833       0.00000000 NULL
P       18.36345789      11.40621057       7.03316120       0.00000000 NULL
P       18.36345789      12.02510634      10.78454154       0.00000000 NULL
P       10.09607774       5.79538927       2.76656592       0.00000000 NULL
P       18.84706230      14.30670838      11.50250771       0.00000000 NULL
P        9.61247334       7.09696245       4.77332713       0.00000000 NULL
P        9.61247334       0.71347652       1.16590711       0.00000000 NULL
P        7.46324804       9.12460853       6.31519502       0.00000000 NULL
P        6.28280852       3.79581021       4.05806976       0.00000000 NULL
P       10.79291287      12.73528868       8.51255129       0.00000000 NULL
P       10.79291287      10.69602823       9.30515144       0.00000000 NULL
P        6.28280852       4.01462877       1.88116448       0.00000000 NULL
P       13.96668621      14.62605517       9.96826968       0.00000000 NULL
P       14.49284942       5.70386120       5.49105802       0.00000000 NULL
P        3.10903517       2.10657777       0.44817623       0.00000000 NULL
P       13.96668621       8.80526174       7.84943305       0.00000000 NULL
P        9.40186141      11.66209891       4.95720677       0.00000000 NULL
P       13.36576709      12.33353377       4.07423081       0.00000000 NULL
P        7.67385997       7.72746400       1.96522149       0.00000000 NULL
P       15.09376854       8.39889886       1.08224553       0.00000000 NULL
P        2.58348487       4.21192440       0.74528275       0.00000000 NULL
P       14.49223651       9.65417988       9.79881621       0.00000000 NULL
P       14.49223651      13.77713703       8.01888653       0.00000000 NULL
P       13.96729912       3.59851458       5.19395150       0.00000000 NULL
P       11.29260939       4.25791341      10.15149087       0.00000000 NULL
P       11.47501912       6.48003512       7.22927140       0.00000000 NULL
P       17.16692625       4.70072300      10.48821328       0.00000000 NULL
P       16.98451651       6.92284470       7.56599381       0.00000000 NULL
P       12.12914552       4.43164025       2.02261214       0.00000000 NULL
P       16.33039012      10.94377070       9.66919770       0.00000000 NULL
P       16.33039012      12.48754621       8.14850503       0.00000000 NULL
P       12.12914552       3.37879873       3.91662211       0.00000000 NULL
P       12.56645501       3.77332687       8.40596490       0.00000000 NULL
P       10.20117350       4.66849301       7.22876927       0.00000000 NULL
P       15.89308063       6.51226510      10.48871541       0.00000000 NULL
P        6.87454788       7.40743125       9.31151978       0.00000000 NULL
60
Lattice="11.566198034976246 -9.950725729803615e-17 7.048979216957161e-17 5.783099017488123 12.183403807677006 0.12975223480365905 5.783099017488123 3.3808332436739423 11.70564524329284" Properties=species:S:1:pos:R:3:initial_magmoms:R:1:castep_labels:S:1 n_minim_iter=6 pbc="T T T"
P       15.18789113       8.40612692       3.71928466       0.00000000 NULL
P        7.94450495      10.23169663       1.31855416       0.00000000 NULL
P       13.72760396       9.73382571       4.72889682       0.00000000 NULL
P        9.40479211      11.55939542       2.32816631       0.00000000 NULL
P       11.00080781      13.43975467       4.47978891       0.00000000 NULL
P       12.13158826      12.30969121       5.96588819       0.00000000 NULL
P        6.34848924       7.65583113       0.08156278       0.00000000 NULL
P        5.21770880       6.52576766       1.56766206       0.00000000 NULL
P       14.26255846       6.32179170       0.25603267       0.00000000 NULL
P        8.86983761       6.33739393       0.23551482       0.00000000 NULL
P       14.65293663      13.62812841       5.81193616       0.00000000 NULL
P       20.04565748      13.64373064       5.79141831       0.00000000 NULL
P       14.21382218      11.96226419      11.60607927       0.00000000 NULL
P       14.70167291       6.59857640       2.50800324       0.00000000 NULL
P        3.13547488       1.18354213       3.40969550       0.00000000 NULL
P       14.21382218      11.38409140       6.14701696       0.00000000 NULL
P        6.78250042       5.44520022       0.34599424       0.00000000 NULL
P       10.56679663       9.57066342      11.07240771       0.00000000 NULL
P       10.56679663      13.77569216       6.68068851       0.00000000 NULL
P        6.78250042       2.33691831       5.57170451       0.00000000 NULL
P       18.69162709      10.40972133       9.00262630       0.00000000 NULL
P       10.22386800       3.67491580       1.70764997       0.00000000 NULL
P       10.22386800       4.10720273       4.21004877       0.00000000 NULL
P       18.69162709      12.93663425       8.75046992       0.00000000 NULL
P       10.25826585       2.01071999       3.15365185       0.00000000 NULL
P       18.65722925      11.35840821       7.01253526       0.00000000 NULL
P       18.65722925      11.98794738      10.74056096       0.00000000 NULL
P       10.25826585       5.77139854       2.76404689       0.00000000 NULL
P       19.14772697      14.25514246      11.45759143       0.00000000 NULL
P        9.76776812       7.06822004       4.75717515       0.00000000 NULL
P        9.76776812       0.71389849       1.16052359       0.00000000 NULL
P        7.58152894       9.09121312       6.29550479       0.00000000 NULL
P        6.38311401       3.78741005       4.03861055       0.00000000 NULL
P       10.96618305      12.68597192       8.48812126       0.00000000 NULL
P       10.96618305      10.66038366       9.26497496       0.00000000 NULL
P        6.38311401       3.99470848       1.87908819       0.00000000 NULL
P       14.19068066      14.56913701       9.93456025       0.00000000 NULL
P       14.72481443       5.68448779       5.46675361       0.00000000 NULL
P        3.15861640       2.09763075       0.45094514       0.00000000 NULL
P       14.19068066       8.77721857       7.81853597       0.00000000 NULL
P        9.55136270      11.60839455       4.94984420       0.00000000 NULL
P       13.58103338      12.27325288       4.07551677       0.00000000 NULL
P        7.79793436       7.69226946       1.97193421       0.00000000 NULL
P       15.33446172       8.35712779       1.09760678       0.00000000 NULL
P        2.62439655       4.18630873       0.75099860       0.00000000 NULL
P       14.72490051       9.62452209       9.75106916       0.00000000 NULL
P       14.72490051      13.72183350       8.00202706       0.00000000 NULL
P       14.19059458       3.59580980       5.16670014       0.00000000 NULL
P       11.47594008       4.25765038      10.08957783       0.00000000 NULL
P       11.65645600       6.45913797       7.19449341       0.00000000 NULL
P       17.43955502       4.70381380      10.42885057       0.00000000 NULL
P       17.25903909       6.90530139       7.53376616       0.00000000 NULL
P       12.32423766       4.41313169       2.01898300       0.00000000 NULL
P       16.59125743      10.90700702       9.63079658       0.00000000 NULL
P       16.59125743      12.43934857       8.12229964       0.00000000 NULL
P       12.32423766       3.36898684       3.89871574       0.00000000 NULL
P       12.76233854       3.77490228       8.35822857       0.00000000 NULL
P       10.37005754       4.66174830       7.19197440       0.00000000 NULL
P       16.15315655       6.50120347      10.43136959       0.00000000 NULL
P        6.97923952       7.38804949       9.26511542       0.00000000 NULL
60
Lattice="11.833654874222654 -7.593775734799865e-17 1.3615561758529283e-16 5.916827437111327 12.088826098850443 0.1679923139027072 5.916827437111327 3.3924083872867823 11.604288138427291" Properties=species:S:1:pos:R:3:initial_magmoms:R:1:castep_labels:S:1 n_minim_iter=7 pbc="T T T"
P       15.54459074       8.35713263       3.71198293       0.00000000 NULL
P        8.12271901      10.15849116       1.34309154       0.00000000 NULL
P       14.03954645       9.67095219       4.71104101       0.00000000 NULL
P        9.62776330      11.47231072       2.34214961       0.00000000 NULL
P       11.25742279      13.34827174       4.46996132       0.00000000 NULL
P       12.40988696      12.22269740       5.95015714       0.00000000 NULL
P        6.49305953       7.60674595       0.10397540       0.00000000 NULL
P        5.34059535       6.48117161       1.58417122       0.00000000 NULL