60
Lattice="10.27999503678798 -0.14436794666296474 -1.53750261397404 -5.041857632614954 8.959844530552603 1.5375018533826763 -5.925990281497392 -2.4427713132188855 14.1617385572548" Properties=species:S:1:pos:R:3:initial_magmoms:R:1:castep_labels:S:1:forces:R:3 n_minim_iter=1 energy=-319.174359418103 stress="0.007085662523823071 -0.001595217767821944 -0.00027454858681101596 -0.001595217767821944 0.005348905976514158 0.00016313686108585115 -0.00027454858681101596 0.00016313686108585115 0.0036850672767654354" free_energy=-319.174359418103 pbc="T T T"
P       -3.52161193       5.33777617       9.25982047       0.00000000 NULL       0.17699500       0.05497400       0.07896100
P       -4.59595662       5.97614925       6.43941952       0.00000000 NULL      -0.03634100       0.18174000      -0.07895900
P        4.64733639       0.40967065       3.82438905       0.00000000 NULL       0.10360500       0.07526400       0.14878300
P        2.49183675       1.69046437       8.79984647       0.00000000 NULL       0.01657100       0.12698200      -0.14878300
P       -1.65581831       5.81740890      12.31633256       0.00000000 NULL       0.05255300      -0.10225900       0.10164200
P        5.21322604       7.69981981       1.84540461       0.00000000 NULL      -0.11494100      -0.00273300      -0.10164200
P        3.00458327       7.54805154       1.88791941       0.00000000 NULL      -0.04843100      -0.07089400       0.24196800
P       -0.73312176       3.80500547      12.27381794       0.00000000 NULL      -0.03911400      -0.07643400      -0.24197000
P        3.46833485       6.11082471       5.09741225       0.00000000 NULL       0.12645900      -0.06520700      -0.12733900
P       -2.21715970       3.52515047       9.06432525       0.00000000 NULL      -0.11773300       0.07989100       0.12733900
P        1.38699573       1.66920221      10.70516282       0.00000000 NULL      -0.28595600       0.25182400       0.17236700
P        0.11504956       8.38897262       3.45657465       0.00000000 NULL       0.35789800      -0.13075100      -0.17236800
P        7.67439210       0.62415007      -0.44656705       0.00000000 NULL      -0.05848800       0.07942300      -0.02798200
P       -9.04707433       4.59602776      14.60830494       0.00000000 NULL       0.09772600      -0.01339500       0.02798300
P       -1.07962380      -0.11649767       5.05171957       0.00000000 NULL       0.06007600      -0.23380800      -0.06362700
P       -0.27398403       5.36877658       9.11001831       0.00000000 NULL      -0.23407500      -0.05902400       0.06362800
P        4.00909165       2.80808249       0.65321393       0.00000000 NULL       0.41919100      -0.23718600      -0.27449900
P       -5.37648776       2.42099155      13.50852395       0.00000000 NULL      -0.40874300       0.25477100       0.27450000
P       -1.89558477       0.32248401       9.55112174       0.00000000 NULL       0.06552700       0.16025700      -0.20717900
P        0.50169747       4.86200692       4.61061615       0.00000000 NULL       0.10942300       0.13417400       0.20717900
P       -3.81796527       1.49682530       6.42819177       0.00000000 NULL       0.00667500      -0.11741000       0.13263900
P        2.45224240       3.73506471       7.73354611       0.00000000 NULL      -0.10631200      -0.05027400      -0.13263900
P       -3.64252206       7.70748462       5.06935147       0.00000000 NULL      -0.07278800      -0.34044000       0.04812100
P        2.58501410      -1.95688708       9.09238636       0.00000000 NULL      -0.26420800      -0.22670000      -0.04811900
P       -0.94520533       7.49552856       6.49236133       0.00000000 NULL       0.28284900       0.07026100      -0.09839600
P        1.10921587       0.31081263       7.66937633       0.00000000 NULL      -0.07352800       0.28201700       0.09839700
P        5.69093156       4.28521619       3.35691974       0.00000000 NULL      -0.08843400      -0.12575700       0.03824400
P       -4.88324814       4.60438854      10.80481783       0.00000000 NULL      -0.06816800      -0.13779500      -0.03824500
P       -3.38047301       1.90311563      10.09347433       0.00000000 NULL       0.12081100       0.03951200      -0.13738000
P        2.59991161       4.31356665       4.06826346       0.00000000 NULL      -0.02305800       0.12499900       0.13738000
P       -0.15565025       5.29970138       1.39248700       0.00000000 NULL      -0.15443000      -0.03047700      -0.30643000
P       -1.19686925      -0.04559086      12.76925088       0.00000000 NULL       0.04707100      -0.15020400       0.30643300
P        4.48009866      -0.49625731       6.97411210       0.00000000 NULL       0.05771800       0.18063800       0.05309200
P        1.77612394       1.11043859       5.65012356       0.00000000 NULL       0.13106000       0.13706000      -0.05309200
P       -2.33888800       4.44092356       5.10453088       0.00000000 NULL      -0.13547700       0.17897800      -0.04135100
P       -5.94914025       6.58612823      10.59470913       0.00000000 NULL       0.22197000      -0.03341600       0.04135200
P        0.35187210       4.34651362       7.20420394       0.00000000 NULL       0.28150500       0.01322200       0.00129100
P       -2.27670588      -0.05557431       6.95753403       0.00000000 NULL      -0.12298000       0.25356600      -0.00129100
P        5.55722378       1.11491662       0.37364631       0.00000000 NULL      -0.25971200       0.26277000      -0.01292200
P       -7.60377830       2.97117384      13.78809167       0.00000000 NULL       0.35496400      -0.10246800       0.01292300
P       -5.87988524       4.57255450      14.11561407       0.00000000 NULL      -0.17605800      -0.16160900       0.00733700
P        6.13948268       3.39465381       0.04612358       0.00000000 NULL      -0.05776700      -0.23190200      -0.00734100
P        0.99234771       6.28529412       6.28201408       0.00000000 NULL      -0.16231900      -0.07881800      -0.08858100
P       -0.88010787       1.43392004       7.87972359       0.00000000 NULL       0.00838200      -0.18024900       0.08858100
P       -0.13698492       3.39403543      10.19014336       0.00000000 NULL      -0.11091300       0.24877900       0.07920500
P        2.35860615       7.87514333       3.97159401       0.00000000 NULL       0.27153000       0.02153200      -0.07920600
P       -3.85001139       5.37587042      12.70630206       0.00000000 NULL       0.14976300      -0.00416000      -0.00254400
P        5.87451014       5.56156281       1.45543533       0.00000000 NULL      -0.07526300       0.12954500       0.00254200
P       -1.83213946       2.71180744       1.90868258       0.00000000 NULL      -0.09205200       0.05669400       0.00607800
P       -7.71010030       6.20448028      13.79055761       0.00000000 NULL       0.09380500      -0.05374200      -0.00607700
P       -0.08408667       1.80830748       4.46027371       0.00000000 NULL      -0.04664700      -0.11781300       0.04391500
P        5.98243547      -1.79640673       8.16396199       0.00000000 NULL      -0.08117100      -0.09729900      -0.04391500
P       -7.74179479       5.70630963      11.63118720       0.00000000 NULL       0.19092300      -0.02449700       0.27001000
P       -2.25452641       2.44578580       4.06805306       0.00000000 NULL      -0.11280200       0.15597500      -0.27001000
P        4.29721200      -0.38579131       9.25664624       0.00000000 NULL       0.06325700      -0.06053600       0.09632700
P        1.96058709       1.00262572       3.36758942       0.00000000 NULL      -0.08341200       0.02661500      -0.09632700
P        3.10261481       2.91989223       5.77129550       0.00000000 NULL       0.01670600       0.06084100       0.26515400
P       -4.84488248       1.67829507       8.39044244       0.00000000 NULL       0.04544900       0.04376200      -0.26515400
P        0.67139418      -1.50276571      10.51636213       0.00000000 NULL      -0.01512400      -0.24052600      -0.09315500
P       -2.32873171       6.24388544       3.64537580       0.00000000 NULL      -0.20401600      -0.12828300       0.09315400
60
Lattice="10.223142734384936 -0.1309152674017403 -1.5309153537499673 -5.0028600494719715 8.916343410900412 1.530914595751156 -5.893513528805774 -2.4417400957771016 14.120360124903888" Properties=species:S:1:pos:R:3:initial_magmoms:R:1:castep_labels:S:1:forces:R:3 n_minim_iter=2 energy=-319.223707388006 stress="0.0005949117600723154 -0.0007524340371400508 -2.5695472546488014e-05 -0.0007524340371400508 -0.0002243469245209024 1.5294142285657245e-05 -2.5695472546488014e-05 1.5294142285657245e-05 -0.0014555869491374282" free_energy=-319.223707388006 pbc="T T T"
P       -3.49366027       5.31020601       9.23201537       0.00000000 NULL       0.15826800       0.11541800       0.00497500
P       -4.56206123       5.94504734       6.41925893       0.00000000 NULL       0.02569800       0.19418700      -0.00497800
P        4.62324297       0.41326364       3.81449810       0.00000000 NULL       0.06675700       0.13134600       0.15706700
P        2.48213643       1.68550500       8.77494626       0.00000000 NULL       0.08344000       0.12142900      -0.15706800
P       -1.63693291       5.78966715      12.28015097       0.00000000 NULL       0.12421700      -0.07585800       0.17717200
P        5.19445317       7.67412570       1.84020777       0.00000000 NULL      -0.12601700       0.07282800      -0.17717200
P        2.99778048       7.52021754       1.88236753       0.00000000 NULL      -0.09632500      -0.14632600       0.19924600
P       -0.72183893       3.78675386      12.23799139       0.00000000 NULL      -0.08245700      -0.15456300      -0.19924300
P        3.45800981       6.08911199       5.08274555       0.00000000 NULL       0.08798500      -0.04638200      -0.07642800
P       -2.19881652       3.50673199       9.03761353       0.00000000 NULL      -0.08280500       0.05510000       0.07642900
P        1.38354016       1.66280801      10.67479300       0.00000000 NULL      -0.30202700       0.20689100       0.22682500
P        0.12570778       8.35386320       3.44556604       0.00000000 NULL       0.32611600      -0.16635200      -0.22682500
P        7.63296340       0.63112385      -0.44376113       0.00000000 NULL      -0.02170100       0.05904700      -0.10986400
P       -8.98866469       4.56400665      14.56412058       0.00000000 NULL       0.06222800       0.00916800       0.10986200
P       -1.07274093      -0.11812789       5.03704353       0.00000000 NULL       0.12037500      -0.25918900      -0.06472600
P       -0.26408465       5.34502511       9.08331592       0.00000000 NULL      -0.28519900      -0.01819700       0.06472400
P        3.99097537       2.80116302       0.65167329       0.00000000 NULL       0.23631500      -0.16721800      -0.15779500
P       -5.34142661       2.40280300      13.46868616       0.00000000 NULL      -0.25985300       0.12760400       0.15779500
P       -1.88273092       0.31771121       9.52328219       0.00000000 NULL       0.10529400       0.07842700      -0.15499000
P        0.50598190       4.84199721       4.59707727       0.00000000 NULL       0.01853800       0.12997600       0.15499000
P       -3.79382693       1.48504200       6.40892530       0.00000000 NULL       0.00713500      -0.03598900       0.08902900
P        2.44497422       3.72161426       7.71143415       0.00000000 NULL      -0.03502000      -0.01093900      -0.08902900
P       -3.61203412       7.67023400       5.05316600       0.00000000 NULL      -0.05387500      -0.31837900       0.10471900
P        2.57019695      -1.94688868       9.06719341       0.00000000 NULL      -0.25387000      -0.19954000      -0.10471800
P       -0.92923895       7.46255591       6.47262012       0.00000000 NULL       0.21244300       0.04453500      -0.08728500
P        1.10509907       0.31010219       7.64773911       0.00000000 NULL      -0.06245600       0.20788200       0.08728700
P        5.66567164       4.27398090       3.34802699       0.00000000 NULL      -0.21313000      -0.22164900       0.03489800
P       -4.84856204       4.57786230      10.77233215       0.00000000 NULL      -0.09277400      -0.29317100      -0.03489600
P       -3.35738367       1.88982555      10.06361624       0.00000000 NULL       0.04101200       0.07901500      -0.02652700
P        2.59182158       4.29847445       4.05674313       0.00000000 NULL       0.04979000       0.07379900       0.02652700
P       -0.14807117       5.27737197       1.38761872       0.00000000 NULL      -0.13122400      -0.07147500      -0.14513600
P       -1.18762801      -0.04857909      12.73274073       0.00000000 NULL      -0.00003700      -0.14942700       0.14513500
P        4.45644537      -0.48945022       6.95524779       0.00000000 NULL      -0.00725700       0.19476900       0.01133400
P        1.76903611       1.10740253       5.63419669       0.00000000 NULL       0.17453200       0.08674700      -0.01133500
P       -2.31960034       4.41912442       5.08887678       0.00000000 NULL      -0.04681700       0.17509600       0.04407200
P       -5.90603379       6.55017600      10.56239754       0.00000000 NULL       0.17616900       0.04260000      -0.04407200
P        0.35700034       4.32805136       7.18316483       0.00000000 NULL       0.21000500      -0.03777100      -0.01460900
P       -2.26289634      -0.05886613       6.93719470       0.00000000 NULL      -0.13358200       0.16638700       0.01460800
P        5.52805270       1.11726218       0.37360930       0.00000000 NULL      -0.26795300       0.14152300       0.02358000
P       -7.55529421       2.94770570      13.74675025       0.00000000 NULL       0.25241200      -0.16767900      -0.02358100
P       -5.83914091       4.54450044      14.07349781       0.00000000 NULL      -0.09347300      -0.03015200       0.00842200
P        6.10998433       3.38800896       0.04686140       0.00000000 NULL       0.01821100      -0.09651300      -0.00842000
P        0.99587988       6.25965150       6.26344280       0.00000000 NULL      -0.11467700      -0.02956200      -0.06392200
P       -0.87184170       1.42579333       7.85691644       0.00000000 NULL       0.02886500      -0.11485400       0.06392100
P       -0.12996233       3.37868579      10.16064498       0.00000000 NULL      -0.09761800       0.21467700       0.07727600
P        2.35638905       7.84495506       3.95971396       0.00000000 NULL       0.23522500       0.01690400      -0.07727400
P       -3.81949905       5.34726677      12.66853221       0.00000000 NULL       0.14353700      -0.08440700       0.08964600
P        5.84942121       5.54566849       1.45182675       0.00000000 NULL      -0.14275500       0.08571500      -0.08964200
P       -1.81840969       2.69811781       1.90250722       0.00000000 NULL      -0.00179100       0.09739900      -0.03703000
P       -7.65721397       6.16752389      13.74876728       0.00000000 NULL       0.08640200       0.04499700       0.03702900
P       -0.08048211       1.80008094       4.44732217       0.00000000 NULL      -0.03455700      -0.06708900       0.03551600
P        5.94911118      -1.78269022       8.14212236       0.00000000 NULL      -0.04240100      -0.06242700      -0.03551700
P       -7.68974535       5.67166729      11.59579076       0.00000000 NULL       0.19575500      -0.09050800       0.26109800
P       -2.23836409       2.43246751       4.05548381       0.00000000 NULL      -0.17308500       0.12865700      -0.26109800
P        4.27518450      -0.38010550       9.23124007       0.00000000 NULL       0.07397700      -0.00092400       0.18196000
P        1.95173713       1.00048147       3.35820441       0.00000000 NULL      -0.03618100       0.06453300      -0.18196100
P        3.09043872       2.91093486       5.75527558       0.00000000 NULL       0.10387900       0.04113400       0.25321000
P       -4.81445132       1.66434941       8.36508392       0.00000000 NULL      -0.01354000       0.11090200      -0.25321000
P        0.66808334      -1.49719233      10.48661275       0.00000000 NULL      -0.05353500      -0.10495100      -0.04426700
P       -2.30763162       6.21462507       3.63374675       0.00000000 NULL      -0.06658900      -0.09720100       0.04426500
60
Lattice="10.198155654149966 -0.10731716510650079 -1.5356767023655227 -4.9701871555136865 8.905680080200142 1.5356759432507106 -5.88355778359022 -2.456406606668489 14.173344055920547" Properties=species:S:1:pos:R:3:initial_magmoms:R:1:castep_labels:S:1:forces:R:3 n_minim_iter=3 energy=-319.233878231959 stress="-0.0003731995067558702 0.00043349081459933495 -1.9419457278200987e-05 0.00043349081459933495 9.87285535916643e-05 1.153363292124474e-05 -1.9419457278200987e-05 1.153363292124474e-05 0.0008206831510613635" free_energy=-319.233878231959 pbc="T T T"
P       -3.47174356       5.30244516       9.26629999       0.00000000 NULL       0.10863400       0.13945600       0.05782100
P       -4.53672771       5.93525623       6.44271958       0.00000000 NULL       0.07054100       0.16209000      -0.05782000
P        4.61365096       0.42402508       3.82974840       0.00000000 NULL       0.06251500       0.10165600       0.14487900
P        2.48114294       1.69115723       8.80791854       0.00000000 NULL       0.05939400       0.10350900      -0.14488000
P       -1.61814990       5.78558787      12.32653036       0.00000000 NULL       0.11705000      -0.04712600       0.15970900
P        5.19953139       7.68694059       1.84681231       0.00000000 NULL      -0.09735600       0.08027200      -0.15970900
P        3.00785176       7.52744622       1.88982750       0.00000000 NULL      -0.12179300      -0.13789200       0.24237100
P       -0.71034954       3.78438908      12.28351536       0.00000000 NULL      -0.06287500      -0.17290100      -0.24237000
P        3.46444893       6.09729058       5.10177306       0.00000000 NULL       0.03788200      -0.05513900      -0.09139500
P       -2.18475623       3.50163127       9.07156995       0.00000000 NULL      -0.06654000       0.00690700       0.09139500
P        1.38441083       1.66601962      10.71576684       0.00000000 NULL      -0.26757600       0.20419100       0.19512700
P        0.14575378       8.35443170       3.45757612       0.00000000 NULL       0.30727200      -0.13738400      -0.19512700
P        7.61600067       0.64892083      -0.44497232       0.00000000 NULL       0.01115200       0.05445400      -0.09490500
P       -8.95496774       4.54295093      14.61831570       0.00000000 NULL       0.04249200       0.03582900       0.09490400
P       -1.06964834      -0.12153045       5.05584646       0.00000000 NULL       0.11431200      -0.23653600      -0.04192500
P       -0.25091016       5.34438274       9.11749692       0.00000000 NULL      -0.26240300      -0.01269100       0.04192400
P        3.98848639       2.81019620       0.65398184       0.00000000 NULL       0.18929500      -0.13344700      -0.18893900
P       -5.32234704       2.39026936      13.51936154       0.00000000 NULL      -0.20771200       0.10245300       0.18893900
P       -1.87626781       0.31303563       9.55873054       0.00000000 NULL       0.14403500       0.08302500      -0.17069100
P        0.51642679       4.84370650       4.61461285       0.00000000 NULL       0.00405400       0.16620100       0.17069100
P       -3.78064054       1.47599107       6.43292587       0.00000000 NULL      -0.03275400      -0.00655500       0.10419500
P        2.44836173       3.72713664       7.74041752       0.00000000 NULL       0.00990300      -0.03190100      -0.10419500
P       -3.58534193       7.66166037       5.07171674       0.00000000 NULL      -0.07632700      -0.31456900       0.08717500
P        2.55986048      -1.94221079       9.10162660       0.00000000 NULL      -0.23979000      -0.21743900      -0.08717600
P       -0.90867100       7.46092519       6.49636279       0.00000000 NULL       0.20062500       0.09898500      -0.06312300
P        1.10378864       0.31272073       7.67698037       0.00000000 NULL      -0.00898400       0.22353400       0.06312400
P        5.66174769       4.28673704       3.36109273       0.00000000 NULL      -0.23165200      -0.15666900       0.02625100
P       -4.82552652       4.56584835      10.81225034       0.00000000 NULL      -0.02684300      -0.27836900      -0.02625200
P       -3.34385419       1.88188109      10.10117337       0.00000000 NULL       0.01476600       0.11809300      -0.05070800
P        2.59601686       4.30482718       4.07216993       0.00000000 NULL       0.09666100       0.06943200       0.05070800
P       -0.13575013       5.27733363       1.39217664       0.00000000 NULL      -0.11679000      -0.06296400      -0.22620500
P       -1.18359686      -0.05244242      12.78116674       0.00000000 NULL       0.00053500      -0.13268300       0.22620200
P        4.44532130      -0.47920185       6.98207104       0.00000000 NULL      -0.02455300       0.20331200       0.00448700
P        1.76832450       1.11146384       5.65559602       0.00000000 NULL       0.19030600       0.07564100      -0.00448700
P       -2.30346859       4.41436652       5.10773628       0.00000000 NULL      -0.01806000       0.15953000       0.02033900
P       -5.87529689       6.53673975      10.60128332       0.00000000 NULL       0.14874800       0.06041400      -0.02033900
P        0.36733607       4.32881143       7.21008911       0.00000000 NULL       0.16400700      -0.00078800       0.01430700
P       -2.25721474      -0.06409142       6.96325435       0.00000000 NULL      -0.07910700       0.14367000      -0.01430700
P        5.51675876       1.13042175       0.37556352       0.00000000 NULL      -0.25939900       0.10308900       0.02307500
P       -7.52838064       2.92941161      13.79777996       0.00000000 NULL       0.21456500      -0.17854100      -0.02307600
P       -5.81347789       4.53061317      14.12591440       0.00000000 NULL      -0.07457800      -0.03899400       0.03560200
P        6.10315880       3.40217716       0.04742874       0.00000000 NULL       0.00141200      -0.08414300      -0.03559900
P        1.00824831       6.26214805       6.28671326       0.00000000 NULL      -0.11733200      -0.08281800      -0.05612600
P       -0.86560683       1.42318359       7.88662990       0.00000000 NULL      -0.01664000      -0.14265000       0.05612600
P       -0.12107884       3.37864723      10.19906341       0.00000000 NULL      -0.10573800       0.23440500       0.12380400
P        2.36974938       7.85100720       3.97427946       0.00000000 NULL       0.25643400       0.01920500      -0.12380400
P       -3.79640510       5.33808468      12.71597623       0.00000000 NULL       0.12829100      -0.10020300       0.05040700
P        5.84795652       5.55982991       1.45736666       0.00000000 NULL      -0.14934300       0.06477000      -0.05040600
P       -1.80765662       2.69433421       1.90927736       0.00000000 NULL      -0.00221200       0.07279500       0.00810800
P       -7.62304969       6.14982941      13.79974242       0.00000000 NULL       0.06499300       0.03286300      -0.00810800
P       -0.07578099       1.79965178       4.46412131       0.00000000 NULL      -0.03079700      -0.08140700       0.05286100
P        5.93145522      -1.76983485       8.17354580       0.00000000 NULL      -0.05677600      -0.06597100      -0.05286200
P       -7.65660314       5.65366463      11.63919134       0.00000000 NULL       0.21565900      -0.09917300       0.30233900
P       -2.22739302       2.42763889       4.06982850       0.00000000 NULL      -0.19021300       0.14199600      -0.30233900
P        4.26516355      -0.37087238       9.26705257       0.00000000 NULL       0.05770200      -0.00284000       0.14368000
P        1.94960640       1.00502624       3.37061449       0.00000000 NULL      -0.03008200       0.04932200      -0.14368000
P        3.09054546       2.91810581       5.77780132       0.00000000 NULL       0.10036700       0.02481300       0.26543900
P       -4.79824840       1.65320521       8.39554212       0.00000000 NULL      -0.02619500       0.10001300      -0.26543800
P        0.66397298      -1.49670816      10.52633716       0.00000000 NULL      -0.08114800      -0.10341300      -0.07293200
P       -2.28759958       6.20951470       3.64700626       0.00000000 NULL      -0.05203300      -0.12071700       0.07293100
60
Lattice="10.207342003336867 -0.10620004057411137 -1.5076701368989078 -4.97359815993969 8.914282520577034 1.5076693769455003 -5.8530402039271845 -2.4811157199591234 14.15892665549597" Properties=species:S:1:pos:R:3:initial_magmoms:R:1:castep_labels:S:1:forces:R:3 n_minim_iter=4 energy=-319.352557672706 stress="0.00015532716467692032 0.0006600750214166431 0.0016748949758504206 0.0006600750214166431 0.0008740015508213507 -0.0009952241305834248 0.0016748949758504206 -0.0009952241305834248 -0.00147266378371867" free_energy=-319.352557672706 pbc="T T T"
P       -3.43955880       5.30735372       9.25067024       0.00000000 NULL      -0.07911500      -0.02726400       0.10974200
P       -4.52069812       5.94976415       6.41592537       0.00000000 NULL       0.01388000      -0.08252200      -0.10974300
P        4.63626607       0.42902970       3.85575729       0.00000000 NULL       0.14674500      -0.06619300      -0.20402400
P        2.51442969       1.68982079       8.79549881       0.00000000 NULL      -0.12829600       0.09724000       0.20402700
P       -1.57620810       5.76732791      12.32731650       0.00000000 NULL      -0.01629300       0.01513700      -0.05748700
P        5.19973352       7.70005789       1.83160877       0.00000000 NULL       0.02108400      -0.00707300       0.05748700
P        3.00487222       7.51887895       1.90813927       0.00000000 NULL       0.02998700      -0.00226200      -0.20971300
P       -0.68593198       3.75296687      12.25078618       0.00000000 NULL      -0.01632700       0.02525500       0.20971200
P        3.48734978       6.09084347       5.09190948       0.00000000 NULL       0.03810000       0.06851000      -0.00488200
P       -2.17085045       3.49395338       9.06701612       0.00000000 NULL       0.04195500       0.06622000       0.00488200
P        1.38731641       1.67089894      10.73543623       0.00000000 NULL      -0.08275400       0.11051500      -0.12976200
P        0.18494297       8.34432700       3.42348933       0.00000000 NULL       0.13663200      -0.01984100       0.12976000
P        7.62456643       0.65507501      -0.43535040       0.00000000 NULL       0.02785200      -0.10820300       0.01203700
P       -8.92314043       4.52870750      14.59427638       0.00000000 NULL      -0.10834800      -0.02727100      -0.01203500
P       -1.04622695      -0.15372247       5.04735305       0.00000000 NULL       0.19923700      -0.06380800       0.08661400
P       -0.25408954       5.33457248       9.11157293       0.00000000 NULL      -0.15130000       0.14448400      -0.08661400
P        4.01527961       2.79771091       0.64250313       0.00000000 NULL      -0.32306300       0.14803200       0.41101900
P       -5.31560557       2.38312316      13.51642285       0.00000000 NULL       0.28447800      -0.21296800      -0.41101900
P       -1.84043114       0.30661657       9.53506709       0.00000000 NULL       0.01660100       0.01409100      -0.01781800
P        0.52994770       4.85712305       4.62385890       0.00000000 NULL       0.00443900       0.02131800       0.01781800
P       -3.77030678       1.46619517       6.42906242       0.00000000 NULL       0.06812600       0.07156300      -0.19164700
P        2.47111020       3.71653957       7.72986357       0.00000000 NULL       0.03028100       0.09405100       0.19164700
P       -3.58421384       7.63168647       5.05819382       0.00000000 NULL      -0.13905800      -0.05421000      -0.11112300
P        2.56351276      -1.98026019       9.10073212       0.00000000 NULL       0.01887400      -0.14805300       0.11112200
P       -0.87317502       7.46745174       6.47367713       0.00000000 NULL       0.07584000       0.14440700       0.04113500
P        1.12306716       0.32230803       7.68524863       0.00000000 NULL       0.09056900       0.13565100      -0.04113700
P        5.65541427       4.26779420       3.37182155       0.00000000 NULL      -0.03329200       0.10995700       0.03730100
P       -4.80861822       4.52651969      10.78710412       0.00000000 NULL       0.11249200       0.02333300      -0.03730000
P       -3.31896892       1.87873386      10.08314927       0.00000000 NULL      -0.08559400       0.01007800      -0.07738900
P        2.61764746       4.31018949       4.07577662       0.00000000 NULL       0.04977600      -0.07035800       0.07738900
P       -0.14493132       5.27476890       1.36342172       0.00000000 NULL      -0.18378500       0.01928800       0.40015100
P       -1.15094216      -0.08644158      12.79550426       0.00000000 NULL       0.10481100      -0.15219700      -0.40015100
P        4.46817115      -0.47157739       6.99430388       0.00000000 NULL       0.00134600       0.02547400       0.10789100
P        1.80380001       1.11158615       5.65695235       0.00000000 NULL       0.02173100       0.01336200      -0.10789000
P       -2.29604277       4.42803689       5.09636503       0.00000000 NULL      -0.16354600      -0.02086100      -0.04974900
P       -5.83973412       6.53369121      10.57023060       0.00000000 NULL       0.05987300      -0.15361500       0.04974900
P        0.40436105       4.32110304       7.20332166       0.00000000 NULL      -0.05475600      -0.00096900       0.05289600
P       -2.25116974      -0.05996720       6.95560441       0.00000000 NULL       0.02532800      -0.04855500      -0.05289600