4
Lattice="3.58481 -4.509282106382603e-16 3.6356922730925166e-16 -0.6685751277016815 4.8682555295627905 -2.2957741671464237e-15 -0.9744746817911937 -0.9486546693052851 5.1060600444817785" Properties=species:S:1:pos:R:3:initial_magmoms:R:1:castep_labels:S:1 n_minim_iter=1 pbc="T T T"
P        3.02865122       1.02204744       1.04264367       0.00000000 NULL
P        1.42547396      -0.09286790       2.38659391       0.00000000 NULL
P       -0.74670730       3.48762089       2.86509863       0.00000000 NULL
P        1.06979220       1.88176376       3.72550191       0.00000000 NULL
4
Lattice="3.5833929548365755 0.0014302356195402355 -0.0006124441464793707 -0.6663685522863869 4.866074451886256 -0.0005994621474750612 -0.9753403069288683 -0.9494189651577634 5.104858704590912" Properties=species:S:1:pos:R:3:initial_magmoms:R:1:castep_labels:S:1 n_minim_iter=2 pbc="T T T"
P        3.02773017       1.02270066       1.04170857       0.00000000 NULL
P        1.42460726      -0.09230914       2.38552179       0.00000000 NULL
P       -0.74568815       3.48522313       2.86395822       0.00000000 NULL
P        1.06947353       1.88090984       3.72395297       0.00000000 NULL
4
Lattice="3.360018655406807 0.2293442080790773 -0.1013000194468131 -0.3151962565559879 4.520532535049139 -0.10151559388025512 -1.118348126041537 -1.0778641245172818 4.910150837663704" Properties=species:S:1:pos:R:3:initial_magmoms:R:1:castep_labels:S:1 n_minim_iter=3 pbc="T T T"
P        2.88191972       1.12641285       0.88761909       0.00000000 NULL
P        1.28923676      -0.00422016       2.20870169       0.00000000 NULL
P       -0.58995326       3.09868471       2.67800349       0.00000000 NULL
P        1.01626344       1.74094761       3.47021334       0.00000000 NULL
4
Lattice="3.4294659692197067 0.17748968358069264 -0.05325902920398031 -0.39856798959709866 4.574203438433958 -0.21828628588940918 -1.0550762738270003 -1.1854196308083451 5.051972008009713" Properties=species:S:1:pos:R:3:initial_magmoms:R:1:castep_labels:S:1 n_minim_iter=4 pbc="T T T"
P        2.94047320       1.07875426       0.92746545       0.00000000 NULL
P        1.34837006      -0.06505916       2.27003842       0.00000000 NULL
P       -0.62300244       3.04782101       2.67343786       0.00000000 NULL
P        1.06734245       1.66623711       3.56083259       0.00000000 NULL
4
Lattice="3.3893239845532723 0.1796072978504295 -0.04601121622087553 -0.3882056496396988 4.4785034731221405 -0.2662953066225385 -1.0344011944357867 -1.2163600193660942 5.070920551314128" Properties=species:S:1:pos:R:3:initial_magmoms:R:1:castep_labels:S:1 n_minim_iter=5 pbc="T T T"
P        2.91076593       1.05611934       0.92774082       0.00000000 NULL
P        1.33686048      -0.07810264       2.26331555       0.00000000 NULL
P       -0.61082571       2.93409363       2.64984232       0.00000000 NULL
P        1.06686723       1.59912895       3.56337725       0.00000000 NULL
4
Lattice="3.3846954902463557 0.18096023100174913 -0.037380023319320214 -0.38550511028967865 4.433387995778768 -0.3127081186896739 -1.02120711347292 -1.254977131538167 5.134137721286815" Properties=species:S:1:pos:R:3:initial_magmoms:R:1:castep_labels:S:1 n_minim_iter=6 pbc="T T T"
P        2.91126188       1.04408662       0.93721065       0.00000000 NULL
P        1.34040915      -0.09250857       2.27616638       0.00000000 NULL
P       -0.60584739       2.85810858       2.65287489       0.00000000 NULL
P        1.07817828       1.55309789       3.60308535       0.00000000 NULL
4
Lattice="3.3595172303630316 0.1948533524301827 0.0005907658234195954 -0.3619421254916997 4.21317898442546 -0.5093469634743426 -0.9639552837880163 -1.4151642498476698 5.443274875606642" Properties=species:S:1:pos:R:3:initial_magmoms:R:1:castep_labels:S:1 n_minim_iter=7 pbc="T T T"
P        2.91228497       0.99375155       0.98996271       0.00000000 NULL
P        1.35134756      -0.14732474       2.33165858       0.00000000 NULL
P       -0.57492725       2.51372798       2.69495950       0.00000000 NULL
P        1.13228529       1.34944288       3.81251012       0.00000000 NULL
4
Lattice="3.3464688941966623 0.27154518142594863 -0.007131117040455695 -0.25535929025087173 4.137989767324555 -0.5712634740551545 -0.9917021339698017 -1.4905986523796435 5.6381168584762" Properties=species:S:1:pos:R:3:initial_magmoms:R:1:castep_labels:S:1 n_minim_iter=8 pbc="T T T"
P        2.93224845       1.04765261       1.04416485       0.00000000 NULL
P        1.32897068      -0.12641487       2.27480624       0.00000000 NULL
P       -0.52267615       2.34475998       2.78543158       0.00000000 NULL
P        1.17822438       1.33662637       3.98642726       0.00000000 NULL
4
Lattice="3.3697367642949385 0.17076540661656311 0.08711493192030875 -0.3965600833769197 4.1655033935692805 -0.7002370609192164 -0.8371173056014056 -1.5817400554294574 5.396171629617926" Properties=species:S:1:pos:R:3:initial_magmoms:R:1:castep_labels:S:1 n_minim_iter=9 pbc="T T T"
P        2.94707422       0.94291338       1.06662937       0.00000000 NULL
P        1.38967260      -0.21130639       2.19621170       0.00000000 NULL
P       -0.54573705       2.28776553       2.56948667       0.00000000 NULL
P        1.24311883       1.23095306       3.77286906       0.00000000 NULL
4
Lattice="3.4072595559473045 0.23345980104364217 0.02070148757277716 -0.3184177195915281 4.253572163751193 -0.6443162206350544 -0.9585048756726832 -1.572561438436482 5.526840493822962" Properties=species:S:1:pos:R:3:initial_magmoms:R:1:castep_labels:S:1 n_minim_iter=10 pbc="T T T"
P        2.98326923       1.03057149       1.04023000       0.00000000 NULL
P        1.36293261      -0.17057085       2.20919562       0.00000000 NULL
P       -0.55192165       2.36330940       2.69145511       0.00000000 NULL
P        1.21437620       1.32923818       3.86977429       0.00000000 NULL
