20
Lattice="5.06082654343189 0.0 0.0 0.0 7.317528287372272 0.2930472260509302 0.0 -2.0525910840086965 10.28933990048596" Properties=species:S:1:pos:R:3:initial_magmoms:R:1:castep_labels:S:1:forces:R:3 n_minim_iter=1 energy=-110.115917796719 stress="0.00020956211292978474 -0.0 0.0 -0.0 -0.000881519942797447 -3.556489579601018e-05 0.0 -3.556489579601018e-05 -0.0003147206884203302" free_energy=-110.115917796719 pbc="T T T"
P        1.36907577       6.14969096       3.33249723       0.00000000 NULL       0.02443300      -0.01237300      -0.01409800
P        3.69175077       6.14969096       3.33249723       0.00000000 NULL      -0.02443300      -0.01237300      -0.01409800
P        1.17828360       0.80638724       4.07402499       0.00000000 NULL       0.01319700       0.00557400      -0.00274500
P        3.88254295       0.80638724       4.07402499       0.00000000 NULL      -0.01319700       0.00557400      -0.00274500
P        1.39898259      -1.34461237       8.61105940       0.00000000 NULL       0.00864900       0.01661400       0.01296400
P        3.66184395      -1.34461237       8.61105940       0.00000000 NULL      -0.00864900       0.01661400       0.01296400
P        3.72209177       4.03189085       4.06505329       0.00000000 NULL       0.01466400      -0.00662500      -0.00502200
P        1.33873477       4.03189085       4.06505329       0.00000000 NULL      -0.01466400      -0.00662500      -0.00502200
P        3.68809851       1.37603963       1.89158000       0.00000000 NULL      -0.01515900      -0.01699200      -0.00344900
P        1.37272803       1.37603963       1.89158000       0.00000000 NULL       0.01515900      -0.01699200      -0.00344900
P        1.16458090       5.18419803       6.84116770       0.00000000 NULL      -0.01990400       0.00308800       0.00426000
P        3.89624564       5.18419803       6.84116770       0.00000000 NULL       0.01990400       0.00308800       0.00426000
P        1.14909564       2.95450084       6.96543329       0.00000000 NULL      -0.01414000       0.00536500      -0.02885400
P        3.91173090       2.95450084       6.96543329       0.00000000 NULL       0.01414000       0.00536500      -0.02885400
P        3.93265035       6.28144458      -0.04671406       0.00000000 NULL       0.02320700       0.03214500       0.00501200
P        1.12817619       6.28144458      -0.04671406       0.00000000 NULL      -0.02320700       0.03214500       0.00501200
P        1.15309740       3.57444911       1.87556264       0.00000000 NULL       0.00254000       0.01435000       0.00837700
P        3.90772914       3.57444911       1.87556264       0.00000000 NULL      -0.00254000       0.01435000       0.00837700
P        1.40723777       2.37349255       9.07162546       0.00000000 NULL      -0.02183400      -0.04114600       0.02355500
P        3.65358878       2.37349255       9.07162546       0.00000000 NULL       0.02183400      -0.04114600       0.02355500
20
Lattice="5.059981274346396 0.0 0.0 0.0 7.322679952601278 0.2933282820513663 0.0 -2.0537419932510126 10.291863144092487" Properties=species:S:1:pos:R:3:initial_magmoms:R:1:castep_labels:S:1:forces:R:3 n_minim_iter=2 energy=-110.116076490174 stress="3.74360601784257e-05 -0.0 0.0 -0.0 4.162452834293337e-05 -1.032808609509034e-05 0.0 -1.032808609509034e-05 0.00021205095657703116" free_energy=-110.116076490174 pbc="T T T"
P        1.36889780       6.15408228       3.33347845       0.00000000 NULL       0.02330100      -0.01219200      -0.00707200
P        3.69108347       6.15408228       3.33347845       0.00000000 NULL      -0.02330100      -0.01219200      -0.00707200
P        1.17811418       0.80708115       4.07506428       0.00000000 NULL       0.01441200      -0.00006300      -0.01248600
P        3.88186709       0.80708115       4.07506428       0.00000000 NULL      -0.01441100      -0.00006300      -0.01248600
P        1.39876688      -1.34527875       8.61320857       0.00000000 NULL       0.00509500       0.00417400       0.01146500
P        3.66121440      -1.34527875       8.61320857       0.00000000 NULL      -0.00509500       0.00417400       0.01146500
P        3.72150052       4.03482632       4.06617709       0.00000000 NULL       0.01400600       0.00027600      -0.01317000
P        1.33848075       4.03482632       4.06617709       0.00000000 NULL      -0.01400600       0.00027600      -0.01317000
P        3.68745107       1.37702518       1.89208644       0.00000000 NULL      -0.01202400      -0.00554600       0.00233300
P        1.37253021       1.37702518       1.89208644       0.00000000 NULL       0.01202400      -0.00554600       0.00233300
P        1.16434509       5.18804234       6.84303993       0.00000000 NULL      -0.01957500      -0.00750200       0.01039400
P        3.89563618       5.18804234       6.84303993       0.00000000 NULL       0.01957500      -0.00750200       0.01039400
P        1.14887438       2.95678620       6.96720473       0.00000000 NULL      -0.01294600       0.01683400      -0.02236900
P        3.91110690       2.95678620       6.96720473       0.00000000 NULL       0.01294600       0.01683400      -0.02236900
P        3.93204167       6.28592512      -0.04653723       0.00000000 NULL       0.01880900       0.02920700      -0.00594900
P        1.12793961       6.28592512      -0.04653723       0.00000000 NULL      -0.01880900       0.02920700      -0.00594900
P        1.15291008       3.57704452       1.87615195       0.00000000 NULL       0.00529600       0.00202900       0.01443900
P        3.90707119       3.57704452       1.87615195       0.00000000 NULL      -0.00529600       0.00202900       0.01443900
P        1.40695743       2.37533267       9.07401762       0.00000000 NULL      -0.02529700      -0.02721600       0.02241500
P        3.65302385       2.37533267       9.07401762       0.00000000 NULL       0.02529700      -0.02721600       0.02241500
20
Lattice="5.058922651613212 0.0 0.0 0.0 7.324500983760448 0.29352271854811207 0.0 -2.05375323121028 10.286215675408288" Properties=species:S:1:pos:R:3:initial_magmoms:R:1:castep_labels:S:1:forces:R:3 n_minim_iter=3 energy=-110.11616417518 stress="-0.00038256517188205565 -0.0 -0.0 -0.0 0.00011496736727466593 3.823569448188459e-05 -0.0 3.823569448188459e-05 -0.0003126008786435902" free_energy=-110.11616417518 pbc="T T T"
P        1.36883151       6.15564637       3.33190328       0.00000000 NULL       0.01998200      -0.01110200      -0.00590600
P        3.69009114       6.15564637       3.33190328       0.00000000 NULL      -0.01998200      -0.01110200      -0.00590600
P        1.17800169       0.80748222       4.07279976       0.00000000 NULL       0.01442700      -0.00369400      -0.00585100
P        3.88092096       0.80748222       4.07279976       0.00000000 NULL      -0.01442700      -0.00369400      -0.00585100
P        1.39852606      -1.34514276       8.60860963       0.00000000 NULL       0.00272000       0.00833800       0.01490000
P        3.66039659      -1.34514276       8.60860963       0.00000000 NULL      -0.00272000       0.00833800       0.01490000
P        3.72085421       4.03601256       4.06406456       0.00000000 NULL       0.01431500       0.00239700      -0.00615900
P        1.33806844       4.03601256       4.06406456       0.00000000 NULL      -0.01431500       0.00239700      -0.00615900
P        3.68656316       1.37739105       1.89114812       0.00000000 NULL      -0.00912200       0.00096000      -0.00480800
P        1.37235949       1.37739105       1.89114812       0.00000000 NULL       0.00912200       0.00096000      -0.00480800
P        1.16391729       5.18959327       6.83969128       0.00000000 NULL      -0.01711800      -0.00962800       0.00376900
P        3.89500537       5.18959327       6.83969128       0.00000000 NULL       0.01711800      -0.00962800       0.00376900
P        1.14851110       2.95799681       6.96337349       0.00000000 NULL      -0.00948100       0.01842100      -0.02688300
P        3.91041156       2.95799681       6.96337349       0.00000000 NULL       0.00948100       0.01842100      -0.02688300
P        3.93140059       6.28775213      -0.04625308       0.00000000 NULL       0.01443400       0.02312700      -0.00221800
P        1.12752206       6.28775213      -0.04625308       0.00000000 NULL      -0.01443400       0.02312700      -0.00221800
P        1.15271553       3.57805043       1.87544159       0.00000000 NULL       0.00692200      -0.00418600       0.00474500
P        3.90620712       3.57805043       1.87544159       0.00000000 NULL      -0.00692200      -0.00418600       0.00474500
P        1.40642937       2.37608396       9.06945183       0.00000000 NULL      -0.02537600      -0.02463400       0.02841100
P        3.65249329       2.37608396       9.06945183       0.00000000 NULL       0.02537500      -0.02463400       0.02841100
20
Lattice="5.062041857036983 0.0 0.0 0.0 7.326247018415839 0.2934276638318295 0.0 -2.0542486646509253 10.283019612960544" Properties=species:S:1:pos:R:3:initial_magmoms:R:1:castep_labels:S:1:forces:R:3 n_minim_iter=4 energy=-110.116355891383 stress="0.0006423433902476959 0.0 -0.0 0.0 0.00035618684996239477 9.341710328768329e-05 -0.0 9.341710328768329e-05 -0.00041445872725685606" free_energy=-110.116355891383 pbc="T T T"
P        1.37031600       6.15677251       3.33065432       0.00000000 NULL       0.02364800      -0.00785600      -0.00498800
P        3.69172585       6.15677251       3.33065432       0.00000000 NULL      -0.02364800      -0.00785600      -0.00498800
P        1.17913459       0.80765805       4.07125258       0.00000000 NULL       0.00978900      -0.00695200      -0.00325100
P        3.88290727       0.80765805       4.07125258       0.00000000 NULL      -0.00978900      -0.00695200      -0.00325100
P        1.39952463      -1.34528691       8.60628946       0.00000000 NULL       0.00956100       0.00801200       0.01263000
P        3.66251723      -1.34528691       8.60628946       0.00000000 NULL      -0.00956100       0.00801200       0.01263000
P        3.72355037       4.03697846       4.06249772       0.00000000 NULL       0.00959900       0.00277900       0.00096300
P        1.33849148       4.03697846       4.06249772       0.00000000 NULL      -0.00959900       0.00277900       0.00096300
P        3.68850799       1.37757954       1.89055839       0.00000000 NULL      -0.01184100       0.00769000      -0.00841400
P        1.37353386       1.37757954       1.89055839       0.00000000 NULL       0.01184100       0.00769000      -0.00841400
P        1.16409598       5.19062427       6.83779333       0.00000000 NULL      -0.02046500      -0.00798000       0.00254200
P        3.89794588       5.19062427       6.83779333       0.00000000 NULL       0.02046500      -0.00798000       0.00254200
P        1.14887393       2.95915985       6.96052250       0.00000000 NULL      -0.01125500       0.01381300      -0.01505500
P        3.91316793       2.95915985       6.96052250       0.00000000 NULL       0.01125500       0.01381300      -0.01505500
P        3.93433794       6.29004514      -0.04635545       0.00000000 NULL       0.01613400       0.01063000      -0.00259100
P        1.12770391       6.29004514      -0.04635545       0.00000000 NULL      -0.01613400       0.01063000      -0.00259100
P        1.15358178       3.57894549       1.87517988       0.00000000 NULL       0.00029000      -0.01065500      -0.00417700
P        3.90846008       3.57894549       1.87517988       0.00000000 NULL      -0.00029000      -0.01065500      -0.00417700
P        1.40658587       2.37585422       9.06731540       0.00000000 NULL      -0.01079800      -0.00948200       0.02234000
P        3.65545598       2.37585422       9.06731540       0.00000000 NULL       0.01079800      -0.00948200       0.02234000
20
Lattice="5.060489941641229 0.0 0.0 0.0 7.323560245094068 0.2920969699338009 0.0 -2.0555435254155614 10.287449156401632" Properties=species:S:1:pos:R:3:initial_magmoms:R:1:castep_labels:S:1:forces:R:3 n_minim_iter=5 energy=-110.116664345452 stress="-2.706222462634117e-06 -0.0 -0.0 -0.0 -1.5794971488643354e-05 4.2414832827823175e-05 -0.0 4.2414832827823175e-05 3.0080703526971533e-05" free_energy=-110.116664345452 pbc="T T T"
P        1.37105452       6.15331611       3.33037771       0.00000000 NULL       0.01411800      -0.00382100      -0.00756500
P        3.68943542       6.15331611       3.33037771       0.00000000 NULL      -0.01411800      -0.00382100      -0.00756500
P        1.17948082       0.80650251       4.07221732       0.00000000 NULL       0.00735400      -0.00479700      -0.00404300
P        3.88100912       0.80650251       4.07221732       0.00000000 NULL      -0.00735400      -0.00479700      -0.00404300
P        1.39936613      -1.34616881       8.61056349       0.00000000 NULL       0.00515700       0.01188200       0.00197000
P        3.66112381      -1.34616881       8.61056349       0.00000000 NULL      -0.00515700       0.01188200       0.00197000
P        3.72310817       4.03475226       4.06281123       0.00000000 NULL       0.01042100      -0.00137000       0.00828400
P        1.33738177       4.03475226       4.06281123       0.00000000 NULL      -0.01042100      -0.00137000       0.00828400
P        3.68678518       1.37653068       1.89097807       0.00000000 NULL      -0.00509300       0.00300200      -0.00601200
P        1.37370477       1.37653068       1.89097807       0.00000000 NULL       0.00509300       0.00300200      -0.00601200
P        1.16276106       5.18704107       6.83982959       0.00000000 NULL      -0.01057200       0.01009000       0.00649200
P        3.89772888       5.18704107       6.83982959       0.00000000 NULL       0.01057200       0.01009000       0.00649200
P        1.14790540       2.95754158       6.96147617       0.00000000 NULL       0.00262000      -0.01155100       0.01679600
P        3.91258454       2.95754158       6.96147617       0.00000000 NULL      -0.00262000      -0.01155100       0.01679600
P        3.93404488       6.28913269      -0.04781116       0.00000000 NULL       0.00095300      -0.00341900      -0.00139800
P        1.12644506       6.28913269      -0.04781116       0.00000000 NULL      -0.00095300      -0.00341900      -0.00139800
P        1.15348053       3.57730150       1.87570430       0.00000000 NULL       0.00140100      -0.00719600      -0.00841500
P        3.90700941       3.57730150       1.87570430       0.00000000 NULL      -0.00140100      -0.00719600      -0.00841500
P        1.40495153       2.37188464       9.07161890       0.00000000 NULL      -0.00347500       0.00718000      -0.00610900
P        3.65553842       2.37188464       9.07161890       0.00000000 NULL       0.00347500       0.00718000      -0.00610900
20
Lattice="5.06067604414178 0.0 0.0 0.0 7.32371886387831 0.28896215272140724 0.0 -2.059998776263966 10.287519605060412" Properties=species:S:1:pos:R:3:initial_magmoms:R:1:castep_labels:S:1:forces:R:3 n_minim_iter=6 energy=-110.116711626372 stress="8.821268764929927e-06 -0.0 -0.0 -0.0 3.106960149063815e-05 -0.00021301152244754097 -0.0 -0.00021301152244754097 -2.3419297606008658e-05" free_energy=-110.116711626372 pbc="T T T"
P        1.37160971       6.15195883       3.32727229       0.00000000 NULL       0.01259100      -0.00960100      -0.00802900
P        3.68906634       6.15195883       3.32727229       0.00000000 NULL      -0.01259100      -0.00960100      -0.00802900
P        1.17980356       0.80467730       4.07139500       0.00000000 NULL       0.00540300       0.00027500      -0.00447900
P        3.88087248       0.80467730       4.07139500       0.00000000 NULL      -0.00540300       0.00027500      -0.00447900
P        1.39957828      -1.34955278       8.61060945       0.00000000 NULL       0.00398600       0.00839900       0.01178200
P        3.66109776      -1.34955278       8.61060945       0.00000000 NULL      -0.00398600       0.00839900       0.01178200
P        3.72359458       4.03315359       4.06090361       0.00000000 NULL       0.00902000       0.00484100       0.00898100
P        1.33708146       4.03315359       4.06090361       0.00000000 NULL      -0.00902000       0.00484100       0.00898100
P        3.68671298       1.37582746       1.89009333       0.00000000 NULL      -0.00405600      -0.00046700      -0.00485200
P        1.37396307       1.37582746       1.89009333       0.00000000 NULL       0.00405600      -0.00046700      -0.00485200
P        1.16240873       5.18450841       6.83729716       0.00000000 NULL      -0.00944300       0.00401400       0.00365900
P        3.89826732       5.18450841       6.83729716       0.00000000 NULL       0.00944300       0.00401400       0.00365900
P        1.14791586       2.95455241       6.95988289       0.00000000 NULL       0.00229700      -0.01002200       0.01505100
P        3.91276018       2.95455241       6.95988289       0.00000000 NULL      -0.00229700      -0.01002200       0.01505100
P        3.93434929       6.28951593      -0.05054070       0.00000000 NULL      -0.00020900       0.00652500      -0.00156700
P        1.12632676       6.28951593      -0.05054070       0.00000000 NULL       0.00020900       0.00652500      -0.00156700
P        1.15359472       3.57647035       1.87391133       0.00000000 NULL       0.00087200      -0.00914300      -0.00938700
P        3.90708132       3.57647035       1.87391133       0.00000000 NULL      -0.00087200      -0.00914300      -0.00938700
P        1.40473897       2.36808528       9.06995228       0.00000000 NULL       0.00001200       0.00518000      -0.01116100
P        3.65593708       2.36808528       9.06995228       0.00000000 NULL      -0.00001200       0.00518000      -0.01116100
20
Lattice="5.061305424944214 0.0 0.0 0.0 7.322487845016902 0.28990661815622887 0.0 -2.058318730201919 10.287352122291624" Properties=species:S:1:pos:R:3:initial_magmoms:R:1:castep_labels:S:1:forces:R:3 n_minim_iter=7 energy=-110.116927754893 stress="-1.1840223383325118e-05 -0.0 -0.0 -0.0 -7.286291312815456e-07 -2.8624715871775013e-06 -0.0 -2.8624715871775013e-06 1.2568852514606664e-05" free_energy=-110.116927754893 pbc="T T T"
P        1.37437314       6.15027588       3.32685366       0.00000000 NULL       0.00115400      -0.00296200      -0.00634700
P        3.68693229       6.15027588       3.32685366       0.00000000 NULL      -0.00115400      -0.00296200      -0.00634700
P        1.18134624       0.80450583       4.07069880       0.00000000 NULL      -0.00204700      -0.00395600      -0.00545200
P        3.87995918       0.80450583       4.07069880       0.00000000 NULL       0.00204700      -0.00395600      -0.00545200
P        1.40057690      -1.34650742       8.61147539       0.00000000 NULL      -0.00263200       0.00380700       0.00308600
P        3.66072853      -1.34650742       8.61147539       0.00000000 NULL       0.00263200       0.00380700       0.00308600
P        3.72586083       4.03298251       4.06224965       0.00000000 NULL       0.00457100      -0.00183300      -0.00007900
P        1.33544460       4.03298251       4.06224965       0.00000000 NULL      -0.00457100      -0.00183300      -0.00007900
P        3.68613316       1.37604202       1.88947503       0.00000000 NULL       0.00197900      -0.01124800      -0.00364600
P        1.37517226       1.37604202       1.88947503       0.00000000 NULL      -0.00197900      -0.01124800      -0.00364600
P        1.16053381       5.18538356       6.83904361       0.00000000 NULL      -0.00117000      -0.00123000       0.00557700
P        3.90077161       5.18538356       6.83904361       0.00000000 NULL       0.00117000      -0.00123000       0.00557700
P        1.14797391       2.95404487       6.96163589       0.00000000 NULL       0.00204700       0.00352300      -0.00045700
P        3.91333152       2.95404487       6.96163589       0.00000000 NULL      -0.00204700       0.00352300      -0.00045700
P        3.93555263       6.28912256      -0.05004440       0.00000000 NULL      -0.00574500       0.00259700       0.00000800
P        1.12575279       6.28912256      -0.05004440       0.00000000 NULL       0.00574500       0.00259700       0.00000800
P        1.15408425       3.57508370       1.87357668       0.00000000 NULL      -0.00356000       0.00734600       0.00200000
P        3.90722118       3.57508370       1.87357668       0.00000000 NULL       0.00356000       0.00734600       0.00200000
P        1.40372256       2.36882880       9.07029018       0.00000000 NULL       0.01627900       0.00395600       0.00531000
P        3.65758287       2.36882880       9.07029018       0.00000000 NULL      -0.01627900       0.00395600       0.00531000
20
Lattice="5.061958135175132 0.0 0.0 0.0 7.320946511844414 0.28952294762871345 0.0 -2.0584388537176332 10.287676361785167" Properties=species:S:1:pos:R:3:initial_magmoms:R:1:castep_labels:S:1:forces:R:3 n_minim_iter=8 energy=-110.117035826932 stress="-1.4000907520110086e-05 -0.0 -0.0 -0.0 -1.769631433768561e-06 -5.881422118113158e-06 -0.0 -5.881422118113158e-06 8.119485401996927e-06" free_energy=-110.117035826932 pbc="T T T"
P        1.37600905       6.14790112       3.32511014       0.00000000 NULL      -0.00510500      -0.00252400      -0.00488100
P        3.68594909       6.14790112       3.32511014       0.00000000 NULL       0.00510500      -0.00252400      -0.00488100
P        1.18190817       0.80327953       4.06959431       0.00000000 NULL      -0.00434900      -0.00369600      -0.00308200
P        3.88004996       0.80327953       4.06959431       0.00000000 NULL       0.00434900      -0.00369600      -0.00308200
P        1.40081591      -1.34530417       8.61262699       0.00000000 NULL      -0.00197800       0.00231900      -0.00018200
P        3.66114223      -1.34530417       8.61262699       0.00000000 NULL       0.00197800       0.00231900      -0.00018200
P        3.72786226       4.03166906       4.06251031       0.00000000 NULL       0.00025700      -0.00349100      -0.00164400
P        1.33409588       4.03166906       4.06251031       0.00000000 NULL      -0.00025700      -0.00349100      -0.00164400
P        3.68635649       1.37422941       1.88851272       0.00000000 NULL       0.00425900       0.00462500      -0.00322200
P        1.37560165       1.37422941       1.88851272       0.00000000 NULL      -0.00425900       0.00462500      -0.00322200
P        1.15950583       5.18419714       6.84016721       0.00000000 NULL       0.00400300       0.00331500       0.00207200
P        3.90245230       5.18419714       6.84016721       0.00000000 NULL      -0.00400300       0.00331500       0.00207200
P        1.14834599       2.95313141       6.96216561       0.00000000 NULL      -0.00035000       0.00008400       0.00122500
P        3.91361215       2.95313141       6.96216561       0.00000000 NULL       0.00035000       0.00008400       0.00122500
P        3.93564122       6.28850055      -0.05052435       0.00000000 NULL       0.00338400       0.00451300       0.00540800
P        1.12631692       6.28850055      -0.05052435       0.00000000 NULL      -0.00338400       0.00451300       0.00540800
P        1.15390579       3.57474277       1.87327858       0.00000000 NULL      -0.00128900      -0.00640400       0.00427300
P        3.90805235       3.57474277       1.87327858       0.00000000 NULL       0.00128900      -0.00640400       0.00427300
P        1.40556369       2.36838450       9.07111598       0.00000000 NULL      -0.00176400       0.00125800       0.00003300
P        3.65639445       2.36838450       9.07111598       0.00000000 NULL       0.00176400       0.00125800       0.00003300
