11
Lattice="5.528154654701499 -0.6558299037229073 -1.348788124730227 -1.2319713533551295 4.9482799022010076 0.30535065879645196 -3.2441728289644183 -1.7040536861050712 9.594678285078523" Properties=species:S:1:pos:R:3:initial_magmoms:R:1:castep_labels:S:1:forces:R:3 n_minim_iter=7 energy=-58.769664389874 stress="2.053464455140799e-06 -4.3507778143295684e-05 -1.0096200237775596e-05 -4.3507778143295684e-05 -5.189275800178728e-05 -2.3957085309975986e-06 -1.0096200237775596e-05 -2.3957085309975986e-06 8.611716558746726e-05" free_energy=-58.769664389874 pbc="T T T"
P       -2.31815928       2.00356397       4.97617641       0.00000000 NULL      -0.00000100      -0.00511600      -0.00318200
P        0.53833628       0.83715859       8.82743207       0.00000000 NULL      -0.00084300       0.00064100       0.00543000
P       -0.17450262       2.19211744       4.29305387       0.00000000 NULL       0.00370100       0.00032900      -0.00047900
P       -1.20997172       1.81718738       7.93394093       0.00000000 NULL      -0.00155500      -0.00485000       0.00306700
P        4.19821609      -0.62360907      -0.02024952       0.00000000 NULL       0.00026900       0.00471600      -0.00104200
P        0.40589066       0.14812658       5.02579287       0.00000000 NULL       0.00154500       0.00488200      -0.00443100
P        3.83869435      -1.41215827       3.63789807       0.00000000 NULL      -0.00174500      -0.00096200      -0.00191300
P        2.14533968       1.29843582       1.67327055       0.00000000 NULL      -0.00128900      -0.00029200       0.00596300
P        1.54524617       3.48258228       1.91302480       0.00000000 NULL       0.00020600       0.00255700      -0.00341900
P        0.37677320       0.48866187       2.82410192       0.00000000 NULL       0.00041900       0.00240400      -0.00012100
P        2.02209407      -2.19625324       7.49059228       0.00000000 NULL      -0.00070500      -0.00430900       0.00012700
