12
Lattice="3.33527723049004 8.582000823342711e-17 0.09463703942973532 -3.355908000986221e-17 5.095853012505707 2.4879341029419754e-17 -1.326754907281142 -1.0248044432222238e-16 17.654538344238443" Properties=species:S:1:pos:R:3:initial_magmoms:R:1:castep_labels:S:1:forces:R:3 n_minim_iter=16 energy=-64.206112392316 stress="-1.4167047487636133e-05 0.0 -3.6348786159592244e-05 0.0 -7.941528028280536e-05 -0.0 -3.6348786159592244e-05 -0.0 6.903941451721271e-05" free_energy=-64.206112392316 pbc="T T T"
P        1.19423546       1.47343023       5.88391661       0.00000000 NULL      -0.00067400      -0.00287300      -0.00172300
P        1.19423546       3.62242278       5.88391661       0.00000000 NULL      -0.00067400       0.00287300      -0.00172300
P        1.43072182       1.14319680      16.39063177       0.00000000 NULL      -0.00096500       0.00096700      -0.00151300
P        1.43072182       3.95265621      16.39063177       0.00000000 NULL      -0.00096500      -0.00096700      -0.00151300
P        1.62845193       4.02132896       3.82987704       0.00000000 NULL       0.00067400      -0.00235700       0.00172300
P        1.62845193       1.07452405       3.82987704       0.00000000 NULL       0.00067400       0.00235700       0.00172300
P       -0.08440408       1.14262102      11.05678405       0.00000000 NULL       0.00009800       0.00594200       0.00041900
P       -0.08440408       3.95323200      11.05678405       0.00000000 NULL       0.00009800      -0.00594200       0.00041900
P        1.54058678       1.35268472      12.61851693       0.00000000 NULL      -0.00382000      -0.00090000       0.00137300
P        1.54058678       3.74316830      12.61851693       0.00000000 NULL      -0.00382000       0.00090000       0.00137300
P       -0.19440102       3.74316317      14.82872928       0.00000000 NULL       0.00468700       0.00122700      -0.00027900
P       -0.19440102       1.35268984      14.82872928       0.00000000 NULL       0.00468700      -0.00122700      -0.00027900
