33
Lattice="5.454101419256861 0.0 0.0 0.0 12.618881549038356 -7.139356962812511e-14 0.0 -6.309440774519114 10.928271988813975" Properties=species:S:1:pos:R:3:initial_magmoms:R:1:castep_labels:S:1:forces:R:3 n_minim_iter=4 energy=-174.827288963168 stress="1.5023907198641524e-06 -0.0 0.0 -0.0 -4.3875127217271715e-07 0.0 0.0 0.0 -4.520467652688601e-07" free_energy=-174.827288963168 pbc="T T T"
P        3.15047885      -3.09788300       6.69963350       0.00000000 NULL      -0.00240300      -0.00154000       0.00125300
P        3.15047885       1.04155479      10.26130061       0.00000000 NULL      -0.00240300       0.00185500       0.00070400
P        3.15047885       2.05633009       4.89560877       0.00000000 NULL      -0.00240300      -0.00031700      -0.00195800
P        4.51548591       3.56554539       0.96855077       0.00000000 NULL       0.00185800      -0.00614400      -0.00561300
P        4.51548591       5.36545891       7.35614371       0.00000000 NULL       0.00185800      -0.00178800       0.00812700
P        4.51548591       9.99731990       2.60357641       0.00000000 NULL       0.00185900       0.00793400      -0.00251400
P        2.41683590       3.11887803       1.85866507       0.00000000 NULL      -0.00211900       0.00231300      -0.00499600
P        2.41683590       6.35965419       7.29791184       0.00000000 NULL      -0.00211800      -0.00548300       0.00049400
P        2.41683590       9.44979199       1.77169398       0.00000000 NULL      -0.00211900       0.00317000       0.00450200
P        1.12106286       1.50247514       5.68028305       0.00000000 NULL      -0.00259500      -0.00221400       0.00161500
P        1.12106286      -2.14140767       6.78694882       0.00000000 NULL      -0.00259500       0.00250500       0.00111000
P        1.12106286       0.63893441       9.38931102       0.00000000 NULL      -0.00259500      -0.00029200      -0.00272400
P        1.13371321       4.68853725       6.43633862       0.00000000 NULL      -0.00122700       0.00437400      -0.00278100
P        1.13371321       9.53920616       3.64971031       0.00000000 NULL      -0.00122800      -0.00459200      -0.00239800
P        1.13371321       4.70058080       0.84222196       0.00000000 NULL      -0.00122800       0.00022200       0.00517900
P        4.53841181      -2.31304393       9.61293715       0.00000000 NULL       0.00261100       0.00095800       0.00039800
P        4.53841181       3.17213022       8.12495822       0.00000000 NULL       0.00261100      -0.00013500      -0.00102900
P        4.53841181      -0.85908441       4.11864752       0.00000000 NULL       0.00261200      -0.00082500       0.00063000
P        3.33309611       3.98999779       3.77425010       0.00000000 NULL      -0.00214900      -0.00134200       0.00237700
P        3.33309611       7.58303961       5.58570748       0.00000000 NULL      -0.00214900       0.00273200      -0.00002400
P        3.33309611       7.35528681       1.56831331       0.00000000 NULL      -0.00214900      -0.00138700      -0.00235100
P        2.06922711      -0.52197357       5.53863324       0.00000000 NULL       0.00380600       0.00059000       0.00437300
P        2.06922711      -1.25185565       8.61099773       0.00000000 NULL       0.00380700       0.00349200      -0.00269800
P        2.06922711       1.77383110       7.70691191       0.00000000 NULL       0.00380700      -0.00408200      -0.00167500
P        1.23641972      -2.86024573       9.89511432       0.00000000 NULL      -0.00324300      -0.00402400       0.00153700
P        1.23641972       3.69010372       8.45776029       0.00000000 NULL      -0.00324300       0.00334300       0.00271600
P        1.23641972      -0.82985611       3.50366828       0.00000000 NULL      -0.00324400       0.00067700      -0.00425300
P        5.19443676       7.57494811       6.97192535       0.00000000 NULL       0.00402300       0.00062900       0.00225100
P        5.19443676       8.55983245       0.88221181       0.00000000 NULL       0.00402400       0.00163600      -0.00166900
P        5.19443676       2.79354365       3.07413373       0.00000000 NULL       0.00402500      -0.00226300      -0.00058100
P        3.73208707       9.52605737      -0.64401537       0.00000000 NULL       0.00143600      -0.00044500      -0.00221900
P        3.73208707       0.98867968       3.00047199       0.00000000 NULL       0.00143600      -0.00170000       0.00149500
P        3.73208707       8.41358716       8.57181427       0.00000000 NULL       0.00143600       0.00214400       0.00072400
