9
Lattice="4.149158227082024 -1.2754750581615492e-41 -1.6986430333519918e-40 -1.3916305064120475e-41 6.75389819086601 -8.675747956247716e-15 2.667875463134113e-40 -3.3769490954329973 5.84904740786373" Properties=species:S:1:pos:R:3:initial_magmoms:R:1:castep_labels:S:1:forces:R:3 n_minim_iter=15 energy=-48.484998522825 stress="-4.539137659017554e-05 -0.0 0.0 -0.0 -2.7881531050685783e-05 0.0 0.0 0.0 -2.7881531050685783e-05" free_energy=-48.484998522825 pbc="T T T"
P        1.81201474       2.52196444       0.29885983       0.00000000 NULL       0.00122900       0.00137100       0.00074300
P        4.57812022       5.23409610       2.03465477       0.00000000 NULL       0.00123100      -0.00132900       0.00081700
P        3.19506748       2.37478775       3.51553222       0.00000000 NULL       0.00122900      -0.00004300      -0.00155900
P        1.72365783       1.44998088       2.17795744       0.00000000 NULL      -0.00144800      -0.00034400      -0.00082800
P        0.34060508       0.76579252       6.01578838       0.00000000 NULL      -0.00144800       0.00088800       0.00011600
P        3.10671057      -2.21577240       3.50434841       0.00000000 NULL      -0.00145000      -0.00054500       0.00071300
P        1.86674041       5.78394958      -0.48174326       0.00000000 NULL       0.00021900       0.00338300      -0.00181600
P        0.48368766       4.27912563       5.24991832       0.00000000 NULL       0.00022000      -0.00011900       0.00383500
P        3.24979315       0.06777308       1.08087176       0.00000000 NULL       0.00021800      -0.00326200      -0.00202100
