9
Lattice="7.37587052295461 -0.8944647448434558 0.6115996018634708 -0.4727841723641492 5.831455394055689 -1.1449744890840292 1.0707383842041802 0.8618561708616334 4.003934642329364" Properties=species:S:1:pos:R:3:initial_magmoms:R:1:castep_labels:S:1:forces:R:3 n_minim_iter=12 energy=-49.428749043488 stress="1.92757168258623e-05 1.4127899275928748e-05 -2.0133686417517893e-05 1.4127899275928748e-05 -1.4299493194259866e-06 -3.0257727599053878e-05 -2.0133686417517893e-05 -3.0257727599053878e-05 3.300323029235177e-05" free_energy=-49.428749043488 pbc="T T T"
P        4.07271620       2.96962394       1.87266214       0.00000000 NULL       0.00490900      -0.00087100      -0.00379400
P        7.99227957      -0.36499073       2.72228660       0.00000000 NULL      -0.00404400       0.00394400       0.00116700
P        3.29358576       4.15696105      -1.20188466       0.00000000 NULL      -0.00177900       0.00317400      -0.00332100
P        6.06629841       0.10975518       1.50476453       0.00000000 NULL      -0.00014900       0.00247600       0.00061100
P        6.55687165       4.70783094       3.53797012       0.00000000 NULL       0.00391100       0.00072000      -0.00539300
P        2.36462658       5.78104403       1.69715229       0.00000000 NULL      -0.00210900      -0.00136100       0.00273100
P        2.96669360       2.10863429       3.68562320       0.00000000 NULL      -0.00384400      -0.00461300       0.00103500
P        8.23901462       1.69716200       3.62965645       0.00000000 NULL       0.00057000       0.00016500       0.00629500
P        2.22964748       3.65246469       0.76895639       0.00000000 NULL       0.00253500      -0.00363400       0.00066900
