52
Lattice="10.384249942696684 0.0 0.0 0.0 5.205532442506002 1.4781412885571896 0.0 0.8272672582345559 21.566031025090634" Properties=species:S:1:pos:R:3:initial_magmoms:R:1:castep_labels:S:1:forces:R:3 n_minim_iter=4 energy=-282.136829312798 stress="4.197506438029235e-05 0.0 -0.0 0.0 -4.2998423387911045e-05 -8.742781487969569e-05 -0.0 -8.742781487969569e-05 -5.316263319239506e-06" free_energy=-282.136829312798 pbc="T T T"
P        8.25084635       2.06695326       7.27635198       0.00000000 NULL      -0.00204600       0.00329900       0.00725200
P        8.25084635       3.96584644      15.76782033       0.00000000 NULL      -0.00204600      -0.00329900      -0.00725200
P        2.13340360       3.96584644      15.76782033       0.00000000 NULL       0.00204600      -0.00329900      -0.00725200
P        2.13340360       2.06695326       7.27635198       0.00000000 NULL       0.00204600       0.00329900       0.00725200
P        3.56312193       2.30546363       5.61204462       0.00000000 NULL       0.00178400       0.00741900      -0.00134800
P        3.56312193       3.72733607      17.43212769       0.00000000 NULL       0.00178400      -0.00741900       0.00134800
P        6.82112801       3.72733607      17.43212769       0.00000000 NULL      -0.00178400      -0.00741900       0.00134800
P        6.82112801       2.30546363       5.61204462       0.00000000 NULL      -0.00178400       0.00741900      -0.00134800
P        1.12354733       4.63856916      20.82525894       0.00000000 NULL      -0.00459500      -0.00254800       0.00574100
P        1.12354733       1.39423055       2.21891337       0.00000000 NULL      -0.00459500       0.00254800      -0.00574100
P        9.26070261       1.39423055       2.21891337       0.00000000 NULL       0.00459500       0.00254800      -0.00574100
P        9.26070261       4.63856916      20.82525894       0.00000000 NULL       0.00459500      -0.00254800       0.00574100
P        9.26736438       1.68799292      19.03863594       0.00000000 NULL       0.00533800      -0.00402000       0.00492400
P        9.26736438       4.34480678       4.00553637       0.00000000 NULL       0.00533800       0.00402000      -0.00492400
P        1.11688556       4.34480678       4.00553637       0.00000000 NULL      -0.00533800       0.00402000      -0.00492400
P        1.11688556       1.68799292      19.03863594       0.00000000 NULL      -0.00533800      -0.00402000       0.00492400
P        9.24313197       4.06266019       1.65487576       0.00000000 NULL       0.00207100      -0.00033800       0.00191400
P        9.24313197       1.97013951      21.38929655       0.00000000 NULL       0.00207100       0.00033800      -0.00191400
P        1.14111798       1.97013951      21.38929655       0.00000000 NULL      -0.00207100       0.00033800      -0.00191400
P        1.14111798       4.06266019       1.65487576       0.00000000 NULL      -0.00207100      -0.00033800       0.00191400
P        1.32193898       3.87920945      12.84094032       0.00000000 NULL       0.00048500      -0.00368900       0.00206800
P        1.32193898       2.15359025      10.20323199       0.00000000 NULL       0.00048500       0.00368900      -0.00206800
P        9.06231096       2.15359025      10.20323199       0.00000000 NULL      -0.00048500       0.00368900      -0.00206800
P        9.06231096       3.87920945      12.84094032       0.00000000 NULL      -0.00048500      -0.00368900       0.00206800
P        8.63454145       1.10765123       5.24934432       0.00000000 NULL       0.00138600      -0.00513800       0.00110700
P        8.63454145       4.92514847      17.79482799       0.00000000 NULL       0.00138600       0.00513800      -0.00110800
P        1.74970849       4.92514847      17.79482799       0.00000000 NULL      -0.00138600       0.00513800      -0.00110800
P        1.74970849       1.10765123       5.24934432       0.00000000 NULL      -0.00138600      -0.00513800       0.00110800
P        3.45060952       2.46550094       9.39334134       0.00000000 NULL       0.00260700      -0.00069700       0.00266400
P        3.45060952       3.56729876      13.65083096       0.00000000 NULL       0.00260700       0.00069700      -0.00266400
P        6.93364042       3.56729876      13.65083096       0.00000000 NULL      -0.00260700       0.00069700      -0.00266400
P        6.93364042       2.46550094       9.39334134       0.00000000 NULL      -0.00260700      -0.00069700       0.00266400
P        4.06844448       2.47023097       1.86715254       0.00000000 NULL      -0.00080100      -0.00247600      -0.00300100
P        4.06844448       3.56256874      21.17701977       0.00000000 NULL      -0.00080100       0.00247600       0.00300100
P        6.31580546       3.56256874      21.17701977       0.00000000 NULL       0.00080100       0.00247600       0.00300100
P        6.31580546       2.47023097       1.86715254       0.00000000 NULL       0.00080100      -0.00247600      -0.00300100
P        4.05364122       5.69187318      13.38504092       0.00000000 NULL       0.00155200       0.00012600      -0.00261800
P        4.05364122       0.34092652       9.65913139       0.00000000 NULL       0.00155200      -0.00012600       0.00261800
P        6.33060872       0.34092652       9.65913139       0.00000000 NULL      -0.00155200      -0.00012600       0.00261800
P        6.33060872       5.69187318      13.38504092       0.00000000 NULL      -0.00155200       0.00012600      -0.00261800
P        3.32081452       0.33746770       6.57209302       0.00000000 NULL       0.00924100       0.00052400       0.00043700
P        3.32081452       5.69533201      16.47207929       0.00000000 NULL       0.00924100      -0.00052400      -0.00043700
P        7.06343543       5.69533201      16.47207929       0.00000000 NULL      -0.00924100      -0.00052400      -0.00043700
P        7.06343543       0.33746770       6.57209302       0.00000000 NULL      -0.00924100       0.00052400       0.00043700
P        4.06691712       1.33342386      20.54962734       0.00000000 NULL       0.00156600      -0.00078800       0.00340200
P        4.06691712       4.69937585       2.49454496       0.00000000 NULL       0.00156600       0.00078800      -0.00340200
P        6.31733283       4.69937585       2.49454496       0.00000000 NULL      -0.00156600       0.00078800      -0.00340200
P        6.31733283       1.33342386      20.54962734       0.00000000 NULL      -0.00156600      -0.00078800       0.00340200
P        9.25437781       1.67955485      12.42164258       0.00000000 NULL       0.00199300      -0.00266200      -0.00693600
P        9.25437781       4.35324485      10.62252973       0.00000000 NULL       0.00199300       0.00266200       0.00693600
P        1.12987213       4.35324485      10.62252973       0.00000000 NULL      -0.00199300       0.00266200       0.00693600
P        1.12987213       1.67955485      12.42164258       0.00000000 NULL      -0.00199300      -0.00266200      -0.00693600
