48
Lattice="8.14832964149823 -2.4053008605206233e-13 -1.2271964871121775e-39 -4.074164820748906 7.056660467947333 5.035558939189869e-39 2.2985112239936625e-39 -9.563498008255264e-39 15.2616368564248" Properties=species:S:1:pos:R:3:initial_magmoms:R:1:castep_labels:S:1:forces:R:3 n_minim_iter=1 energy=-259.076183632247 stress="0.00012421029010616528 0.0 -0.0 0.0 0.00012415331290886888 0.0 -0.0 0.0 -4.6368043159815274e-05" free_energy=-259.076183632247 pbc="T T T"
P       -0.64959671       4.14894395      10.52445058       0.00000000 NULL      -0.00222500      -0.00022100       0.00534200
P        0.80587232       4.41962124       0.35002601       0.00000000 NULL       0.00130300      -0.00181600       0.00534100
P       -0.15627561       5.54475575       5.43723830       0.00000000 NULL       0.00092000       0.00203500       0.00534100
P        0.51098948       1.35927502      11.20502011       0.00000000 NULL       0.00197100       0.00670700       0.00006100
P        2.64150338       6.81955282       1.03059554       0.00000000 NULL      -0.00679200      -0.00164600       0.00006100
P       -3.15249286       5.93449309       6.11780783       0.00000000 NULL       0.00481900      -0.00506000       0.00006100
P        3.12014321       0.47072318       0.72893339       0.00000000 NULL      -0.00299800       0.00361500      -0.00371600
P        6.18059981       2.46676170       5.81614568       0.00000000 NULL      -0.00163000      -0.00440400      -0.00371600
P        2.92175144       4.11917559      10.90335796       0.00000000 NULL       0.00463000       0.00079000      -0.00371600
P       -0.57463734       6.34453233      10.82524278       0.00000000 NULL      -0.00000400      -0.00045800      -0.00093100
P       -1.13304268       3.38674377       0.65081821       0.00000000 NULL       0.00039700       0.00022500      -0.00093200
P        1.70768002       4.38204484       5.73803049       0.00000000 NULL      -0.00039300       0.00023100      -0.00093100
P        4.93672949       0.54974288       6.17628063       0.00000000 NULL       0.00033000       0.00310500      -0.00203400
P        5.20387359       4.00046171      11.26349292       0.00000000 NULL      -0.00285300      -0.00126700      -0.00203500
P        2.08189138       2.50645588       1.08906835       0.00000000 NULL       0.00252400      -0.00183700      -0.00203500
P        2.83954657       1.88777224      11.04359895       0.00000000 NULL       0.00120600      -0.00399600       0.00516500
P        5.09369764       1.51523334       0.86917438       0.00000000 NULL       0.00285800       0.00304500       0.00516500
P        4.28925025       3.65365489       5.95638667       0.00000000 NULL      -0.00406400       0.00095300       0.00516600
P        0.85893952       2.34084558       4.67716720       0.00000000 NULL      -0.00068700       0.00199200      -0.00239800
P        1.61746332       6.63010112       9.76437948       0.00000000 NULL      -0.00138300      -0.00159400      -0.00239900
P       -2.47640284       5.14237423      14.85159177       0.00000000 NULL       0.00206600      -0.00040300      -0.00239700
P        3.86073870       3.64081845       8.16129776       0.00000000 NULL      -0.00430000       0.00254500      -0.00500300
P        3.06491902       1.52308857      13.24851005       0.00000000 NULL      -0.00005400      -0.00499500      -0.00500300
P        5.29683673       1.89275345       3.07408548       0.00000000 NULL       0.00435500       0.00245500      -0.00500300
P        6.47162321      -0.06316627       3.33965867       0.00000000 NULL      -0.00377700      -0.00334700       0.00107900
P        4.96722163       5.63617323       8.42687096       0.00000000 NULL       0.00478600      -0.00159900       0.00107900
P        0.78364962       1.48365350      13.51408324       0.00000000 NULL      -0.00100900       0.00494400       0.00107900
P        2.67863128       4.69907490      13.05999038       0.00000000 NULL       0.00325800      -0.00361100       0.00255000
P        2.73949577      -0.02977471       2.88556581       0.00000000 NULL       0.00149800       0.00462500       0.00255000
P        6.80436741       2.38736028       7.97277809       0.00000000 NULL      -0.00475800      -0.00101600       0.00254900
P        4.88400214       1.10972646       8.39436238       0.00000000 NULL       0.00358000      -0.00080300       0.00197600
P        4.74527726       3.67480669      13.48157466       0.00000000 NULL      -0.00109200       0.00350400       0.00197700
P        2.59321506       2.27212731       3.30715009       0.00000000 NULL      -0.00248800      -0.00269600       0.00197700
P        1.99110428       6.93228480      13.16443523       0.00000000 NULL      -0.00277200      -0.00181300      -0.00109600
P       -2.92492206       5.31486496       2.99001066       0.00000000 NULL       0.00295400      -0.00149500      -0.00109800
P        0.93381778       1.86617118       8.07722294       0.00000000 NULL      -0.00018300       0.00330700      -0.00109700
P       -0.19153699       6.46007310      13.04820920       0.00000000 NULL      -0.00290200       0.00198000       0.00178400
P       -1.42465410       3.66074802       2.87378463       0.00000000 NULL      -0.00026600      -0.00350500       0.00178400
P        1.61619109       3.99249981       7.96099691       0.00000000 NULL       0.00316800       0.00152300       0.00178400
P        2.79789288       6.48225574       5.85747497       0.00000000 NULL      -0.00089800      -0.00254400       0.00307300
P       -2.93857976       6.23857891      10.94468725       0.00000000 NULL       0.00265200       0.00049100       0.00307300
P        0.14068688       1.39248629       0.77026268       0.00000000 NULL      -0.00175300       0.00205100       0.00307300
P       -4.02471017       4.92082740       1.11751190       0.00000000 NULL      -0.00154500      -0.00179900       0.00094700
P        1.82495837       1.11074552       6.20472418       0.00000000 NULL       0.00233300      -0.00044000       0.00094800
P        2.19975180       8.08174802      11.29193647       0.00000000 NULL      -0.00078200       0.00224400       0.00094800
P        0.47576643       5.71939178       3.29603140       0.00000000 NULL       0.00451200       0.00244100      -0.00679900
P       -1.11685697       4.60899039       8.38324369       0.00000000 NULL      -0.00437100       0.00268600      -0.00679900
P        0.64109054       3.78493876      13.47045597       0.00000000 NULL      -0.00014200      -0.00512900      -0.00679800
