18
Lattice="6.111179585227359 4.5416337421116536e-07 -1.2938523633448675e-06 -2.247433894573547e-07 8.034111303832574 1.7585869497305076 -3.055588094950485 -1.1549116033330526 7.61308424795378" Properties=species:S:1:pos:R:3:initial_magmoms:R:1:castep_labels:S:1:forces:R:3 n_minim_iter=1 energy=-97.882599606945 stress="-1.986026410949353e-05 -0.0 2.5893434301816856e-08 -0.0 1.752985502233001e-05 3.583651307371452e-05 2.5893434301816856e-08 3.583651307371452e-05 -5.08547049687683e-05" free_energy=-97.882599606945 pbc="T T T"
P        3.00335465       1.74788830       3.74120147       0.00000000 NULL       0.00043200      -0.00642600      -0.00198600
P       -0.05223500       5.13131185       5.63046846       0.00000000 NULL       0.00042700       0.00642600       0.00198400
P        1.82974364       3.27730815       7.44910292       0.00000000 NULL       0.00455300      -0.00142300      -0.00088800
P        4.88533223       3.60189228       1.92256621       0.00000000 NULL       0.00455300       0.00142400       0.00088800
P        2.74293824       3.08184386       1.91280256       0.00000000 NULL      -0.00236500      -0.00117700      -0.00883200
P       -0.31265044       3.79735625       7.45886748       0.00000000 NULL      -0.00236500       0.00117700       0.00883100
P        0.96605827       2.10153692       4.52267991       0.00000000 NULL       0.00048200      -0.00300400      -0.00429000
P        4.02164793       4.77766338       4.84898959       0.00000000 NULL       0.00048400       0.00300400       0.00429100
P       -2.39474870       1.15529311       5.92608804       0.00000000 NULL       0.00091100       0.00134600       0.00075300
P        0.66084022       5.72390669       3.44558288       0.00000000 NULL       0.00090700      -0.00134900      -0.00075400
P        3.97667866      -1.05011167       5.85906518       0.00000000 NULL      -0.00096900       0.00177200      -0.00426800
P        0.92108770       7.92931197       3.51260434       0.00000000 NULL      -0.00096700      -0.00176800       0.00426600
P        2.84220718       6.38911119       5.81600883       0.00000000 NULL      -0.00260800      -0.00298700      -0.00374700
P       -0.21338265       0.49008893       3.55566117       0.00000000 NULL      -0.00261200       0.00298700       0.00374900
P       -0.03191933       6.97386670       6.87426339       0.00000000 NULL       0.00028600      -0.00145200      -0.00485100
P        3.02367006      -0.09466655       2.49740653       0.00000000 NULL       0.00028600       0.00145200       0.00485100
P        1.56910951       1.23704321       6.51591725       0.00000000 NULL      -0.00071900       0.00218800       0.00295800
P        4.62469820       5.64215719       2.85575199       0.00000000 NULL      -0.00071500      -0.00218900      -0.00295600
