52
Lattice="7.064095821735709 0.0 0.0 0.0 7.064095821735709 0.0 0.0 0.0 21.427120409130904" Properties=species:S:1:pos:R:3:initial_magmoms:R:1:castep_labels:S:1:forces:R:3 n_minim_iter=19 energy=-278.972086983465 stress="-1.7386109187177382e-05 -0.0 0.0 -0.0 -1.7386109187177382e-05 -0.0 0.0 -0.0 -7.76249092273116e-06" free_energy=-278.972086983465 pbc="T T T"
P        3.54450462       2.94935500      11.13193803       0.00000000 NULL       0.00156400       0.00004300       0.00309800
P        3.51959120       4.11474082       0.41837782       0.00000000 NULL      -0.00156400      -0.00004300       0.00310100
P        4.11474082       3.54450462      16.48871813       0.00000000 NULL      -0.00004300       0.00156400       0.00309800
P        2.94935500       3.51959120       5.77515793       0.00000000 NULL       0.00004300      -0.00156400       0.00309800
P        5.68501005       1.38964319      21.00048482       0.00000000 NULL      -0.00263000       0.00159400      -0.00114300
P        1.37908577       5.67445263      10.28692462       0.00000000 NULL       0.00263000      -0.00159500      -0.00114200
P        5.67445263       5.68501005       4.93014452       0.00000000 NULL      -0.00159500      -0.00263000      -0.00114200
P        1.38964319       1.37908577      15.64370472       0.00000000 NULL       0.00159500       0.00263000      -0.00114200
P        6.33010917       0.88923419      11.22107614       0.00000000 NULL       0.00363100      -0.00151100       0.00178800
P        0.73398665       6.17486164       0.50751594       0.00000000 NULL      -0.00363100       0.00151000       0.00179100
P        6.17486164       6.33010917      16.57785624       0.00000000 NULL       0.00151100       0.00363100       0.00178800
P        0.88923419       0.73398665       5.86429604       0.00000000 NULL      -0.00151100      -0.00363100       0.00178800
P        1.24430882       4.02375415       0.79082126       0.00000000 NULL       0.00536100       0.00146400       0.00062400
P        5.81978700       3.04034167      11.50438147       0.00000000 NULL      -0.00536100      -0.00146300       0.00062200
P        3.04034167       1.24430882       6.14760137       0.00000000 NULL      -0.00146300       0.00536100       0.00062200
P        4.02375415       5.81978700      16.86116157       0.00000000 NULL       0.00146300      -0.00536100       0.00062200
P        4.05353697       4.01944290      19.64923973       0.00000000 NULL       0.00058400       0.00185100       0.00097000
P        3.01055885       3.04465292       8.93567953       0.00000000 NULL      -0.00058400      -0.00185100       0.00097300
P        3.04465292       4.05353697       3.57889943       0.00000000 NULL      -0.00185100       0.00058400       0.00097300
P        4.01944290       3.01055885      14.29245963       0.00000000 NULL       0.00185100      -0.00058400       0.00097300
P        0.85465023       5.74648699       4.96592233       0.00000000 NULL      -0.00399400       0.00613100      -0.00370900
P        6.20944559       1.31760883      15.67948254       0.00000000 NULL       0.00399400      -0.00613100      -0.00370900
P        1.31760883       0.85465023      10.32270244       0.00000000 NULL      -0.00613100      -0.00399400      -0.00370900
P        5.74648699       6.20944559      21.03626264       0.00000000 NULL       0.00613200       0.00399400      -0.00371200
P        4.45092390       5.89552104       1.34811415       0.00000000 NULL       0.00090800      -0.00187900       0.00312600
P        2.61317192       1.16857478      12.06167436       0.00000000 NULL      -0.00090900       0.00187900       0.00312400
P        1.16857478       4.45092390       6.70489426       0.00000000 NULL       0.00187900       0.00090900       0.00312400
P        5.89552104       2.61317192      17.41845446       0.00000000 NULL      -0.00187900      -0.00090900       0.00312400
P        2.96864422       6.18748191      14.94655505       0.00000000 NULL       0.00366300       0.00188300      -0.00193800
P        4.09545161       0.87661391       4.23299485       0.00000000 NULL      -0.00366300      -0.00188300      -0.00193800
P        0.87661391       2.96864422      20.30333516       0.00000000 NULL      -0.00188400       0.00366200      -0.00194100
P        6.18748191       4.09545161       9.58977495       0.00000000 NULL       0.00188300      -0.00366300      -0.00193800
P        6.67813328       5.46974526      14.61203307       0.00000000 NULL      -0.00276800       0.00351900      -0.00315400
P        0.38596254       1.59435057       3.89847287       0.00000000 NULL       0.00276800      -0.00351900      -0.00315400
P        1.59435057       6.67813328      19.96881317       0.00000000 NULL      -0.00351800      -0.00276700      -0.00315700
P        5.46974526       0.38596254       9.25525297       0.00000000 NULL       0.00351900       0.00276800      -0.00315400
P        5.08135094       2.87943540       8.08191922       0.00000000 NULL       0.00127300      -0.00220100      -0.00275400
P        1.98274488       4.18466042      18.79547942       0.00000000 NULL      -0.00127300       0.00220100      -0.00275400
P        4.18466042       5.08135094      13.43869932       0.00000000 NULL       0.00220100       0.00127300      -0.00275400
P        2.87943540       1.98274488       2.72513912       0.00000000 NULL      -0.00220100      -0.00127300      -0.00275400
P        4.64038936       4.72571183       6.74791260       0.00000000 NULL       0.00152600      -0.00145100       0.00099200
P        2.42370646       2.33838399      17.46147281       0.00000000 NULL      -0.00152600       0.00145100       0.00099200
P        2.33838399       4.64038936      12.10469270       0.00000000 NULL       0.00145100       0.00152600       0.00099200
P        4.72571183       2.42370646       1.39113250       0.00000000 NULL      -0.00145100      -0.00152600       0.00099300
P        1.40517013       4.64816366      15.51069812       0.00000000 NULL       0.00285200      -0.00257700       0.00080200
P        5.65892569       2.41593217       4.79713791       0.00000000 NULL      -0.00285200       0.00257700       0.00080200
P        2.41593217       1.40517013      20.86747822       0.00000000 NULL       0.00257600       0.00285200       0.00080200
P        4.64816366       5.65892569      10.15391801       0.00000000 NULL      -0.00257700      -0.00285200       0.00080200
P        2.94335029       5.28886408       8.69575814       0.00000000 NULL       0.00032100      -0.00337900       0.00129900
P        4.12074553       1.77523174      19.40931834       0.00000000 NULL      -0.00032100       0.00337900       0.00129800
P        1.77523174       2.94335029      14.05253824       0.00000000 NULL       0.00337900       0.00032100       0.00129900
P        5.28886408       4.12074553       3.33897804       0.00000000 NULL      -0.00337900      -0.00032100       0.00129900
