8
Lattice="4.470864287781206 1.8177010716859371e-16 -0.7259907224477934 -2.229245797517776e-18 3.4474663342214975 -1.7748107035489874e-16 -2.090256099553494 -1.4257649515852074e-16 8.810596900349063" Properties=species:S:1:pos:R:3:initial_magmoms:R:1:castep_labels:S:1:forces:R:3 n_minim_iter=7 energy=-44.769995839296 stress="1.1181954530457895e-05 0.0 1.187125309740393e-05 0.0 -5.897332183871629e-06 -0.0 1.187125309740393e-05 -0.0 -1.7155875443990193e-05" free_energy=-44.769995839296 pbc="T T T"
P        1.11853028       3.46764345       2.29493801       0.00000000 NULL      -0.00726500       0.00000100      -0.00107900
P        1.26207791       1.74391028       5.78966817       0.00000000 NULL       0.00726500      -0.00000100       0.00107900
P       -1.54222854       0.02017711       4.96681963       0.00000000 NULL       0.00609000       0.00000100      -0.00130300
P        3.92283673       1.74391028       3.11778655       0.00000000 NULL      -0.00609000      -0.00000100       0.00130300
P        2.30926620       1.74391028       1.38517261       0.00000000 NULL       0.00066100      -0.00000100      -0.00675500
P        0.07134199       0.02017711       6.69943357       0.00000000 NULL      -0.00066100       0.00000100       0.00675500
P        3.97487732       0.02017711      -0.16371692       0.00000000 NULL      -0.00129900       0.00000100      -0.00618500
P       -1.59426913       1.74391028       8.24832310       0.00000000 NULL       0.00129900      -0.00000100       0.00618500
