21
Lattice="4.548562591721643 0.0 0.0 0.0 10.11348478813066 1.8361765917468505e-14 0.0 -5.056742394065346 8.758534747308627" Properties=species:S:1:pos:R:3:initial_magmoms:R:1:castep_labels:S:1:forces:R:3 n_minim_iter=11 energy=-114.21948976741 stress="7.699016931451615e-05 0.0 0.0 0.0 -8.964812751903042e-05 2.4819525891204436e-08 0.0 2.4819525891204436e-08 -8.964812751903042e-05" free_energy=-114.21948976741 pbc="T T T"
P        4.20904813       1.18076824       2.74936248       0.00000000 NULL      -0.00017200      -0.00539000      -0.00435600
P        4.20904813      -3.26610875       6.36127821       0.00000000 NULL      -0.00017200      -0.00107800       0.00684600
P        4.20904813       2.08534052       8.40642879       0.00000000 NULL      -0.00017200       0.00646800      -0.00249000
P        1.24211392      -2.04396681       5.44731424       0.00000000 NULL       0.00362100       0.00280800      -0.00017900
P        1.24211392       0.68275354       7.80500480       0.00000000 NULL       0.00362100      -0.00155800      -0.00234200
P        1.24211392       1.36121328       4.26475043       0.00000000 NULL       0.00362000      -0.00125000       0.00252100
P        5.06725117       9.81577327       1.31485682       0.00000000 NULL      -0.00581400       0.00507800      -0.00372700
P        5.06725117       1.28755518      -0.39960268       0.00000000 NULL      -0.00581200      -0.00576600      -0.00253400
P        5.06725117       4.06689875       7.84328059       0.00000000 NULL      -0.00581500       0.00068900       0.00626300
P        2.31081404       2.35659141       0.20041586       0.00000000 NULL       0.00076200      -0.00313900       0.00279100
P        2.31081404       4.05201193       6.61745879       0.00000000 NULL       0.00076300       0.00398700       0.00132100
P        2.31081404       8.76162385       1.94066008       0.00000000 NULL       0.00076300      -0.00084800      -0.00411300
P        2.24045491       3.21892331       3.44560262       0.00000000 NULL       0.00073000       0.00658900      -0.00409200
P        2.24045491       6.43126014       4.24806407       0.00000000 NULL       0.00073000      -0.00683800      -0.00366000
P        2.24045491       5.52004373       1.06486804       0.00000000 NULL       0.00073000       0.00024900       0.00775100
P        2.82341031       1.85842820       6.68013454       0.00000000 NULL       0.00234800      -0.00139500      -0.00416200
P        2.82341031      -0.20079027       3.80902144       0.00000000 NULL       0.00234800      -0.00290700       0.00328900
P        2.82341031      -1.65763792       7.02791350       0.00000000 NULL       0.00234800       0.00430200       0.00087300
P        1.08077525       3.66660862       1.56220287       0.00000000 NULL      -0.00147600       0.00359300       0.00023300
P        1.08077525       4.57634547       4.80205710       0.00000000 NULL      -0.00147600      -0.00159500      -0.00322900
P        1.08077525       6.92727311       2.39427476       0.00000000 NULL      -0.00147600      -0.00199900       0.00299600
