24
Lattice="6.156415101662839 0.0 0.0 0.0 7.132923785227392 0.8289356501839706 0.0 -1.7450291303527146 10.61633968349917" Properties=species:S:1:pos:R:3:initial_magmoms:R:1:castep_labels:S:1:forces:R:3 n_minim_iter=1 energy=-130.074494548352 stress="-8.993834483441483e-05 0.0 0.0 0.0 -0.00011056544006908052 -5.544058045725454e-05 0.0 -5.544058045725454e-05 -5.895560586969247e-05" free_energy=-130.074494548352 pbc="T T T"
P        1.30524006       1.48093587       0.08234237       0.00000000 NULL       0.00329600       0.00715800       0.00082000
P        4.85117504       4.17488320       5.80498004       0.00000000 NULL      -0.00329600       0.00715900       0.00082000
P        0.68922504       6.32374297       3.11391921       0.00000000 NULL       0.00031600      -0.00088500       0.00218500
P        5.46719006       1.88476651       8.00762123       0.00000000 NULL      -0.00031500      -0.00088600       0.00218400
P        4.38609632       0.00085997      11.66539367       0.00000000 NULL      -0.00419900       0.00191800       0.00072300
P        1.77031879       4.43983643       6.77169166       0.00000000 NULL       0.00419900       0.00191800       0.00072300
P        3.64232752       2.57717282      10.42967137       0.00000000 NULL      -0.00019600      -0.00131700      -0.00165900
P        2.51408758      -0.11677451       4.70703370       0.00000000 NULL       0.00019600      -0.00131700      -0.00166200
P        5.02969687       3.13251991       2.62717319       0.00000000 NULL       0.00405500       0.00800500      -0.00438800
P        1.12671823      -1.30645654       7.52087521       0.00000000 NULL      -0.00405500       0.00800600      -0.00438800
P        4.31555585       4.46178949       9.39520716       0.00000000 NULL      -0.00071200      -0.00526300       0.00265300
P        1.84085925       1.76784216       3.67256950       0.00000000 NULL       0.00071100      -0.00526300       0.00265200
P        3.64461239       3.40090886       7.53420850       0.00000000 NULL      -0.00182800      -0.00116100       0.00032300
P        2.51180271       0.70696153       1.81157083       0.00000000 NULL       0.00182700      -0.00116200       0.00032100
P        1.46726665       4.93026638      -0.11326007       0.00000000 NULL       0.00036900      -0.00549300       0.00154200
P        4.68914845       0.49128993       4.78044195       0.00000000 NULL      -0.00036800      -0.00549400       0.00154000
P        5.79296841       0.08466232       0.52943435       0.00000000 NULL       0.00355900      -0.00568800       0.00449200
P        0.36344669       2.77860965       6.25207202       0.00000000 NULL      -0.00355900      -0.00568800       0.00449400
P        4.51320307       0.12162419       7.00963822       0.00000000 NULL       0.00373200       0.00155900       0.00482500
P        1.64321203       4.56060065       2.11593620       0.00000000 NULL      -0.00373200       0.00155900       0.00482300
P        2.30034875       0.52042399       6.86806516       0.00000000 NULL       0.00562800      -0.00436600      -0.00627000
P        3.85606635       4.95940045       1.97436315       0.00000000 NULL      -0.00562900      -0.00436500      -0.00627200
P        3.87422228       2.61293212       4.42770679       0.00000000 NULL       0.00151200       0.00553200      -0.00524100
P        2.28219282      -1.82604433       9.32140881       0.00000000 NULL      -0.00151300       0.00553300      -0.00524000
