52
Lattice="7.6339656343119975 -0.9597142913909431 0.0 -3.774951498478221 7.927945694988761 0.0 0.0 0.0 20.835612560454585" Properties=species:S:1:pos:R:3:initial_magmoms:R:1:castep_labels:S:1:forces:R:3 n_minim_iter=8 energy=-281.167955773945 stress="-2.4546163532845125e-06 -4.133202794190416e-07 0.0 -4.133202794190416e-07 -3.6524016528254082e-06 8.435107743245749e-09 0.0 8.435107743245749e-09 7.169841581758885e-07" free_energy=-281.167955773945 pbc="T T T"
P        1.70967360       2.91071375       6.33546485       0.00000000 NULL      -0.00352500       0.00357100       0.00113800
P        2.14934053       4.05751766      16.75327113       0.00000000 NULL       0.00352500      -0.00357100       0.00113800
P        2.14934053       4.05751766      14.50014771       0.00000000 NULL       0.00352500      -0.00357100      -0.00113800
P        1.70967360       2.91071375       4.08234143       0.00000000 NULL      -0.00352500       0.00357100      -0.00113800
P       -1.07099436       5.63206129      11.74301487       0.00000000 NULL      -0.00246100      -0.00108600       0.00513500
P        4.93000850       1.33617012       1.32520859       0.00000000 NULL       0.00246100       0.00108400       0.00513200
P        4.93000850       1.33617012       9.09259769       0.00000000 NULL       0.00246100       0.00108600      -0.00513500
P       -1.07099436       5.63206129      19.51040397       0.00000000 NULL      -0.00246100      -0.00108400      -0.00513200
P        1.39199746       0.66091042       6.34972034       0.00000000 NULL       0.00330200       0.00104800       0.00904400
P        2.46701668       6.30732099      16.76752662       0.00000000 NULL      -0.00330300      -0.00104800       0.00904400
P        2.46701668       6.30732099      14.48589222       0.00000000 NULL      -0.00330300      -0.00104800      -0.00904400
P        1.39199746       0.66091042       4.06808594       0.00000000 NULL       0.00330200       0.00104800      -0.00904400
P       -2.87475430       6.97050089      19.60778908       0.00000000 NULL      -0.00093000      -0.00008500       0.00115700
P        6.73376844      -0.00226948       9.18998280       0.00000000 NULL       0.00093100       0.00008500       0.00115400
P        6.73376844      -0.00226948       1.22782348       0.00000000 NULL       0.00093000       0.00008500      -0.00115700
P       -2.87475430       6.97050089      11.64562976       0.00000000 NULL      -0.00093100      -0.00008500      -0.00115400
P        4.18144565       0.46217034      20.30798756       0.00000000 NULL      -0.00080700      -0.00621300      -0.00144200
P       -0.32243151       6.50606107       9.89018128       0.00000000 NULL       0.00080800       0.00621300      -0.00144600
P       -0.32243151       6.50606107       0.52762500       0.00000000 NULL       0.00080700       0.00621300       0.00144200
P        4.18144565       0.46217034      10.94543128       0.00000000 NULL      -0.00080800      -0.00621300       0.00144600
P       -2.98545319       5.82025839       3.86759612       0.00000000 NULL      -0.00118100      -0.00573500       0.00327200
P        6.84446733       1.14797302      14.28540240       0.00000000 NULL       0.00118100       0.00573500       0.00327200
P        6.84446733       1.14797302      16.96801644       0.00000000 NULL       0.00118100       0.00573500      -0.00327200
P       -2.98545319       5.82025839       6.55021016       0.00000000 NULL      -0.00118100      -0.00573500      -0.00327200
P        4.95964845       3.86679740      14.50015045       0.00000000 NULL       0.00614000      -0.00106000       0.00668200
P       -1.10063432       3.10143401       4.08234417       0.00000000 NULL      -0.00614000       0.00106000       0.00668200
P       -1.10063432       3.10143401       6.33546211       0.00000000 NULL      -0.00614000       0.00106000      -0.00668200
P        4.95964845       3.86679740      16.75326839       0.00000000 NULL       0.00614000      -0.00106000      -0.00668200
P        0.25838147       6.80437815      14.50263546       0.00000000 NULL       0.00209600       0.00385500      -0.00414300
P        3.60063266       0.16385326       4.08482918       0.00000000 NULL      -0.00209500      -0.00385500      -0.00414300
P        3.60063266       0.16385326       6.33297710       0.00000000 NULL      -0.00209500      -0.00385500       0.00414300
P        0.25838147       6.80437815      16.75078338       0.00000000 NULL       0.00209600       0.00385500       0.00414300
P       -0.25683650       4.40865027      14.50407387       0.00000000 NULL       0.00510200      -0.00364600      -0.00053300
P        4.11585064       2.55958114       4.08626759       0.00000000 NULL      -0.00510200       0.00364600      -0.00053300
P        4.11585064       2.55958114       6.33153869       0.00000000 NULL      -0.00510200       0.00364600       0.00053300
P       -0.25683650       4.40865027      16.74934497       0.00000000 NULL       0.00510200      -0.00364600       0.00053300
P       -0.22628673       2.12999825      19.16743038       0.00000000 NULL      -0.00004700      -0.00375000       0.00172900
P        4.08530087       4.83823316       8.74962410       0.00000000 NULL       0.00004600       0.00375000       0.00172800
P        4.08530087       4.83823316       1.66818218       0.00000000 NULL       0.00004700       0.00375000      -0.00172900
P       -0.22628673       2.12999825      12.08598846       0.00000000 NULL      -0.00004600      -0.00375000      -0.00172800
P        6.18941959      -0.55531602      11.33064036       0.00000000 NULL      -0.00029000       0.00179600      -0.00193800
P       -2.33040545       7.52354743      21.74844664       0.00000000 NULL       0.00029000      -0.00179700      -0.00194100
P       -2.33040545       7.52354743       9.50497220       0.00000000 NULL       0.00029000      -0.00179600       0.00193800
P        6.18941959      -0.55531602      -0.91283408       0.00000000 NULL      -0.00029000       0.00179700       0.00194100
P        4.64086162       1.61997951      14.47756184       0.00000000 NULL       0.00195900       0.00507800       0.00820000
P       -0.78184749       5.34825190       4.05975556       0.00000000 NULL      -0.00195900      -0.00507800       0.00820000
P       -0.78184749       5.34825190       6.35805072       0.00000000 NULL      -0.00195900      -0.00507800      -0.00820000
P        4.64086162       1.61997951      16.77585700       0.00000000 NULL       0.00195900       0.00507800      -0.00820000
P        2.28849595       6.03671532       8.27201128       0.00000000 NULL       0.00101000       0.00409900       0.00003900
P        1.57051818       0.93151609      18.68981756       0.00000000 NULL      -0.00101000      -0.00409900       0.00003900
P        1.57051818       0.93151609      12.56360128       0.00000000 NULL      -0.00101000      -0.00409900      -0.00003900
P        2.28849595       6.03671532       2.14579500       0.00000000 NULL       0.00101000       0.00409900      -0.00003900
