9
Lattice="3.249471207738345 -0.1168637584943658 -1.1159899523993935 0.7468045715127547 7.424370225814984 1.3984029840011427 -0.8328137756788598 4.888938084595301 7.663368056254243" Properties=species:S:1:pos:R:3:initial_magmoms:R:1:castep_labels:S:1:forces:R:3 n_minim_iter=17 energy=-50.031830243381 stress="-0.0001289876405317728 -1.6984137721265455e-05 -0.00012629903185775007 -1.6984137721265455e-05 -0.0002291219196837896 0.00012374157482636264 -0.00012629903185775007 0.00012374157482636264 -0.0002558112789600639" free_energy=-50.031830243381 pbc="T T T"
P        1.03509439       3.28252463       2.62944103       0.00000000 NULL       0.00589600      -0.00192300      -0.00281700
P        0.15952185       5.22317823       5.16574104       0.00000000 NULL       0.00275800      -0.00283400       0.00329600
P        2.66718430       7.67069538       6.92696416       0.00000000 NULL      -0.00044900      -0.00188300       0.00288700
P        0.15426149       8.93292326       4.76250835       0.00000000 NULL       0.00063700      -0.00427400       0.00426500
P        2.66717491       5.05844991       1.89186285       0.00000000 NULL      -0.00439700      -0.00025500       0.00052900
P        1.91358181       1.34205926       0.09088864       0.00000000 NULL       0.00175400       0.00387100      -0.00359600
P        1.78703372       7.23109651       4.40383341       0.00000000 NULL       0.00238500      -0.00603500      -0.00053000
P        4.28226604       6.64156491       1.13702254       0.00000000 NULL      -0.00185800       0.00744600      -0.00370700
P       -0.67972739      11.20721122       7.39076512       0.00000000 NULL      -0.00672700       0.00588900      -0.00032700
