24
Lattice="4.959414691424749 2.9698962369027e-17 1.0552464125643006 4.597069422110111e-17 10.070986719823768 -4.2839380581210883e-16 0.8963390086866327 3.195631014107268e-16 7.96454278252472" Properties=species:S:1:pos:R:3:initial_magmoms:R:1:castep_labels:S:1:forces:R:3 n_minim_iter=12 energy=-134.165262138362 stress="-0.00010374144919309123 -0.0 -2.0449530948191266e-05 -0.0 -9.24607255717968e-05 -0.0 -2.0449530948191266e-05 -0.0 -3.343008963570815e-05" free_energy=-134.165262138362 pbc="T T T"
P        1.41715422       1.18588367       2.90828855       0.00000000 NULL      -0.00103800      -0.00388300      -0.00066200
P        1.41715422       8.88510305       2.90828855       0.00000000 NULL      -0.00103800       0.00388300      -0.00066200
P        3.24852523       6.21976927       5.89789866       0.00000000 NULL       0.00020700       0.00320000       0.00376100
P        3.24852523       3.85121745       5.89789866       0.00000000 NULL       0.00020700      -0.00320000       0.00376100
P        5.90332540       6.37199870       6.67684322       0.00000000 NULL      -0.00002200       0.00114200      -0.00042400
P        5.90332540       3.69898802       6.67684322       0.00000000 NULL      -0.00002200      -0.00114200      -0.00042400
P        5.42055730       8.73468261       8.94981825       0.00000000 NULL      -0.00191500      -0.00274600       0.00037500
P        5.42055730       1.33630411       8.94981825       0.00000000 NULL      -0.00191500       0.00274600       0.00037500
P        1.78238644       8.88592379       0.61614366       0.00000000 NULL      -0.00062300       0.00122800      -0.00354800
P        1.78238644       1.18506293       0.61614366       0.00000000 NULL      -0.00062300      -0.00122800      -0.00354800
P        2.62329960       3.85217673       8.58831915       0.00000000 NULL       0.00003300      -0.00039800       0.00052800
P        2.62329960       6.21880999       8.58831915       0.00000000 NULL       0.00003300       0.00039800       0.00052800
P        0.44667252       6.37944895       7.89061358       0.00000000 NULL      -0.00039800      -0.00032100       0.00054700
P        0.44667252       3.69153777       7.89061358       0.00000000 NULL      -0.00039800       0.00032100       0.00054700
P        3.66357272       1.18639401       3.59230467       0.00000000 NULL       0.00102800      -0.00161800       0.00072400
P        3.66357272       8.88459271       3.59230467       0.00000000 NULL       0.00102800       0.00161800       0.00072400
P        3.20164045       8.88780965       5.86837697       0.00000000 NULL       0.00116300       0.00057900       0.00048300
P        3.20164045       1.18317707       5.86837697       0.00000000 NULL       0.00116300      -0.00057900       0.00048300
P        0.92942528       8.72724630       5.61933632       0.00000000 NULL       0.00134100      -0.00068100       0.00177800
P        0.92942528       1.34374042       5.61933632       0.00000000 NULL       0.00134100       0.00068100       0.00177800
P        3.84925372       6.22071836       3.65590427       0.00000000 NULL       0.00046700       0.00028200      -0.00082500
P        3.84925372       3.85026836       3.65590427       0.00000000 NULL       0.00046700      -0.00028200      -0.00082500
P        6.18106222       6.22150892       3.94640309       0.00000000 NULL      -0.00024400       0.00177200      -0.00273500
P        6.18106222       3.84947780       3.94640309       0.00000000 NULL      -0.00024400      -0.00177200      -0.00273500
