10
Lattice="5.4876986414321465 -0.8416820883695134 -0.8449533963477349 -0.24537322701666023 6.336311567191834 -1.799167575773414 -0.24537322701666114 -1.8237330890477277 6.329284782829404" Properties=species:S:1:pos:R:3:initial_magmoms:R:1:castep_labels:S:1:forces:R:3 n_minim_iter=18 energy=-53.553184987798 stress="3.9908675285573083e-05 3.849954173198412e-05 3.865052032701151e-05 3.849954173198412e-05 -7.146320164629733e-05 6.824232495237969e-05 3.865052032701151e-05 6.824232495237969e-05 -7.090961346453023e-05" free_energy=-53.553184987798 pbc="T T T"
P        2.51019151       4.36091057       3.99134283       0.00000000 NULL      -0.00110100      -0.00260600      -0.00379700
P        0.01171541       2.13894829       2.53377859       0.00000000 NULL      -0.00110000      -0.00378700      -0.00262100
P        0.72283005      -1.00062361       5.82759695       0.00000000 NULL      -0.00114700      -0.00376900      -0.00443500
P        3.46667937       1.33057123       2.66373911       0.00000000 NULL      -0.00114600      -0.00442300      -0.00378300
P        4.17834876       1.79809306      -0.54123058       0.00000000 NULL      -0.00167500       0.00768800      -0.00178200
P        1.43449944       3.95266192      -1.84576942       0.00000000 NULL      -0.00167500      -0.00181100       0.00768200
P       -0.16016759       4.33261802       2.13452723       0.00000000 NULL       0.00121900       0.00369500       0.00001500
P        2.58368173       5.77688589      -0.14583745       0.00000000 NULL       0.00122000       0.00000100       0.00369500
P        3.10506165       2.95205420       1.08238092       0.00000000 NULL       0.00270200       0.00051200       0.00450000
P        0.60658555      -0.76452667       1.11364873       0.00000000 NULL       0.00270300       0.00450000       0.00052600
