2
Lattice="20.0 0.0 0.0 0.0 20.0 0.0 0.0 0.0 20.0" Properties=species:S:1:pos:R:3:forces:R:3 energy=-5.75822392 cutoff=-1.0 nneightol=1.2 pbc="T T T"
P       11.30000000      10.00000000      10.00000000      -5.53665152      -0.00000000      -0.00000000
P        8.70000000      10.00000000      10.00000000       5.53665152       0.00000000       0.00000000
2
Lattice="20.0 0.0 0.0 0.0 20.0 0.0 0.0 0.0 20.0" Properties=species:S:1:pos:R:3:forces:R:3 energy=-4.71474366 cutoff=-1.0 nneightol=1.2 pbc="T T T"
P       11.40000000      10.00000000      10.00000000      -4.86934299       0.00000000       0.00000000
P        8.60000000      10.00000000      10.00000000       4.86934299       0.00000000      -0.00000000
4
Lattice="20.0 0.0 0.0 0.0 20.0 0.0 0.0 0.0 20.0" Properties=species:S:1:pos:R:3:forces:R:3 energy=-19.16037893 cutoff=-1.0 nneightol=1.2 pbc="T T T"
P       11.25000000      10.00000000       9.11611660      -3.49409551       0.00000000       2.47045959
P        8.75000000      10.00000000       9.11611660       3.49409551      -0.00000000       2.47045959
P       10.00000000      11.25000000      10.88388340       0.00000000      -3.49409551      -2.47045959
P       10.00000000       8.75000000      10.88388340      -0.00000000       3.49409551      -2.47045959
4
Lattice="20.0 0.0 0.0 0.0 20.0 0.0 0.0 0.0 20.0" Properties=species:S:1:pos:R:3:forces:R:3 energy=-16.84309842 cutoff=-1.0 nneightol=1.2 pbc="T T T"
P       11.35000000      10.00000000       9.04540580      -4.08668679       0.00000000       2.88969865
P        8.65000000      10.00000000       9.04540580       4.08668679      -0.00000000       2.88969865
P       10.00000000      11.35000000      10.95459420      -0.00000000      -4.08668679      -2.88969865
P       10.00000000       8.65000000      10.95459420       0.00000000       4.08668679      -2.88969865
4
Lattice="20.0 0.0 0.0 0.0 20.0 0.0 0.0 0.0 20.0" Properties=species:S:1:pos:R:3:forces:R:3 energy=-12.02697679 cutoff=-1.0 nneightol=1.2 pbc="T T T"
P       11.55000000      10.00000000       8.90398440      -3.73551744      -0.00000000       2.64149103
P        8.45000000      10.00000000       8.90398440       3.73551744      -0.00000000       2.64149103
P       10.00000000      11.55000000      11.09601560       0.00000000      -3.73551744      -2.64149103
P       10.00000000       8.45000000      11.09601560       0.00000000       3.73551744      -2.64149103
4
Lattice="20.0 0.0 0.0 0.0 20.0 0.0 0.0 0.0 20.0" Properties=species:S:1:pos:R:3:forces:R:3 energy=-15.93307339 cutoff=-1.0 nneightol=1.2 pbc="T T T"
P       11.10000000      10.00000000       8.52218260      -4.87173504       0.00000000      -0.27252525
P        8.90000000      10.00000000       8.52218260       4.87173504       0.00000000      -0.27252525
P       10.00000000      11.10000000      11.47781740       0.00000000      -4.87173504       0.27252525
P       10.00000000       8.90000000      11.47781740       0.00000000       4.87173504       0.27252525
248
Lattice="19.976754 0.0 0.0 0.0 19.976754 0.0 0.0 0.0 19.976754" Properties=species:S:1:pos:R:3:forces:R:3 energy=-1309.2877953 hash=70630534e084fffb267fe3f313ab5e6d virial="-10.9299785123 -16.3402835428 -4.19282219666 -16.3402835428 33.6696599322 -0.528829800462 -4.19282219666 -0.528829800462 26.1685664763" config_type=liq_12_03_01_liqP4 pressure=0.002044965969504842 uploaded="2020-04-10 10:56:37.811000" hash_structure=e4f40e123891b52fc1eb4918cc0f7cd4 filename=liq_12_03_01_liqP4/liq_12_03_01_liqP4_mbd2.xyz username=gabor stress="0.00137102237761 0.00204967414789 0.000525934524983 0.00204967414789 -0.00422341701417 6.63347589899e-05 0.000525934524983 6.63347589899e-05 -0.00328250327194" volume=7972.137210029367 n_atoms=248 free_energy=-1309.2877953 modified="2020-04-10 10:56:37.811000" formula=P248 miguel_caro=T pbc="T T T"
P        1.41419000       2.13510000       0.35754000       0.22497900      -0.63545000       0.94894300
P        3.01403000       1.68702000       1.84667000       2.93124100       1.36499100      -0.75710900
P        1.87424000       0.08580000       1.10931000      -1.00396400      -0.90977200      -0.59853700
P        1.08678000       1.56392000       2.52434000      -2.35573500       0.13056900       0.08426800
P       16.72714000       1.10573000       5.33557000      -1.34804200       0.36147000       0.84755400
P       16.85968000      19.21910000       4.16759000       0.77997800       0.38664300       0.75053500
P       17.83549000      19.38470000       6.23530000      -0.80653500      -0.28139400      -0.35348700
P       18.61328000       0.55939000       4.59553000       1.34222300      -0.14637800      -1.10063800
P        2.58094000       5.63478000      11.01766000       0.29002100       0.12429000      -0.30826200
P        1.61136000       5.37604000      12.96875000       0.49609400       1.44824200       0.41995700
P        3.84125000       4.92151000      12.70292000      -1.64446600      -0.41713500      -0.24662100
P        2.09428000       3.66567000      11.85998000       1.14626100      -0.89546600      -0.45844500
P       19.91441000      19.05609000      12.57317000       0.69303600       0.29225500      -0.78016700
P        2.15807000      19.54168000      12.32024000      -0.68428200      -0.17879200      -0.00996100
P        1.41641000      17.46072000      12.11416000      -0.08790200       0.35631500       0.22235000
P        1.37640000      18.48219000      14.06387000       0.45936300      -0.42773400       0.97436200
P        1.65174000       8.87937000       4.12588000       0.02358200      -0.02623600       1.00380800
P        2.81952000      10.31072000       2.96693000      -1.26439000       0.55157100       0.27152700
P        0.98803000      11.04263000       4.24248000       0.98629800      -1.19858200      -1.03369700
P        0.70684000       9.74754000       2.41793000       0.10992200       0.69480500      -0.41067200
P        0.05038000       7.38621000       9.89738000       0.65627500       0.46447300       1.27988900
P        0.10472000       7.78368000       7.76954000      -0.81146300      -0.26985400       0.12357900
P       18.20534000       8.16146000       8.98117000       0.19839700       0.32372400      -0.43822300
P       18.85230000       6.10514000       8.65267000       0.00596000      -0.28313700      -0.77800300
P        4.28118000       9.71569000      14.00662000      -2.44272800       0.01098100      -0.09123900
P        3.56533000      10.30717000      12.05036000       0.00297800      -0.80587700      -1.03745400
P        2.43644000      11.12457000      13.63324000       0.24641900      -0.49285000       1.28407900
P        2.06781000       8.95302000      13.16120000       2.18550900       1.34703000       0.19604100
P        0.20153000      10.13862000      16.24196000       0.03562000      -0.27307200      -0.11884900
P        1.32558000       9.36608000      17.95027000       0.23190500       0.25138500       0.27629200
P        0.59830000       7.93457000      16.44668000      -0.42679400       1.18349900       0.48647500
P       19.11827000       9.04084000      17.83435000       0.59932200      -0.50939800      -0.51907500
P        5.51988000      12.70254000       2.93079000      -0.27916700       1.06646000      -0.62556900
P        4.96720000      13.09155000       4.99517000       1.30582500       0.04945100       0.17618400
P        5.78737000      14.82948000       3.87084000      -0.21335600      -1.24887500      -0.58668600
P        7.19301000      13.14848000       4.23347000      -0.98297600      -0.00709700       0.71361800
P        8.90386000      13.52832000       8.94108000      -0.26066700      -0.03945700      -0.08764600
P        8.99294000      11.84951000       7.47215000      -0.36153700       1.65615400      -0.21460600
P       10.13255000      13.78478000       7.16073000      -0.22846100      -0.44846400      -0.20881000
P        7.92204000      13.88484000       6.94292000       0.98448000      -1.29434500       0.95999100
P        1.03300000      15.28631000      16.08834000       0.20840600      -0.63518700       1.06812400
P        0.89638000      14.57852000      14.07133000      -1.00051600       0.19065000      -0.49358800
P       19.13240000      15.65496000      15.10458000       0.06328900      -0.16809000      -1.05533500
P       19.56587000      13.55079000      15.54159000       1.04841100       0.72804000       0.66013500
P       18.75386000      13.98942000      18.93505000       0.61627300      -1.26306400       0.03491000
P       18.54406000      12.19561000       0.38253000       0.07200000      -2.47300800      -2.04580500
P       18.38758000      14.08803000       1.06436000       0.82922100       2.94381900       1.81546800
P        0.45006000      13.27945000       0.31555000      -0.91196300       1.04180900       0.19127400
P        1.92254000      16.71545000       4.86953000      -0.48959900      -0.12598400      -1.36794000
P        0.77134000      18.19756000       3.70613000       1.10687400       2.80511700      -0.03266800
P       19.75659000      16.51280000       4.32633000      -0.58242800      -2.16472300       0.18060700
P        1.26435000      16.43763000       2.60601000       0.10326600      -0.75944600       1.39247000
P        1.28219000      11.45531000       7.51000000      -0.63294800      -0.17546600      -1.01027200
P        0.83329000      11.50821000       9.57150000       0.97227400      -1.12218300       2.45927500
P       19.34311000      12.31731000       8.32293000       0.17987300       0.99925800      -1.11624200
P        1.43423000      13.34371000       8.59120000      -1.07722000       0.12649000      -0.11971700
P        5.15536000      14.66208000       9.30110000       2.06866900      -1.10208100       0.02613700
P        4.80745000      16.72604000       9.92685000       0.11682200       0.24578700      -0.34636700
P        3.57112000      15.08595000      10.66900000      -1.08031400       0.31794500      -0.77280900
P        3.55488000      15.68269000       8.38670000      -0.88223000       0.69673400       1.19869600
P        0.34716000      17.26491000      18.95522000      -0.40787300      -1.19940200       0.70393200
P       18.64782000      18.57273000      19.58745000       0.25714200       0.54686300       0.45770100
P       18.26535000      17.18416000      17.99077000      -1.07329600      -2.65384100       0.51471800
P       19.58165000      18.67952000      17.60348000       1.24422800       3.45422300      -1.51997300
P        3.20793000       6.11710000       2.15431000      -1.52753900      -1.41338500      -2.27102800
P        1.18662000       5.30810000       1.00419000       0.53724200       1.45907400       1.14131000
P        3.01923000       4.81809000       0.06756000       1.53525700       0.36442100       0.90935100
P        2.54704000       6.94200000       0.20500000      -0.62355700       0.30779400      -0.07233600
P        6.34971000       3.13144000       0.39272000      -1.33069400      -0.08842700      -0.25597900
P        8.02406000       3.69592000       1.53767000       2.96705400      -0.66554300       0.59413000
P        6.29587000       2.94110000       2.62948000      -0.23224000       0.78914400      -0.97162700
P        6.39356000       4.98704000       1.57663000      -1.48457900       0.32371800       0.58104200
P        5.63774000       1.98281000       9.38911000       0.89971500      -0.63040400       1.10240900
P        7.58354000       1.59207000      10.63129000      -0.45448200      -1.06995900      -0.98546100
P        5.57116000       1.23119000      11.56498000       0.49234500       0.50423800      -0.99790600
P        6.33085000       3.23795000      11.02537000      -0.78809000       1.40633600       0.75335700
P        4.88440000       1.04772000      15.88016000      -0.75228700       0.87868800      -0.46728900
P        4.77303000       0.66469000      17.97790000      -1.10582000      -0.05735800       0.44695800
P        2.89825000       0.44900000      16.67981000       0.42219200      -1.55394700       0.11793900
P        3.55017000       2.36916000      17.21810000       1.33533600       0.93306500      -0.20831800
P        7.83512000       8.30230000       3.20715000      -1.38838400       0.35669500       1.11197100
P        6.26799000       7.16500000       4.36015000       1.37630900      -1.03135800       1.86355800
P        5.61287000       8.64376000       3.11947000      -0.12666200       2.15982400      -1.34915500
P        6.66349000       9.33811000       5.00428000       0.21268100      -1.56354600      -1.70202500
P        3.67145000       4.31054000       4.43252000      -0.88085500      -0.56758600      -0.77289200
P        1.74575000       3.81234000       5.64807000       1.82578800      -0.27858000      -0.38417900
P        3.12772000       5.41674000       6.17693000       0.05398600       0.77621900       0.90560400
P        3.95104000       3.37619000       6.34580000      -1.00242500      -0.15377900       0.57079500
P        8.63851000       7.07878000      14.76993000       1.67425800      -1.01773400       1.49350200
P        7.50870000       5.07515000      15.04118000       0.92726000       0.12322500       0.94723000
P        9.15742000       5.19010000      13.52450000      -1.29712200       1.27690900       0.54346300
P        7.22140000       6.43230000      13.45372000      -1.38636400      -0.61655200      -3.03944600
P        7.61732000       8.25382000      17.38909000      -0.42704600       0.11292500       1.27015800
P        6.35836000       9.15914000      19.14626000       0.26033600      -1.99154900      -1.48384300
P        6.39046000       6.81135000      18.63038000      -0.23196700       2.34842200      -0.68382800
P        5.45110000       8.41383000      17.21019000       0.10929800      -0.61807100       1.00967200
P        3.60612000       9.20521000       9.31979000      -1.83618300       0.50324700      -0.81671800
P        3.77023000       9.84095000       7.00635000      -1.79004700       0.16237700       0.22428200
P        5.33096000       9.17530000       8.16596000       4.27128600      -1.33011100       0.13235500
P        4.53029000      11.10306000       8.67011000      -0.16720300       0.27281000      -0.00167500
P       14.18280000      15.00498000      11.52291000      -0.50606100       0.00745500      -1.31131200
P       12.07467000      14.45294000      10.60756000       1.27027300       0.59131400       0.72228600
P       12.48895000      16.44614000      11.48715000       0.15555800       0.11842700       0.04271400
P       12.50083000      14.67682000      12.77875000      -1.04019900      -0.24662300       0.73707700
P        8.55696000      12.82546000      13.38926000      -0.05033000      -1.48793300       0.42135100
P        7.69129000      11.02897000      14.56523000       1.17973700       0.33545100       1.11823700
P        8.37214000      10.70335000      12.52696000       0.40634500       0.55410500      -0.20498700
P        6.62513000      11.90521000      12.98825000      -1.53577000       0.74100000      -1.29803500
P        4.07789000      14.32395000      18.23007000      -0.66727700       0.53378500      -1.19223300
P        4.70429000      12.55799000      19.14726000      -0.61600200      -2.07060700       1.29615000
P        5.70504000      13.09322000      17.37256000       0.14087300       0.59365700      -1.10064500
P        3.57690000      12.43539000      17.17593000       0.56213900      -0.22466800       0.74679700
P        5.04371000      18.29641000       5.04215000       0.84604200      -0.92586300       0.86621000
P        7.16984000      18.92530000       4.41422000      -1.00342500      -0.14354200       0.62656900
P        6.00030000       0.11539000       5.93657000      -0.13352800      -0.20461400      -0.91474800
P        5.33443000      19.96639000       3.81414000      -0.01145500       1.52828400      -1.04932100
P        3.28927000       0.07016000       8.66823000      -1.76819600      -0.88591200      -0.17629800
P        1.22062000       0.84362000       9.10880000       0.46174600      -0.63169500       0.83884300
P        1.49256000      19.68435000       7.33085000       0.61090200      -0.08564500      -1.47256200
P        1.55547000      18.53210000       9.15489000       0.63653600       1.50289300       0.13152300
P        4.30339000      15.75926000      14.22419000      -0.21154100       0.20066600       0.09253700
P        5.44263000      17.50261000      13.48996000      -0.01690500      -0.22985900       0.40132200
P        6.47532000      15.76885000      14.42280000       0.12105600       0.29626200      -0.00338100
P        5.25554000      17.12435000      15.70117000       0.05658300      -0.14288600      -0.76029500
P        6.18914000      18.39458000      19.56899000      -0.32525000      -0.44836800       0.15028000
P        4.26106000      17.91849000       0.52401000      -1.80481600       2.33722200       1.57360800
P        5.81679000      16.56267000       0.77921000       1.75875100      -1.33437700       0.67903800
P        4.78817000      16.75059000      18.87735000       1.04758100       0.17549900      -1.85543400
P       12.42288000       5.94780000      19.18006000      -1.54670400      -0.27607200       0.00604200
P       10.52172000       4.57995000      18.99502000       1.32680200       0.22494700       0.01466600
P       10.49968000       6.25900000       0.37808000       0.29501100       0.99254300       0.01726700
P       11.83529000       4.62464000       0.83603000      -0.10567900      -0.79123300       0.08150500
P       12.46889000       1.36957000      10.42129000      -0.19427200       1.09394600      -0.42742300
P       11.53192000       0.45577000       8.71550000       1.09021700      -1.59985900      -0.89586200
P       13.38145000       1.82298000       8.42458000      -1.80552100      -0.47928500       0.45116300
P       11.19475000       2.51569000       8.81536000       1.33942100       0.91979600       1.00894000
P       11.34895000       2.07209000      13.32372000       0.22221100       0.26690300      -1.19365000
P        9.93092000       1.79419000      14.86081000      -1.31133700       1.05499900       2.23728100
P       11.07315000       0.12725000      14.22934000       0.57057300      -1.29536400      -0.08570900
P        9.44049000       0.91713000      12.97232000       0.55798800      -0.05202900      -0.56781900
P       10.33292000       1.31277000      18.50177000       1.97263200       2.07646100      -1.03864600
P        8.17623000       1.65837000      18.64780000      -0.59812800       0.28080100      -1.65730100
P        9.22676000       0.66085000       0.17090000       0.00215600      -1.45312100       2.46436700
P        9.10604000      19.64388000      18.19774000      -1.25013100      -1.20762800      -0.19736000
P       11.36633000       8.73659000       3.51879000       0.25490400       1.74054200       0.15037200
P       13.01384000       9.63511000       4.68579000      -0.34648500       0.11705300       0.25982700
P       10.94598000      10.47189000       4.95757000       0.75996800      -0.73117600      -0.83825800
P       12.15524000      10.90559000       3.11238000      -0.69764000      -1.19185000       0.32580300
P        7.59902000       3.35272000       5.22312000      -1.52339800       0.03958100      -0.38174300
P        9.43139000       2.83688000       6.13318000       1.14182900      -0.15235100       0.53759300
P        8.01477000       4.10652000       7.24425000      -0.24688400      -0.23358800       0.55526600
P        9.04673000       4.92717000       5.53296000       0.67140800       0.42510400      -0.37577300
P       10.76144000       6.12190000      10.30021000       1.77925500       0.17365200      -0.19940100
P       10.03862000       8.03054000      11.15866000       0.01263900      -0.34236400      -0.14218100
P        8.71308000       6.49213000      10.27674000      -1.41779700       1.01653400      -0.53727900
P       10.06077000       7.78362000       8.95540000      -0.30964200      -0.83772600       0.71366800
P       13.12077000       9.17177000      15.47895000       0.74107000      -1.93280800      -0.56292200
P       12.40958000      10.88961000      16.39227000      -1.41467800       1.64733600       0.36433000
P       12.38065000       9.08555000      17.57880000      -0.01838400      -0.42863500      -0.30945000
P       10.95407000       9.22776000      15.86610000       0.58446200       0.69568200       0.35063200
P       10.72340000      11.99348000      19.82713000      -0.64105800      -0.91660400      -0.52860800
P        8.71288000      11.14165000      18.90446000       1.12014800       0.28035700      -0.50942500
P        8.78006000      12.47486000       0.61307000      -1.67660600       3.56455500       0.38796900
P        9.35983000      10.55971000       0.90655000       1.32609800      -2.77566000       0.57105400
P       12.78384000      12.14898000       8.56571000       1.19494800      -0.76929000       0.75497600
P       14.61168000      11.57072000       9.94121000      -1.50171300      -0.18553600      -1.19853500
P       13.27631000       9.98492000       8.93756000       0.36897100       0.86359000       0.41346300
P       12.52119000      11.30361000      10.56906000      -0.23825900      -0.41237200       0.16679500
P       16.91568000      18.24549000      15.03273000      -0.32288700       0.43797100       0.62726400
P       15.08898000      18.06312000      13.81962000       0.44974500       0.86419200      -0.14693200
P       15.71246000       0.13450000      14.56645000      -1.18714300      -0.15009400       1.79529600
P       16.88667000      19.22089000      13.12315000       0.58042600      -1.08620900      -2.29103700
P       13.69846000      13.21195000      18.21580000      -2.62748600      -5.92452700       2.01529400
P       14.16558000      15.08968000      18.62559000      -0.20759800       5.04458300       2.70608800
P       14.21498000      14.37985000      16.67777000       1.76814500       1.22668700      -3.56194700
P       15.75365000      13.77955000      18.27078000       1.24073800      -0.55508100      -1.18961100
P       11.16035000      15.38082000       2.77771000      -0.85581800      -0.05838200       0.83695100
P        9.74804000      17.11628000       3.34643000       1.42726600      -0.82391600      -1.85076600
P        8.96517000      15.37561000       2.22643000       1.40010600       0.60392200      -0.65241000
P       10.70696000      16.59908000       1.05811000      -2.04237200       0.26225000       1.73106700
P        8.32369000      18.21580000       9.68883000       0.81861000       0.35772500       0.61626900
P        8.43357000      16.75245000       8.06675000       0.23251800       1.67793400      -0.48095300
P        9.03724000      19.08277000       7.72363000      -1.33774500      -1.99689500       0.80465500
P        6.88944000      18.37726000       8.11576000       0.35292000      -0.13881900      -0.45827600
P       15.66695000      11.87754000      13.20673000       0.81233600       0.15089000       0.24520800
P       17.50947000      11.06415000      12.33365000       0.19629800      -3.23929500      -1.19339800
P       17.66173000      11.85498000      14.31572000      -0.80940800      -0.34302200       0.76975900
P       17.42007000      13.07351000      12.54950000      -0.42748800       3.22383500       0.27000300
P       10.23307000      15.85058000      15.64905000      -0.28163600      -0.34856100       0.67072200
P       10.66952000      14.36075000      17.29054000      -0.80278500       1.09537200      -0.17660200
P        8.57003000      14.75105000      16.65104000      -0.09010600      -1.16777100      -0.94145600
P        9.50939000      16.29921000      17.71193000       1.37019800       0.35653100       0.47721600
P       11.54087000       0.05887000       5.38621000      -0.91980800      -1.02638200       0.24255400
P       12.98219000       1.48687000       4.81478000       0.91888500       0.20843000      -0.85086000
P       11.28025000       1.09766000       3.47290000      -0.33215800       0.32024900      -0.09966400
P       12.79317000      19.50662000       3.64194000       0.14588500       0.62774300       0.64443600
P       16.48951000       2.42086000      10.63712000       0.55482900       0.25394600      -0.32091400
P       17.13528000       0.74411000       9.36618000       0.91858700       0.78369600       0.40354000
P       18.68929000       1.93874000      10.59359000      -1.22032600      -0.39879400      -0.51143500
P       17.73344000       2.84235000       8.79996000      -0.45895700      -0.60492200       0.62269200
P       19.12057000       5.53062000      15.92892000       0.06685300       0.54085000       0.34884200
P       18.80562000       3.94751000      14.53351000       0.14812100      -0.75386500      -1.02315500
P       19.17782000       3.46289000      16.60464000       0.33723200      -0.46507500       0.53915800
P        0.88641000       4.29926000      15.32766000      -1.08502400      -0.35512300       0.64077000
P       14.44509000       5.41240000      16.41208000      -0.23933300       1.64289300      -0.56854300
P       13.26079000       3.68625000      16.07521000      -0.02406000      -1.61669200       0.14420600
P       15.32433000       3.92172000      15.16967000       0.79776300      -1.87522400       0.48316600
P       13.65487000       4.85893000      14.30272000      -0.71131900       1.59433100       0.12836300
P       18.95866000       6.60821000       3.36742000       0.59056600      -0.57200400       0.66231800
P       18.47618000       5.24024000       5.15035000       0.77922800      -0.69621400      -0.78453500
P       16.93499000       5.98709000       3.79908000      -0.47442500       0.73727000       0.68704300
P       18.12345000       7.33127000       5.28475000      -1.12495000       0.49656600      -0.79185300
P       14.83034000       4.96940000       6.74793000       1.49638500       0.01105400      -0.20654700
P       12.83932000       5.32199000       7.28582000      -1.68847200       0.08260500       0.69142000
P       13.98688000       7.01348000       6.54025000       0.57968300      -0.30203100       0.88547400
P       14.42390000       6.10232000       8.62850000      -0.30307000       0.15335300      -1.34848000
P       16.67382000       8.07468000      14.60730000      -1.33148500       1.08374400       2.21981900
P       16.39676000       6.29503000      13.46539000       0.47425100       0.81884800      -1.23948900
P       18.05291000       7.84625000      13.08272000      -0.16580500      -0.71528400      -1.72168700
P       15.86420000       8.40352000      12.59065000       1.14234200      -1.36375100       0.56407500
P       17.39194000       2.38516000       0.64329000      -1.41240600      -0.05664000      -1.00213800
P       16.81008000       4.09861000      19.36559000       1.30305200       1.03927800      -1.23449900
P       15.57192000       3.60926000       0.99860000      -0.90429200      -0.21847300       1.53507900
P       15.47693000       2.39929000      19.15691000       1.11042600      -0.48090900       0.74793800
P       15.22856000      17.10751000       2.11180000       0.83655600      -1.76589600       0.62224700
P       15.18948000      14.77529000       2.32573000       0.59932400       1.34549400       0.11589300
P       14.07928000      16.10883000       3.67353000       0.40145700      -0.25432200       0.23425700
P       16.34632000      16.05114000       3.87355000      -1.66592600      -0.22219100      -1.64958200
P       17.32380000      12.28882000       5.84072000       0.14050400      -0.37514600       0.10686000
P       16.00356000      10.53800000       6.31437000       0.88234100      -0.78898100       0.25254100
P       15.54613000      11.83641000       4.66046000      -0.46319900       0.63121000      -0.20840100
P       15.35561000      12.52315000       6.80183000      -0.18281300       0.61381200      -0.62334500
P       18.07992000      15.98372000      11.28988000       0.49645000       0.19616700      -1.83665000
P       17.07565000      14.65403000       9.83689000       0.88256800       1.49040600      -0.70526400
P       18.87172000      15.95120000       8.98512000      -2.05805500      -0.31758400       2.20654300
P       16.87718000      16.90285000       9.64614000       0.76223600      -0.85859500      -0.01157700
P       14.82908000      10.03273000      19.69892000      -3.27170800       0.64387600      -1.25642400
P       15.88280000       8.22043000      19.07722000       0.50501300       0.48525400       0.36352300
P       15.21859000       8.46629000       1.16954000      -1.55274500      -1.30014600       0.92851200
P       16.66962000       9.81720000       0.51460000       3.89783400      -0.32209300       0.22684000
P       13.25813000      17.81435000      19.13741000      -1.12667800       1.65322800       0.15472200
P       12.77214000      19.81500000       0.39684000       0.61075300      -1.19025900      -0.62159600
P       13.48293000      19.97332000      18.30985000       0.05544500      -0.85672800      -0.04227400
P       14.82597000      19.10603000      19.83420000       0.34585000       0.69646700       0.10827200
P       14.54026000      17.85350000       6.03538000      -1.45170000      -2.16916600       1.92021200
P       13.79734000      17.66802000       8.16132000      -0.01816900      -0.32905700      -0.32525500
P       14.46325000      15.72216000       7.22042000      -0.03441900       1.95317000      -0.49376900
P       12.54450000      16.65788000       6.62975000       1.18390300       0.87458400      -0.20052300
248