2
Lattice="20.0 0.0 0.0 0.0 20.0 0.0 0.0 0.0 20.0" Properties=species:S:1:pos:R:3:forces:R:3 energy=-8.09821012 cutoff=-1.0 nneightol=1.2 pbc="T T T"
P       10.85000000      10.00000000      10.00000000      11.14611120      -0.00000000      -0.00000000
P        9.15000000      10.00000000      10.00000000     -11.14611120       0.00000000       0.00000000
2
Lattice="20.0 0.0 0.0 0.0 20.0 0.0 0.0 0.0 20.0" Properties=species:S:1:pos:R:3:forces:R:3 energy=-8.90907537 cutoff=-1.0 nneightol=1.2 pbc="T T T"
P       11.00000000      10.00000000      10.00000000      -2.74304883      -0.00000000       0.00000000
P        9.00000000      10.00000000      10.00000000       2.74304883       0.00000000      -0.00000000
2
Lattice="20.0 0.0 0.0 0.0 20.0 0.0 0.0 0.0 20.0" Properties=species:S:1:pos:R:3:forces:R:3 energy=-8.54395269 cutoff=-1.0 nneightol=1.2 pbc="T T T"
P       11.05000000      10.00000000      10.00000000      -4.40913591       0.00000000      -0.00000000
P        8.95000000      10.00000000      10.00000000       4.40913591      -0.00000000       0.00000000
2
Lattice="20.0 0.0 0.0 0.0 20.0 0.0 0.0 0.0 20.0" Properties=species:S:1:pos:R:3:forces:R:3 energy=-5.2196797 cutoff=-1.0 nneightol=1.2 pbc="T T T"
P       11.35000000      10.00000000      10.00000000      -5.22351669       0.00000000       0.00000000
P        8.65000000      10.00000000      10.00000000       5.22351669      -0.00000000      -0.00000000
2
Lattice="20.0 0.0 0.0 0.0 20.0 0.0 0.0 0.0 20.0" Properties=species:S:1:pos:R:3:forces:R:3 energy=-4.24629717 cutoff=-1.0 nneightol=1.2 pbc="T T T"
P       11.45000000      10.00000000      10.00000000      -4.49777499      -0.00000000      -0.00000000
P        8.55000000      10.00000000      10.00000000       4.49777499       0.00000000       0.00000000
4
Lattice="20.0 0.0 0.0 0.0 20.0 0.0 0.0 0.0 20.0" Properties=species:S:1:pos:R:3:forces:R:3 energy=-20.69437813 cutoff=-1.0 nneightol=1.2 pbc="T T T"
P       11.05000000      10.00000000       9.25753780       2.57325233       0.00000000      -1.81984791
P        8.95000000      10.00000000       9.25753780      -2.57325233       0.00000000      -1.81984791
P       10.00000000      11.05000000      10.74246220      -0.00000000       2.57325233       1.81984791
P       10.00000000       8.95000000      10.74246220       0.00000000      -2.57325233       1.81984791
4
Lattice="20.0 0.0 0.0 0.0 20.0 0.0 0.0 0.0 20.0" Properties=species:S:1:pos:R:3:forces:R:3 energy=-14.37649505 cutoff=-1.0 nneightol=1.2 pbc="T T T"
P       11.45000000      10.00000000       8.97469520      -4.06184984      -0.00000000       2.87199202
P        8.55000000      10.00000000       8.97469520       4.06184984      -0.00000000       2.87199202
P       10.00000000      11.45000000      11.02530480       0.00000000      -4.06184984      -2.87199202
P       10.00000000       8.55000000      11.02530480       0.00000000       4.06184984      -2.87199202
4
Lattice="20.0 0.0 0.0 0.0 20.0 0.0 0.0 0.0 20.0" Properties=species:S:1:pos:R:3:forces:R:3 energy=-16.11107523 cutoff=-1.0 nneightol=1.2 pbc="T T T"
P       11.10000000      10.00000000       8.22218260      -5.23694722       0.00000000      -0.06528202
P        8.90000000      10.00000000       8.22218260       5.23694722       0.00000000      -0.06528202
P       10.00000000      11.10000000      11.77781740       0.00000000      -5.23694722       0.06528202
P       10.00000000       8.90000000      11.77781740      -0.00000000       5.23694722       0.06528202
248
Lattice="19.976754 0.0 0.0 0.0 19.976754 0.0 0.0 0.0 19.976754" Properties=species:S:1:pos:R:3:forces:R:3 energy=-1309.79299151 hash=037673597b5a5224aecf6139a3fe3a65 virial="11.069500413 -1.36242837471 7.41536013391 -1.36242837471 -1.4059170128 7.91921133446 7.41536013391 7.91921133446 -10.468770061" config_type=liq_12_03_01_liqP4 pressure=-3.3666700224670537e-05 uploaded="2020-04-10 10:56:37.867000" hash_structure=49f3c976c73ef3f09aa02d061b94f967 filename=liq_12_03_01_liqP4/liq_12_03_01_liqP4_mbd2.xyz username=gabor stress="-0.0013885235692 0.000170898761376 -0.000930159622012 0.000170898761376 0.000176353840352 -0.000993361143421 -0.000930159622012 -0.000993361143421 0.00131316982952" volume=7972.137210029367 n_atoms=248 free_energy=-1309.79299151 modified="2020-04-10 10:56:37.867000" formula=P248 miguel_caro=T pbc="T T T"
P        1.64329000       0.38142000       1.14750000      -0.03156400      -0.12607000      -0.72844900
P        2.63961000       1.95930000       2.30602000       0.14528600      -0.25201200       0.22178100
P        1.99416000       0.02781000       3.26011000       0.42942500       0.43870100       0.13503100
P        0.50969000       1.50818000       2.63238000      -0.08735000       0.41483000      -0.12401900
P       17.02846000       0.72270000       5.05000000       0.16750700       1.55346900       0.93700200
P       17.18466000      19.78622000       3.14768000      -0.70058000      -0.76756300      -1.25332500
P       17.25015000      18.59460000       5.01856000      -0.19630200      -1.22606400      -0.26061700
P       18.95560000      19.82593000       4.34768000       0.18036200      -0.02909000       1.03740900
P        3.17604000       4.47961000      11.34088000      -0.08906200      -3.36118600      -1.06902200
P        2.94188000       6.50363000      11.43178000      -0.66489300       2.99257800      -0.34029500
P        4.71595000       5.61257000      12.29419000       0.38902200       0.27739200       0.60593200
P        2.70190000       5.33697000      13.25434000       0.49850000       0.29642100       0.27346100
P        0.44738000       0.69317000      12.13588000       1.10842800      -0.79622100      -0.58929300
P        2.77345000       0.89686000      12.22733000      -1.97569300      -0.91755100       0.84367400
P        1.72405000      18.93680000      13.01721000      -0.01171600       0.97624700      -1.14241200
P        1.40554000       0.85197000      14.03189000       0.82813500       0.11744500       0.66957200
P        0.51494000       8.93406000       2.78518000      -1.67077900      -0.75664600      -2.05073100
P        1.49678000       8.70237000       4.61897000       1.70664200      -0.95690200       0.76116900
P        1.45421000      10.59397000       3.67079000      -0.14108500       2.80693900       0.38143200
P        2.70242000       9.17173000       2.66598000      -0.51788900      -1.01581700       0.73427900
P       17.44916000       6.70730000       8.98932000       1.55157600       0.45159900      -0.92563600
P       19.63479000       7.15238000       8.00057000      -1.32017000      -0.80226300       0.44579900
P       18.41485000       8.68971000       8.92815000      -0.26930100       0.57467200       0.22589400
P       17.72993000       7.78434000       7.05137000       0.11434800      -0.04353500       0.08615200
P        4.10157000       9.93804000      12.79569000      -0.43850700       0.10726700       0.56840000
P        3.65952000      11.65262000      11.53498000      -0.48526900      -0.32946900      -0.80742600
P        2.63479000      11.53494000      13.43031000       0.92989500       0.89178500       1.68108600
P        2.02828000      10.10692000      12.04614000       0.23932700      -0.56687600      -1.61828200
P        0.58905000       9.49124000      15.11295000       1.30847000      -0.43266800       0.26434000
P        1.82128000      10.92768000      16.34708000      -1.55494900      -1.67531100       0.44728600
P        2.65104000       8.90354000      16.23123000      -1.85053400       0.03565500      -0.93899900
P        0.61233000       8.98365000      17.23407000       1.21536200       1.17903700      -0.28224900
P        5.21643000      14.41193000       4.14368000      -0.06971300      -1.06472200       0.21198200
P        3.97837000      12.65062000       4.78202000       0.09908800       0.19526100      -0.48407800
P        5.27790000      13.63417000       6.22050000       0.88799000      -0.58830700      -0.93142400
P        6.14479000      12.33109000       4.42587000      -0.74796200       1.45310300       0.93538800
P        9.26090000      12.75138000       8.67828000       0.68769600      -0.85652700       0.82261800
P        9.07035000      10.39672000       8.68134000      -0.00692800       1.66876000       0.17180400
P        7.93654000      11.75053000       7.36055000      -0.74413400      -0.57296800      -1.25955800
P        7.45884000      11.69987000       9.46756000       0.06327000       0.17047900       0.42134100
P        0.61441000      16.05060000      15.32643000       2.76690300       1.77004700      -0.43109300
P        0.87884000      14.56160000      13.63118000      -0.92539400       0.36003100       1.16759500
P       19.15919000      14.65465000      15.21172000      -1.45505700      -2.78105700      -0.98307700
P        1.23233000      13.94270000      15.75219000      -0.55679700       0.81182100      -0.47256200
P       19.33456000      13.36810000      18.31147000      -0.97478000       0.11798100      -0.66046300
P       18.85969000      11.19917000      18.62593000       0.50110600       0.40929200      -0.27767800
P       18.35117000      12.65182000       0.17278000      -0.21059800       0.55685000       0.62232300
P        0.49894000      12.26902000      19.71142000       0.42238700      -0.99294500       0.82844000
P        1.90249000      14.75375000       5.71479000       0.26286700      -0.66156900      -0.52432300
P        1.99414000      16.53392000       4.46249000       0.69698700       0.32633300      -1.28315900
P        0.76783000      16.48556000       6.18334000      -1.34353400       0.97702600       1.33306700
P        0.14581000      15.31016000       4.45060000       0.36196700      -0.11998500       0.09015600
P        0.51588000      10.86857000       8.13386000      -0.05817900      -0.41762900      -1.24176500
P        0.23694000      12.45744000       9.49979000      -0.31086600       0.78168600       1.71635500
P        0.45883000      13.03050000       7.44006000      -0.07777100      -0.78673900      -0.31852300
P        2.18454000      12.20640000       8.55812000       0.17681700       0.20047000      -0.08759200
P        3.99100000      14.59929000       9.29283000       0.67084000      -0.40824900       0.34969600
P        4.13073000      16.58600000      10.29626000      -0.58325700      -0.34635700      -0.16327100
P        2.16828000      15.71741000       9.55528000      -0.55841900       0.32548900       1.06300700
P        3.62810000      16.40581000       8.16818000       0.61144600       0.72257200      -1.04043800
P       19.95871000      17.22002000      17.87824000      -0.09830700      -0.11237700       0.01578200
P       19.05764000      18.21415000      19.60746000      -0.27633200       0.18210100       0.03333500
P       17.79531000      17.77857000      17.83670000      -0.17989800      -0.73353900       0.23391900
P       19.29633000      19.30198000      17.70330000       0.63792400       0.59925200      -0.00654200
P        2.73416000       5.59307000       0.82566000      -0.02659400       0.23567900      -1.35702500
P        1.92983000       5.05751000      18.69710000      -0.37451800      -0.02948900       1.15553100
P        2.87907000       6.96653000      18.97214000       1.47398000       0.29528800       0.43059500
P        1.02615000       6.70150000      19.96163000      -0.95850500      -0.68105200       0.06211200
P        7.73398000       3.36794000       0.63358000      -0.71809600       1.27148600       0.52584000
P        7.98553000       1.80320000       2.02586000       0.30321900      -1.48008000       0.81292800
P        5.97057000       2.19201000       1.25374000      -0.04496500      -0.24447300      -0.09238000
P        6.81723000       3.46419000       2.83786000       0.56136800       0.31516000      -1.33281900
P        6.76643000       0.46252000      10.13335000      -0.37646200      -1.44612300      -0.59841900
P        8.04156000       2.16732000       9.89215000      -0.14308400       0.48396400       0.24610400
P        6.14095000       2.26490000      11.06263000      -0.03192700       1.01021800       0.07819800
P        6.09067000       2.14664000       8.82859000       0.26176300      -0.35840900       0.71674500
P        5.55394000       2.66064000      16.84224000       0.11772900       0.02167800       0.95677300
P        4.30990000       3.92371000      15.54439000       0.03597800      -2.26732000       0.07673500
P        3.50512000       1.87260000      16.41702000       1.17632800       1.14887400      -0.66702700
P        5.17592000       1.82711000      14.89227000      -1.02476200       0.98290200       0.00835400
P        7.30624000       8.07718000       2.44915000      -0.77225600       0.31829000       1.84208300
P        6.25740000       6.71527000       3.90979000      -0.26122300       1.49669600      -0.34563100
P        5.42696000       8.87731000       3.57866000       2.17093400      -1.53811900       0.26364500
P        7.35151000       8.46167000       4.76587000      -0.47907100      -0.12721000      -1.60338200
P        4.13918000       3.69492000       5.26675000       0.11259100       0.89971400       0.09334100
P        2.03571000       3.95402000       5.71841000       0.32926900       0.95529400       0.90717800
P        3.15003000       5.73636000       5.07487000       0.26491200       0.06063100      -1.66290400
P        3.67319000       5.05178000       7.00337000      -0.66476400      -1.41601800       0.29330800
P        8.68913000       4.90835000      16.35253000      -0.65296700      -0.10173000       1.15814800
P        7.51206000       5.36646000      14.54829000      -1.47536300       1.37703500       0.60575800
P        9.30004000       4.34105000      14.39819000       2.49225600       0.08793000      -0.85061500
P        9.33096000       6.61009000      15.13942000      -0.31956900      -1.61820700      -1.05319300
P        7.16990000       6.48078000      18.87601000       0.11249000      -0.53262600       1.31861100
P        6.15178000       8.48828000      19.19123000       1.09206600      -0.58358100      -0.06666400
P        6.21107000       7.47404000      17.29040000      -2.59134000      -0.42395200      -2.13271800
P        8.04138000       8.21182000      17.90826000       0.79354400       1.31346900       1.16563800
P        3.83412000       8.43516000       8.93342000      -0.30596100       0.86349600      -0.54259400
P        4.79358000      10.50030000       8.50638000      -0.49607600      -0.55774300       1.07392200
P        5.26505000       8.83708000       7.27889000      -0.10365000      -1.02210000      -1.33917500
P        5.93857000       8.72553000       9.31083000       0.37515700       0.69576500       0.47248500
P       11.77616000      13.75425000      11.93733000      -1.72303500      -1.06615800      -1.62128600
P       13.15192000      15.24768000      12.30894000       2.52562400       1.22115800       0.49494600
P       11.79697000      14.55384000      13.89715000      -0.13518900       1.21546100       0.45747300
P       11.13209000      15.92719000      12.16285000      -0.51927800      -1.09693600       0.66611600
P        8.87637000      11.00148000      14.37258000       0.00384900       0.75451000      -0.37064500
P        9.19614000      11.29348000      12.20638000       0.81954900      -3.13136100      -1.82805300
P        8.92220000      12.97900000      13.26668000      -0.71664600       2.15045700       2.25837300
P        7.22028000      11.60106000      13.02682000      -0.34024300       0.03250100       0.20413400
P        5.83459000      12.67755000      16.95627000       0.81399000       1.92470900      -0.83080600
P        5.66884000      11.69018000      18.84261000       0.17192100      -0.90126300      -0.00782400
P        5.13243000      10.68523000      16.82838000      -0.09206400      -0.39841400       1.05843900
P        3.86476000      12.25604000      17.76968000      -0.24310700       0.11407100      -0.01876700
P        5.19216000      19.34027000       3.60936000       0.09093200       0.28683400       1.68266400
P        6.43537000       0.58038000       5.08442000      -0.83289400      -1.65953600      -0.18761600
P        6.61213000      18.27224000       4.92315000      -0.40437500       1.00952300       0.31736200
P        4.78975000      19.18611000       5.93637000       1.20310900       0.27933800      -1.84576100
P        2.26263000       0.17234000       8.71754000      -0.71206500       0.87366000      -1.50332700
P        1.71067000       2.33183000       8.37457000       0.45149600      -0.16022900       0.33973600
P        1.80468000       1.09361000       6.55377000       1.19170200      -0.68538600       0.81046300
P        0.24218000       0.80508000       7.96993000      -1.00619500      -0.69097100       0.84573800
P        3.71839000      16.03608000      14.34792000      -0.49872500       1.69492600       0.14068900
P        5.32005000      17.34985000      13.47826000      -0.30351800       0.31524700       0.12583700
P        5.72236000      15.76555000      14.88826000       1.82094300      -0.43267600       0.88007800
P        4.89401000      17.67311000      15.68305000      -0.57445200      -1.31516800      -1.67357300
P        3.51595000      17.13109000      19.79319000      -1.36111700       0.81438100      -0.76986300
P        2.78304000      15.09152000      19.46395000       1.02714700       0.07628400      -0.28562600
P        4.87563000      15.84896000      18.83720000       0.00192800      -1.61020600      -0.36733000
P        3.07902000      16.25690000      17.56696000       0.21330000       0.62846000       2.09269000
P       11.98881000       4.03069000      18.95728000       0.18174700      -0.38164500       1.18640500
P       11.10032000       4.41918000       1.09083000      -1.12787000      -1.30931700      -0.61130900
P       10.70450000       5.72026000      19.30659000      -0.44548600       0.62051600       0.40180500
P       12.62353000       5.64889000       0.38467000       1.51496900       0.89811500      -0.96814700
P       13.02143000       2.36876000       8.90080000      -1.25380800      -1.05976000      -0.07956900
P       13.86712000       0.44484000       9.45809000       0.42666500      -0.33890700      -0.16255000
P       13.28274000       0.81701000       7.35097000       1.74460800       0.48926000      -1.08251000
P       11.81068000       0.33153000       8.73697000      -1.22322000       0.73044100       1.29373700
P       10.75770000       1.11478000      13.21972000      -0.33513000      -1.10827500       0.38272000
P        9.20888000      19.46579000      12.89551000       0.58739300       0.58795600      -0.54272300
P       11.14277000      18.88195000      13.69794000       0.22917700       0.77456200       0.05590500
P       11.08320000      19.63349000      11.61690000      -0.67234400      -0.37563000       0.25362200
P        8.27749000       0.58646000      16.06662000       0.26033500      -0.72982300       0.93980700
P        7.22481000      19.14336000      17.46256000       1.13066400       0.43729000      -0.34329900
P        8.62966000       0.68502000      18.27791000       0.16612700      -0.54637800      -0.68561700
P        9.49221000      18.90840000      17.08722000      -1.46591500       1.36828400       0.19418600
P       10.74286000      10.58111000       3.69632000       0.55086800       0.46416200       1.46689400
P       10.70087000      11.31773000       5.94250000       0.16867900      -0.55052600      -1.07443900
P       10.21078000      12.61738000       4.24989000      -1.37450800       0.78247900      -0.19725200
P       12.23350000      12.08036000       4.55460000       0.81796200      -0.86849700      -0.29544200
P       10.17682000       2.50646000       6.44656000      -0.58291700      -1.14134300      -0.32842400
P       10.13802000       4.60326000       6.07847000      -1.00574700       0.82100600      -0.92144300
P        9.80849000       3.86506000       8.06260000      -0.69611500       0.16794000       0.52594300
P        8.13603000       3.53057000       6.55050000       1.96171800       0.25592100       0.14685200
P        9.30817000       5.80890000      10.80950000       1.59891400      -1.14032400       1.40587100
P        8.16562000       7.62784000      11.02044000      -0.31471900      -0.27716000      -0.11749800
P        7.43027000       5.85147000       9.82653000      -0.00102900       1.18500900      -0.51705100
P        9.22874000       7.13989000       9.13755000      -1.13898800      -0.12128300      -0.27312000
P       11.72442000       9.28094000      15.12078000       0.58339100      -0.86501800      -1.29555800
P       13.03865000       9.01721000      16.89206000       1.60866100      -2.88682600      -0.13535800
P       10.83741000       8.71558000      17.01322000       0.85820700       1.16730100       0.32300500
P       12.00357000      10.72664000      16.62717000      -2.32548900       2.51284700       0.79067900
P       11.24424000      11.77879000       0.81499000      -1.23276700      -0.50146800      -0.66380500
P       10.04867000      11.58610000      18.87909000       0.41204500       1.13283500      -0.97744600
P        8.99144000      11.71371000       0.76187000      -1.18048900       2.38683300       1.38891500
P        9.98878000       9.99944000       0.27280000       1.55644500      -2.85054200       0.37274600
P       12.95688000      11.84987000       8.38161000      -0.51451800      -0.06063400       0.75467200
P       13.51693000      11.67645000      10.57495000      -0.44780700       0.42765400      -0.11525100
P       14.33542000      10.36196000       9.11110000       2.21186500      -1.01292900      -0.62998000
P       12.31667000      10.08307000       9.63299000      -1.09484900       0.42274400      -0.00268200
P       17.13584000      18.09664000      13.51044000      -0.67396800      -0.46383000      -0.40214100
P       15.08914000      19.02858000      13.82871000       1.78886900       0.41084100       0.15435800
P       17.14681000       0.12186000      14.28899000      -1.45760600       0.18391900      -0.57465000
P       16.40515000      19.71132000      12.16305000       0.38990600      -0.11675100       0.90160200
P       14.12524000      13.66819000      16.84774000       1.22764500      -1.30833900      -0.55145100
P       15.88236000      13.71997000      15.44607000      -0.08542000      -0.19508400       0.77822200
P       14.48824000      12.05575000      15.27924000      -0.52054600       0.27289000       0.44818500
P       15.84694000      12.07047000      17.02115000      -0.82837200       1.40793600      -0.53423400
P        9.77852000      15.13409000       1.51725000      -0.66075200       1.20273800       0.10172500
P        9.25731000      16.55060000       3.18765000      -0.88777500      -0.48106900      -0.57377200
P        8.20485000      16.78822000       1.12831000       1.06957200      -0.79215600       1.15833800
P       10.32273000      17.29314000       1.48385000       0.53084400       0.17062900      -0.78022200
P        9.94840000      16.70892000       8.69109000      -0.63722500       1.52752000       0.12341300
P        8.81185000      16.84370000       6.83664000      -0.90607600      -0.00312800       0.47404500
P        9.28452000      18.76117000       7.77725000       1.27594900      -0.40227800      -0.07511900
P        7.85154000      17.59097000       8.81664000      -0.15669100      -1.41356600      -0.44387200
P       17.55717000      11.24208000      10.80375000      -0.46032200      -0.76036600       1.48622500
P       18.11832000      11.94254000      12.91279000       3.62027100      -0.18043500      -0.03090800
P       16.14192000      11.83105000      12.57357000      -3.10853700      -1.00826500      -1.42958900
P       17.27144000      13.25090000      11.40982000      -0.02024000       1.88769900       0.05333400
P        8.95214000      15.79320000      15.64460000       1.18443100      -0.21862900      -0.05237100
P       10.16557000      15.68711000      17.59259000       1.73321200       0.36384500      -0.74748100
P        8.88618000      14.05151000      17.03064000      -0.62530400      -0.27326400      -0.26003800
P        8.10904000      16.05819000      17.56378000      -2.08373100      -0.19591400       1.14297700
P       13.90903000       1.65953000       2.92212000      -0.32878100       0.28713200       0.81257200
P       13.61434000      19.50606000       3.33486000      -0.06248100      -0.09626200       0.21151000
P       12.68672000       0.47844000       1.59091000      -1.02601300      -0.05084700       0.72395400
P       11.91669000       0.91092000       3.78260000       1.22838000      -0.08373800      -1.57891700
P       16.52493000       1.92862000       9.51695000       0.65360800       1.81272800      -1.01836200
P       16.78717000       4.03944000      10.23773000      -0.42558400      -0.13917200       2.21022900
P       15.46047000       3.71010000       8.58143000       0.23882300      -0.29894900      -0.32827900
P       17.66199000       3.74958000       8.37637000       0.27923500      -1.48954800      -0.98541600
P       19.40440000       5.17933000      14.21352000      -0.38083600      -1.22163300      -0.23738800
P        0.86853000       3.44421000      14.88724000      -2.10979700       2.48898300       0.97326900
P       18.96783000       4.32381000      16.27125000       2.39002100       0.38362000      -1.64236400
P        0.93289000       5.61285000      15.63806000      -0.56190200      -1.09432500       1.20726300
P       13.93502000       4.47092000      15.90825000      -0.00275300      -1.71043000      -1.42951100
P       13.61420000       2.21790000      15.50356000      -0.26912400      -0.45006000       1.78011500
P       15.40605000       3.16174000      14.78444000       1.01663200       0.49799100       0.51198900
P       13.51947000       3.50588000      13.85656000      -0.80989900       1.67298600      -0.87952400
P       17.89927000       5.57030000       2.14109000      -0.53848300      -1.09146500       0.84408200
P       16.73579000       5.44570000       4.08908000       2.20154700      -0.07320200      -0.47795500
P       19.16674000       5.44081000       3.89391000      -1.38734400       0.12170900       0.95524500
P       17.92744000       3.63711000       3.47592000      -0.08125000       1.41840900      -0.77392900
P       14.08171000       7.26283000       7.20094000      -1.10494100       0.71684200      -0.60336800
P       12.59109000       6.04584000       6.07397000       0.60874800      -0.41667500      -0.31946900
P       11.84062000       8.01328000       6.63869000       1.62466500      -0.99199200       1.41366400
P       12.38189000       6.34588000       8.22487000      -0.44419900       0.81942700      -0.48245300
P       14.42014000       7.31723000      13.77601000      -0.00079800      -0.87866400      -1.23439500
P       15.56497000       7.95436000      11.99692000       1.38999700       0.01842400      -0.13006300
P       13.46193000       8.10145000      11.96368000      -1.33830600       0.06535500      -0.04844200
P       14.39321000       6.10795000      11.70011000       0.01853800       0.83869200       1.33422200
P       17.52910000       1.44282000      19.61721000      -0.95893800       1.60008200      -0.44056000
P       17.97600000       3.67323000      19.53663000      -1.10848500      -1.02931800      -0.26514000
P       16.26589000       2.92394000       0.75578000       0.39979500      -0.13314900       0.13024900
P       16.01732000       2.92963000      18.57910000       1.40110700      -0.67729500       0.10781000
P       14.81238000      15.77428000       1.02041000      -0.43005400      -0.35792400       0.22586200
P       14.58912000      13.97763000       2.36035000      -0.81780400      -0.95703000      -0.82961700
P       14.29556000      15.93753000       3.18657000      -0.58794200       0.89847900       0.03769300
P       16.23958000      15.27672000       2.57544000       1.92324000       0.44080100       0.36221500
P       17.79835000      11.29142000       5.24014000      -1.60207500       1.08262500       1.49203500
P       15.88502000      10.67248000       6.30780000       0.56040400       0.90082100      -0.74724900
P       15.93286000      12.62541000       5.12384000       0.70322800      -1.06563100       0.85520800
P       16.91016000      12.45754000       7.15999000       0.37019400      -0.88857400      -1.73607300
P       15.82652000      15.84806000       9.40893000       2.23204500       1.30123000      -0.49014300
P       17.86154000      16.12797000       8.22833000      -1.08412500      -0.47999900       0.66155900
P       17.68103000      16.76675000      10.35139000      -0.64056300       0.28375900      -1.01167700
P       16.61996000      17.89468000       8.62372000       0.05214000      -1.08118000       1.30320800
P       14.97693000       8.86982000      19.92346000      -0.62991200       0.19102200       1.51489000
P       15.16643000       8.56995000       2.17978000       1.04335400      -1.76901700       0.16926400
P       13.16844000       8.65151000       1.32965000       0.75860600       0.85873700      -0.53854200
P       14.55600000      10.44896000       1.51837000      -0.99528100       0.75413900      -1.04744100
P       13.54038000      18.04648000      18.88075000       0.20305900       1.39815100      -1.88374200
P       13.13861000       0.25123000      18.30013000       1.03770200      -1.96599800      -1.09103600
P       12.75502000      18.56324000      16.75047000       1.22993100       0.54726200       1.68742000
P       14.95222000      19.06501000      17.27024000      -2.60455500       0.08609800       1.27660600