2
Lattice="20.0 0.0 0.0 0.0 20.0 0.0 0.0 0.0 20.0" Properties=species:S:1:pos:R:3:forces:R:3 energy=-6.90838682 cutoff=-1.0 nneightol=1.2 pbc="T T T"
P       11.20000000      10.00000000      10.00000000      -5.87615798      -0.00000000       0.00000000
P        8.80000000      10.00000000      10.00000000       5.87615798       0.00000000      -0.00000000
2
Lattice="20.0 0.0 0.0 0.0 20.0 0.0 0.0 0.0 20.0" Properties=species:S:1:pos:R:3:forces:R:3 energy=-6.32454228 cutoff=-1.0 nneightol=1.2 pbc="T T T"
P       11.25000000      10.00000000      10.00000000      -5.77225537       0.00000000       0.00000000
P        8.75000000      10.00000000      10.00000000       5.77225537      -0.00000000      -0.00000000
4
Lattice="20.0 0.0 0.0 0.0 20.0 0.0 0.0 0.0 20.0" Properties=species:S:1:pos:R:3:forces:R:3 energy=-20.79612543 cutoff=-1.0 nneightol=1.2 pbc="T T T"
P       11.15000000      10.00000000       9.18682720      -1.67624935       0.00000000       1.18527603
P        8.85000000      10.00000000       9.18682720       1.67624935       0.00000000       1.18527603
P       10.00000000      11.15000000      10.81317280      -0.00000000      -1.67624935      -1.18527603
P       10.00000000       8.85000000      10.81317280       0.00000000       1.67624935      -1.18527603
4
Lattice="20.0 0.0 0.0 0.0 20.0 0.0 0.0 0.0 20.0" Properties=species:S:1:pos:R:3:forces:R:3 energy=-9.916754 cutoff=-1.0 nneightol=1.2 pbc="T T T"
P       11.65000000      10.00000000       8.83327380      -3.28639195       0.00000000       2.32374724
P        8.35000000      10.00000000       8.83327380       3.28639195       0.00000000       2.32374724
P       10.00000000      11.65000000      11.16672620       0.00000000      -3.28639195      -2.32374724
P       10.00000000       8.35000000      11.16672620      -0.00000000       3.28639195      -2.32374724
4
Lattice="20.0 0.0 0.0 0.0 20.0 0.0 0.0 0.0 20.0" Properties=species:S:1:pos:R:3:forces:R:3 energy=-18.40218818 cutoff=-1.0 nneightol=1.2 pbc="T T T"
P       11.10000000      10.00000000       9.42218260       4.96125521       0.00000000      -7.48111364
P        8.90000000      10.00000000       9.42218260      -4.96125521       0.00000000      -7.48111364
P       10.00000000      11.10000000      10.57781740      -0.00000000       4.96125521       7.48111364
P       10.00000000       8.90000000      10.57781740      -0.00000000      -4.96125521       7.48111364
4
Lattice="20.0 0.0 0.0 0.0 20.0 0.0 0.0 0.0 20.0" Properties=species:S:1:pos:R:3:forces:R:3 energy=-19.09725799 cutoff=-1.0 nneightol=1.2 pbc="T T T"
P       11.10000000      10.00000000       8.97218260      -1.26562246       0.00000000       3.06182844
P        8.90000000      10.00000000       8.97218260       1.26562246       0.00000000       3.06182844
P       10.00000000      11.10000000      11.02781740      -0.00000000      -1.26562246      -3.06182844
P       10.00000000       8.90000000      11.02781740      -0.00000000       1.26562246      -3.06182844
248
Lattice="19.577111 0.0 0.0 0.0 19.577111 0.0 0.0 0.0 19.577111" Properties=species:S:1:pos:R:3:forces:R:3 energy=-1310.13427812 hash=4bc068354c7e0ac46aabe6d5394a67ac virial="-22.3820422846 4.77856345205 -10.971851059 4.77856345205 -12.0118786678 -7.89218357075 -10.971851059 -7.89218357075 5.6096770135" config_type=liq_12_03_01_liqP4 pressure=-0.0012787562287043448 uploaded="2020-04-10 10:56:37.921000" hash_structure=43c6885f842ce4cccfd1f4be8a6457e1 filename=liq_12_03_01_liqP4/liq_12_03_01_liqP4_mbd2.xyz username=gabor stress="0.00298300445653 -0.000636871108187 0.00146229196556 -0.000636871108187 0.00160090340023 0.00105184408393 0.00146229196556 0.00105184408393 -0.000747639170644" volume=7503.187678979971 n_atoms=248 free_energy=-1310.13427812 modified="2020-04-10 10:56:37.921000" formula=P248 miguel_caro=T pbc="T T T"
P        1.20759000       0.46672000      19.22911000       1.76530700       0.39405500      -2.22531100
P        2.95215000       1.02081000       1.16347000      -0.31641100       0.11009100      -1.16864700
P        1.70616000      18.83212000       1.32034000      -0.70676300      -0.25753600       1.07183600
P        0.80677000       1.36470000       1.46699000      -0.38306500      -0.11815700       2.05917300
P       16.32430000       1.25370000       5.41599000      -0.85607100      -0.25289800      -0.26502000
P       16.26024000      19.27944000       3.74432000      -0.44873800       0.90393000      -0.14711100
P       17.64350000      19.10984000       5.35356000       0.71823400      -1.23686800       1.62300300
P       17.94761000       1.12911000       3.99258000       0.35798600       0.60651600      -1.08490400
P        2.99970000       6.46959000      11.85654000      -1.11030800       0.76612000      -0.74891100
P        1.08490000       5.55594000      12.88266000       0.33681800       1.06135700      -1.48532300
P        3.07441000       5.04087000      13.39948000       0.96186600      -1.71810300       0.45433000
P        2.32829000       4.44737000      11.32495000      -0.13138800       0.16984900       1.34175300
P       19.31787000      19.27645000      11.73511000       1.59616600       0.14387600       1.73353400
P        1.66981000       0.54017000      12.95568000      -2.15184000      -1.84792000      -0.64887700
P        1.44876000      17.98549000      12.15416000       0.38144900       0.22352200       0.96002800
P        0.11887000      18.61419000      13.89930000       1.34698900       0.54213200      -1.69263900
P        1.21946000       8.18785000       4.88441000      -0.27746500       0.55948300       0.04951500
P        2.56106000       9.74793000       4.12576000       0.72490400      -0.22939500      -0.55555600
P        0.56623000      10.34333000       4.65324000      -0.52863600      -0.67462200       0.12840400
P        0.86116000       9.03789000       2.87500000       0.16366400       0.13514100       0.21128700
P       18.49144000       8.11203000       9.91675000       0.43744000      -0.36005500      -0.11529500
P       18.42402000       7.55113000       7.78578000       2.46406700      -0.59193800      -1.40481000
P       16.67662000       7.79157000       8.79572000      -2.78086200       0.16486000       1.26972100
P       17.90517000       6.03273000       9.31575000      -0.00920000       0.44369000      -0.04012100
P        4.10217000       8.67147000      14.02539000      -0.29266200       0.04896200       1.00916900
P        4.06078000       9.75717000      12.20016000       0.39941000      -0.52971600      -2.54689800
P        3.61724000      10.82980000      13.91839000       0.11945100       1.42857300       2.05939800
P        2.17349000       9.39257000      13.24024000      -0.57334500      -0.37149600      -0.26149600
P       19.22384000       7.97765000      15.76723000       1.27278800       0.34689200       0.35264100
P        0.33203000       9.57332000      17.21881000       0.86421900       0.05888700      -0.95602800
P        1.37214000       7.55487000      17.28416000      -1.29694400       0.81790900      -0.71627900
P       18.82564000       7.88913000      17.88581000      -0.49872500      -1.15172400       0.90541200
P        5.44768000      14.06245000       2.87580000       0.15526900      -0.08060400      -1.00173800
P        4.16252000      13.50625000       4.52409000      -0.50811000      -0.32787300       0.45036300
P        6.03502000      14.56194000       4.88398000       0.37859600       0.16327400       0.59654100
P        6.07674000      12.45490000       4.26059000       0.08552300      -0.03639600      -0.20717500
P        9.34443000      13.18489000       8.72248000       0.12700700      -0.07817900      -0.34397900
P        9.43840000      11.31030000       7.57313000       0.09146900      -0.13509700       0.04849900
P        9.97235000      13.20045000       6.56824000      -0.37552500       0.00182000       0.44204100
P        7.86998000      12.76592000       7.11849000       0.00150000       0.21918600       0.04097200
P        2.20201000      15.46768000      15.80204000      -0.57602700      -1.55773600       0.22925200
P        1.48332000      13.98511000      14.23602000      -0.71154100       0.94594400       1.76334700
P        0.02467000      15.02443000      15.86699000       0.66542400      -0.38865000      -1.49601600
P        1.30652000      13.37052000      16.41962000       1.05996100       0.72294700      -0.65248400
P       18.67486000      12.14826000      18.60677000       0.85782200       1.13824300       0.68056500
P       17.73929000      13.39991000       0.58735000       1.18335600      -0.44840800       0.34454600
P        0.41067000      13.75762000       0.31552000      -1.81262800      -1.77597000      -0.57712100
P       19.23412000      11.73624000       1.12032000      -0.36245500       1.24172200      -0.24503500
P        1.55834000      15.38876000       4.48341000      -1.62909200       1.16821300      -0.01154100
P        0.91478000      17.57625000       4.06983000      -1.18840000      -2.43556100       0.71741400
P       19.08253000      16.09004000       5.37905000       2.04119200       0.48292600      -1.33073800
P       19.32641000      15.79192000       3.17715000       0.87549300       0.70547900       0.76604300
P        0.91500000      10.25762000       8.57996000      -1.27317500       1.46036100      -0.66515100
P        0.70366000      12.18585000       9.61939000       0.19092100       0.34526100       0.40474600
P       18.50076000      11.59689000       8.47454000       0.38081600      -1.20927900       0.51850900
P        0.68496000      12.23264000       7.42754000       0.76201400      -0.35656500      -0.01933600
P        4.40146000      13.93186000       8.45649000       0.69612500      -1.45439500       0.75208100
P        4.76558000      16.01707000       8.14322000      -1.66440600       0.11267400      -0.55918000
P        3.44947000      15.39687000       9.81561000       0.18469400      -0.23855400       0.07867900
P        2.65342000      14.95118000       7.81289000       0.26465800       1.18740300      -0.30128400
P       19.19467000      17.66206000      16.85666000      -0.73602900       0.05242600       1.78772700
P       18.70213000      17.70638000      19.20227000      -0.48520300      -0.57774200      -1.79793000
P       17.01875000      17.70474000      17.61774000       1.40392900       0.23920500       0.22273600
P       18.42974000      19.43854000      17.88312000      -0.80636000       0.25772000       0.03205600
P        2.83960000       6.24026000       0.58661000      -1.49765200       0.00826700      -0.59513500
P        0.53148000       6.10144000       0.66778000      -0.08138700       1.41684900       0.15196700
P        1.77142000       4.70534000       1.70154000       0.21071800      -1.06446800      -0.16635600
P        1.60262000       4.74148000      18.97958000       0.94860800      -0.25889200       0.97418700
P        6.58521000       2.91621000       0.54653000      -0.64249300       1.15129200       0.91602400
P        6.26863000       3.97255000       2.56309000      -0.08354000      -0.33459200      -0.82547500
P        4.53594000       3.53549000       1.24019000       0.20412800      -0.92312600       0.28440300
P        5.88854000       5.08169000       0.68103000       0.98695400      -0.00463700      -0.14853500
P        5.00976000       1.53363000       9.28184000       0.43674100       0.75672800      -0.45948400
P        6.84461000       2.23342000      10.38930000      -0.20337800      -1.23831000       0.17413800
P        4.91754000       1.48579000      11.42395000       0.95356600       0.18612200       0.52220100
P        5.09892000       3.44896000      10.46050000      -0.94753200       0.24749200      -0.38683900
P        4.83705000       2.30368000      14.81588000       0.26327900       0.20672600       1.03370100
P        4.21037000       0.89189000      16.37923000      -0.74814800      -1.79548400      -0.45102000
P        3.09504000       2.73167000      16.07602000      -0.77702600       0.18768800      -0.17201600
P        5.00777000       2.68598000      17.09293000       0.99597700       1.31928300      -0.39238000
P        8.16548000       6.87204000       3.85548000      -1.02721700      -0.58440400      -2.10631100
P        6.30600000       7.28556000       4.99655000      -0.28390200      -0.20293900      -0.57261500
P        6.74835000       8.75999000       3.35918000       1.55832900      -1.16051900       1.34552300
P        8.12797000       8.38905000       5.24353000      -0.30490100       2.38774600       0.51806600
P        3.54671000       4.86822000       4.98944000      -0.20898300      -0.54724300       0.68348900
P        1.54348000       4.22999000       5.73464000       1.36163800       0.08441200       0.77890500
P        3.20213000       4.93130000       7.20324000      -0.77754900      -0.29431000      -0.96197300
P        3.36797000       2.96118000       6.20497000      -0.37763300       0.99572800      -0.53131600
P        8.38728000       6.59572000      14.59493000      -0.04442000      -0.47656600       0.22856900
P        7.11426000       4.72169000      14.59846000      -0.36830900       0.34082400       1.73776000
P        7.91806000       5.43995000      12.81067000       0.07662300       0.58758700      -1.52125100
P        6.32652000       6.67476000      13.81801000       0.62399400      -0.91124300      -0.29977200
P        7.51957000       8.74373000      17.19978000      -0.92907000       0.47703400       0.25149100
P        6.46419000       8.34316000      19.18118000       0.31494700      -0.03811000      -1.12532500
P        7.31984000       6.73259000      17.90985000      -0.35350400      -0.56113600       0.30491200
P        5.46350000       7.78924000      17.24403000       0.97235900       0.11946000       0.48997500
P        4.25043000       8.43580000       8.25582000      -0.21775200      -0.01941800       0.22265900
P        3.60195000      10.24212000       7.13257000       1.54284000      -0.50364500       0.13592900
P        5.85937000       9.49431000       7.23131000      -0.52664900       0.20349100      -1.20643700
P        4.93692000      10.42630000       8.89449000      -0.70932400       0.48379500       1.07877800
P       12.43495000      15.31320000      10.32281000      -1.83299300       1.03173800       0.68762000
P       10.83389000      15.25987000      12.13599000       0.68589300      -0.59324800      -1.10707700
P       12.28552000      16.86742000      12.04433000       0.76371100      -0.82362100      -0.68915300
P       13.00012000      14.72122000      12.26330000      -0.04284300       0.35910800       1.59277900
P        8.72585000      12.79476000      12.81529000       0.08124100      -0.89070300       0.14172300
P        7.79326000      10.95243000      13.69435000       0.13921800       0.28251400      -0.95097400
P        9.95711000      10.94664000      13.31488000      -0.63883600       0.81716800      -0.87166000
P        8.58795000      10.98848000      11.53147000      -0.31396300      -0.01439600       1.08831700
P        4.28048000      13.28933000      18.51043000       0.49833700       0.05001400      -0.58724600
P        5.88899000      11.83569000      19.02480000      -1.55158600      -0.75343700      -0.33477200
P        5.53809000      12.28845000      16.92882000       0.70705800       1.42695300      -0.70852500
P        3.87799000      11.27178000      17.73097000       0.37325500      -0.66712900       1.70844100
P        5.39244000      17.63784000       4.49189000      -1.70833400      -1.32546600       0.47257100
P        6.82360000      18.97529000       3.84522000       1.37266700       1.68580200      -0.33020100
P        4.98447000       0.18377000       4.86045000       0.53116100      -0.03729100      -0.10669600
P        4.91127000      18.97911000       2.77703000      -0.03532600      -0.13346600       0.82040500
P        2.66080000      18.75679000       8.19316000      -0.17813700       0.16012900      -0.48016700
P        1.29262000       0.59146000       9.12798000       0.33224300       1.46751300       0.75343200
P        1.35016000       0.53216000       6.93051000       0.20694500      -0.61489100       0.37342200
P        0.48301000      18.47392000       8.16661000      -0.42922400      -0.97407900      -0.79209200
P        5.94524000      16.68238000      12.95462000      -1.01161300       1.73742800      -2.14877400
P        6.87550000      17.55994000      14.69049000       0.40043400      -0.31083000       0.49037900
P        6.15667000      15.43463000      14.56367000      -0.46609600      -0.14748500       2.41692800
P        4.70544000      17.26390000      14.80223000       0.97377700      -1.24082700      -1.07566800
P        5.46354000      18.63022000      19.55863000      -0.10458500       2.25558900       1.61814200
P        4.20446000      16.84219000       0.34215000       1.53928300       0.25745600      -1.15264800
P        6.40518000      16.81672000      19.08571000       0.23862500      -1.79195200       0.70035200
P        4.84694000      17.60066000      17.87367000      -1.64508600      -0.95346900      -1.62094400
P       12.53062000       6.27724000      19.43596000       0.87007300      -2.09164900      -0.16247500
P       10.84850000       5.92914000      18.05654000      -0.27937300      -0.00185800       0.84979200
P       10.66512000       6.91460000       0.45609000      -2.33753500       0.23229700       0.62673900
P       10.74797000       4.63359000       0.36866000       1.39589500       2.08644200      -0.86373500
P       11.64494000       0.69875000      10.47123000       0.36642600       1.65425200      -1.32478000
P       10.79002000       1.95010000       8.69306000       0.63469500      -1.54248700       0.13239100
P       12.92776000       1.02134000       8.67634000      -0.80893300      -0.32148900      -0.94945000
P       12.47127000       2.76200000       9.73051000      -0.02669400       1.15313400       2.14348300
P       10.69408000       1.43510000      13.88798000       0.83405300       1.94422500       1.08042200
P        8.55864000       0.97091000      14.26702000       0.59856000      -0.28094200       0.00959200
P       10.13213000      19.00266000      13.74392000      -1.29975800      -0.36594600      -0.85413300
P        9.41643000       1.03440000      12.23505000      -0.41753900      -1.13769400      -0.08168900
P        9.98897000       2.12517000      17.73819000      -0.66853300      -1.72065400       0.12076300
P        7.97160000       1.10221000      17.68381000       0.82366000      -0.40021900      -0.79167800
P        9.20555000       0.88328000      19.42343000       0.60724300      -0.12120000       0.27796400
P        9.88495000      19.33993000      17.60818000      -0.95965700       2.00526100       0.21823500
P       12.72955000       8.93934000       3.96875000      -0.16820600       0.53782500       0.25136600
P       12.56649000      10.92959000       2.99266000      -1.17371300      -0.71851500       0.88235800
P       11.94233000      10.69449000       5.15129000       1.14093900      -0.01448100       0.01154100
P       10.67971000       9.74118000       3.72742000       0.39754600       0.10122200      -1.17344600
P        7.53779000       3.70538000       5.84596000      -0.38511100      -0.32478900      -0.35248600
P        8.58366000       3.94633000       7.75737000      -0.25234800       0.29876400       0.20717300
P        7.05236000       5.47490000       7.10375000       0.08420100      -0.84012900       0.10763900
P        8.97720000       5.34185000       6.08854000       0.01878600      -0.41156700       0.07632800
P        9.68756000       6.58353000      10.68386000      -0.13453700       1.30856700       0.67661500
P        9.53106000       8.74044000       9.68024000       0.16432700      -1.86922500       0.36129400
P        7.95827000       7.15238000       9.42699000      -0.52804600       0.59798500       0.71253200
P        9.88773000       6.78987000       8.59676000       0.77251300       0.75653900      -1.51154700
P       12.73863000       8.35763000      13.66150000      -0.38616800       1.49450900       1.57443100
P       12.99928000      10.54308000      14.30913000      -0.08429000      -1.81347000       0.88837200
P       13.45531000       8.78386000      15.81625000      -1.20200500       0.82352900      -1.81991500
P       11.28536000       9.35028000      15.17218000       1.94830300      -0.46915900      -0.26408800
P       10.83789000      12.11715000      19.48451000      -0.34797800      -1.03838900       0.72308200
P        9.28352000      11.05674000      18.37974000      -1.31733800       0.58736000      -0.38590200
P        9.44625000      10.57019000       0.98890000       0.71996200       0.90525200      -1.30394200
P       10.92636000       9.90807000      19.04683000       0.87220300      -0.10667900       0.70067600
P       12.71941000      11.93752000       8.11197000      -0.30424500      -0.99805100      -0.97485100
P       13.95188000      12.68847000       9.62791000       2.05334900       0.71357400       0.73081900
P       14.31933000      10.56471000       8.96019000      -0.09575300       0.86997200      -0.47172300
P       12.60672000      11.15545000      10.13930000      -1.56733400      -0.93710600       0.99791300
P       16.71830000      19.33986000      13.55643000       0.98084800       1.17138000       0.72296600
P       15.95029000      17.45393000      14.32120000      -0.73944800       0.45027500      -0.13544000
P       14.71089000      19.37645000      14.44754000       0.23864700      -0.92230900      -0.37971100
P       15.15936000      18.42872000      12.47148000      -0.97959700      -0.64284700      -0.15210500
P       14.79299000      12.75192000      17.54272000      -0.91965800      -0.37993600      -0.17006300
P       13.74597000      14.42402000      18.57835000      -0.07529300      -0.50155700       1.80003000
P       13.92160000      14.50331000      16.50615000       1.38000600       0.46989600      -1.28260000
P       15.82741000      14.59871000      17.88023000      -0.44166800       0.80259700      -0.74151600
P        9.70386000      13.89450000       3.01542000      -1.01477900       2.14113600      -0.01394800
P        9.42217000      16.14113000       3.75982000      -0.29972400      -1.37827200      -0.15016200
P        8.46078000      15.56331000       1.80577000       2.53322400      -0.85542600       1.09283700
P       10.86608000      15.59105000       2.22778000      -1.15169600       0.04193800      -0.85911100
P        8.64265000      16.82480000       9.76123000      -1.02455200       0.83485500       0.40753100
P        9.10379000      16.63081000       7.71082000      -0.28470900      -0.55002800      -1.52716500
P        8.98627000      18.63261000       8.48392000      -0.35288300       0.10515400       0.48927700
P        7.03901000      17.47224000       8.18834000       2.19708700       0.01270900       0.62444400
P       16.43984000      11.89539000      12.93489000       0.43603400       1.32740400       0.48429800
P       18.59788000      12.62728000      13.26559000      -0.46486000      -1.17958300      -0.28220700
P       17.48068000      11.31203000      14.71931000       1.19139600      -1.81170600       0.38064700
P       17.15274000      13.37357000      14.64818000      -1.56764700       1.32516500      -0.77198500
P       10.13014000      16.16513000      15.85309000      -0.97086400      -0.78644100       0.12980100
P       10.90375000      14.24186000      16.50722000      -0.42209300      -0.31172600       0.45957800
P        8.99930000      14.20940000      15.37753000       0.47502500       1.16985700       1.05161900
P        9.03229000      15.05065000      17.51284000       0.89974700      -0.12222200      -1.34723300
P       10.31052000       0.99321000       4.60183000       0.62173800      -0.49059500      -0.36001400
P       12.25809000       1.91380000       4.03514000      -0.73274200       0.60511900      -0.04241900
P       10.31559000       2.32596000       2.87269000       1.26829500      -0.55078600       0.15861200
P       11.48172000       0.36830000       2.71999000      -1.14783800       0.43916200       0.62619800
P       15.71108000       2.32605000      10.88685000      -0.54078400      -0.21227900       0.33431600
P       15.85292000       0.71652000       9.33771000       0.68843500       0.54529900       0.62100900
P       17.67510000       1.47073000      10.45463000      -0.12875800      -0.13070000      -0.25670400
P       16.68207000       2.74083000       9.01399000      -0.28048700       0.60065800      -1.12936600
P       18.41445000       3.82858000      16.51588000      -0.01725800       2.21525200       2.00585200
P       17.15303000       3.05082000      15.00323000      -0.99839600      -1.04518700      -0.31250600
P       18.97006000       1.97476000      15.74849000       0.27308300      -0.74731300      -1.32236000
P       19.05681000       3.86863000      14.45443000       0.71968300      -0.84209900      -0.00772000
P       14.21377000       5.28429000      15.36782000      -1.10488600      -0.17169900      -1.12035600
P       11.99901000       5.05168000      15.45576000       0.36128200      -0.57029600      -0.38956000
P       13.29341000       3.41100000      14.62234000      -0.16392600      -0.08635100       0.48868200
P       12.86800000       5.18085000      13.41997000       0.76286100       0.20828600       0.96258800
P       17.62901000       5.56008000       3.46681000      -0.20383000      -0.29310500      -0.13551800
P       16.11868000       4.62597000       4.86356000       1.07096200       1.02530700       0.09063800
P       15.44961000       5.93617000       3.28322000      -0.03552300       0.38776700      -0.45278300
P       16.60607000       6.88190000       4.90403000      -0.14398100      -1.03301800       0.05818800
P       14.10637000       4.78541000       6.97985000      -1.68441100       1.98493400       0.27578600
P       11.97044000       5.87233000       6.61949000       2.45504000      -0.28646100       1.20785900
P       13.90519000       6.99455000       6.43633000       0.08837200      -0.51821200      -0.86504900
P       13.39035000       6.45170000       8.41577000      -0.85185600      -1.26846000      -0.15377100
P       16.57706000       7.28907000      14.59100000      -0.60166900       1.38126100      -0.49940100
P       17.38651000       5.97544000      13.17070000      -0.06539100      -1.76797200      -1.06812500
P       17.47128000       7.98918000      12.51768000      -1.21713700       0.62168800       1.11631400
P       15.39225000       6.92200000      12.69730000       1.72467300       0.39605400       0.29880300
P       15.64315000       1.67308000      19.44340000       0.93932400       0.17480000      -0.48109100
P       16.36680000       3.78913000      19.51566000       1.22137900       0.40257100      -0.98959400
P       15.70576000       2.82085000       1.71253000      -0.66658000      -0.28684900       0.94092300
P       14.28187000       3.33316000       0.09060000      -1.06239000       0.12158000       0.39419000
P       15.23176000      16.17760000       2.00057000       1.93913800       4.08470500      -0.50611400
P       14.68581000      14.30889000       2.33046000      -1.31499100      -2.96314100       2.20572000
P       13.96130000      16.03162000       3.76838000       0.30020700      -1.23299400      -0.62198400
P       16.07790000      15.27995000       3.88766000      -1.04674100      -0.04404100      -1.08672200
P       17.42046000      12.33844000       5.17210000       1.57614800      -1.18500700       0.09956300
P       16.37079000      10.37420000       6.03844000       0.63857100       1.66486300      -0.65662600
P       15.91165000      11.26406000       4.04894000      -0.47748500      -0.07180000      -0.11622800
P       15.46807000      12.43043000       5.87006000      -1.83613200      -0.35826300       0.44870800
P       17.06220000      14.75527000      10.94454000       0.43784800      -0.13843400      -0.91533700
P       15.40200000      15.46008000       9.74220000      -0.34152600      -0.10355900      -0.30013700
P       17.03265000      14.40631000       8.66373000      -0.20363700       0.05416800       0.99884800
P       17.31237000      16.42157000       9.46483000       0.54094800       0.48153400       0.31467600
P       14.49985000      10.44625000       0.22694000       1.54723700      -1.68599100      -0.58697600
P       16.22302000      10.10839000      18.33259000      -0.84770500      -0.96326000       1.55669500
P       14.71590000       8.42248000      18.68970000       1.16290200       1.55003600       1.17838900
P       16.25859000       8.98918000       0.79622000      -1.50370100       0.76935700      -1.76380100
P       12.77038000      17.39879000      19.33526000      -0.33925300       0.04833300       1.36847300
P       12.62348000       0.10642000      19.42795000       1.02087300      -1.77321300      -0.91338500
P       13.26664000      18.44356000      17.57672000       0.38866800       1.43258400      -0.34057600
P       14.66349000      18.59508000      19.31550000      -1.42789200      -0.07945300      -0.20917800
P       14.85494000      17.09587000       6.74837000       1.08795300       0.47898200       0.10016000
P       13.78910000      17.94880000       8.52795000      -0.25697600      -1.62538800      -1.17521300
P       12.98407000      16.16061000       7.17370000      -0.40423700       1.73282000       0.36856300
P       13.13272000      18.42286000       6.48603000      -0.41840000      -1.26633600       0.00165800
248