2
Lattice="20.0 0.0 0.0 0.0 20.0 0.0 0.0 0.0 20.0" Properties=species:S:1:pos:R:3:forces:R:3 energy=-8.05161854 cutoff=-1.0 nneightol=1.2 pbc="T T T"
P       11.10000000      10.00000000      10.00000000      -5.33640037       0.00000000      -0.00000000
P        8.90000000      10.00000000      10.00000000       5.33640037      -0.00000000       0.00000000
2
Lattice="20.0 0.0 0.0 0.0 20.0 0.0 0.0 0.0 20.0" Properties=species:S:1:pos:R:3:forces:R:3 energy=-3.8152092 cutoff=-1.0 nneightol=1.2 pbc="T T T"
P       11.50000000      10.00000000      10.00000000      -4.12458305      -0.00000000      -0.00000000
P        8.50000000      10.00000000      10.00000000       4.12458305       0.00000000       0.00000000
4
Lattice="20.0 0.0 0.0 0.0 20.0 0.0 0.0 0.0 20.0" Properties=species:S:1:pos:R:3:forces:R:3 energy=-16.75202848 cutoff=-1.0 nneightol=1.2 pbc="T T T"
P       10.95000000      10.00000000       9.32824860      11.69583552       0.00000000      -8.27011405
P        9.05000000      10.00000000       9.32824860     -11.69583552       0.00000000      -8.27011405
P       10.00000000      10.95000000      10.67175140      -0.00000000      11.69583552       8.27011405
P       10.00000000       9.05000000      10.67175140       0.00000000     -11.69583552       8.27011405
4
Lattice="20.0 0.0 0.0 0.0 20.0 0.0 0.0 0.0 20.0" Properties=species:S:1:pos:R:3:forces:R:3 energy=-2.07505244 cutoff=-1.0 nneightol=1.2 pbc="T T T"
P       11.10000000      10.00000000       9.72218260      30.82435744       0.00000000     -12.43426088
P        8.90000000      10.00000000       9.72218260     -30.82435744       0.00000000     -12.43426088
P       10.00000000      11.10000000      10.27781740       0.00000000      30.82435744      12.43426088
P       10.00000000       8.90000000      10.27781740       0.00000000     -30.82435744      12.43426088
4
Lattice="20.0 0.0 0.0 0.0 20.0 0.0 0.0 0.0 20.0" Properties=species:S:1:pos:R:3:forces:R:3 energy=-15.81801301 cutoff=-1.0 nneightol=1.2 pbc="T T T"
P       11.10000000      10.00000000       8.67218260      -3.34341405       0.00000000       0.68964195
P        8.90000000      10.00000000       8.67218260       3.34341405      -0.00000000       0.68964195
P       10.00000000      11.10000000      11.32781740      -0.00000000      -3.34341405      -0.68964195
P       10.00000000       8.90000000      11.32781740      -0.00000000       3.34341405      -0.68964195
248
Lattice="20.411166 0.0 0.0 0.0 20.411166 0.0 0.0 0.0 20.411166" Properties=species:S:1:pos:R:3:forces:R:3 energy=-1309.74705157 hash=1cdb0a94739f257ccfa6a6d429df46b3 virial="7.43373672785 -6.34590388497 -10.6795611573 -6.34590388497 -27.905916486 17.4769772395 -10.6795611573 17.4769772395 -27.4029742525" config_type=liq_12_03_01_liqP4 pressure=-0.0018766595149170354 uploaded="2020-04-10 10:56:37.745000" hash_structure=182ce1cd6b7b0654ace377d6c8ab3441 filename=liq_12_03_01_liqP4/liq_12_03_01_liqP4_mbd2.xyz username=gabor stress="-0.000874185768171 0.000746259797127 0.00125588525876 0.000746259797127 0.0032816544267 -0.00205524157403 0.00125588525876 -0.00205524157403 0.00322250988622" volume=8503.612159460992 n_atoms=248 free_energy=-1309.74705157 modified="2020-04-10 10:56:37.745000" formula=P248 miguel_caro=T pbc="T T T"
P        2.60777000       1.05916000      20.39273000      -0.44575500      -0.04494600      -1.09225600
P        2.92494000       1.11988000       2.08210000      -0.62562800       0.10272800       0.96747800
P        1.12992000       0.03570000       1.25635000       0.76820600      -1.28253000       0.18009400
P        1.11349000       2.13168000       1.21214000       0.55177200       1.35282800       0.11852500
P       17.43659000       1.73346000       4.37822000      -1.74911100       1.42187000       1.68347100
P       18.38219000       0.44886000       3.08490000       0.53551200      -2.42946300      -0.00496800
P       17.80789000      20.13960000       5.33570000       1.15444600       1.41037000      -1.96229300
P       19.48087000       1.25749000       4.78975000       0.28495900      -0.66426800       0.60100800
P        3.59375000       3.51590000      12.59304000      -0.90847000       1.49361200      -0.50224700
P        2.45779000       5.22305000      13.55483000       0.37476900      -0.51931900      -1.63745500
P        1.95702000       4.63317000      11.35120000       1.76912000       0.16988000       1.79551600
P        3.97389000       5.64426000      11.91428000      -1.24729000      -1.00009600       0.30223500
P        1.57503000       0.86004000      12.21853000      -0.69840200      -1.35534100       1.25478900
P        2.16324000      19.12673000      12.36900000       0.45279600      -0.60674400      -1.13832300
P        0.56655000      19.59762000      13.71010000      -0.02377000       1.48049600      -0.58833000
P        2.60710000       0.02635000      14.00337000      -0.39221500       0.01097600       0.48249300
P        2.08292000       9.51579000       3.99157000      -1.34891600      -0.38181900      -0.62932800
P        2.37384000      10.31003000       1.99774000       0.26384300       1.00933800      -0.34836400
P        0.92791000      11.30772000       3.41209000       0.73588800       0.79549200      -0.01304000
P        0.36856000       9.55755000       2.31981000       0.39367000      -1.22111800       0.83830400
P        0.39579000       8.50427000       8.86449000      -0.03350900       0.08516800      -1.95059600
P        1.13368000       7.87826000       6.70948000      -0.64571000      -0.01844400       1.51387100
P       19.56757000       8.82999000       6.91853000       0.47151500      -0.52641000       1.19973700
P       19.90864000       6.79165000       7.82760000       0.11517400       0.39005300      -0.65522900
P        3.25885000       9.08701000      14.36226000       0.16390100      -0.64175000       0.25883500
P        4.55000000      10.65800000      13.55397000       1.87456700       0.00204000       0.16909100
P        3.02940000      11.15387000      15.01590000      -0.20346400       0.44494400       0.72411200
P        2.53296000      10.58890000      12.98791000      -1.81659700       0.20150400      -1.13297300
P       18.41865000       9.66965000      17.18528000       1.20494800      -0.44861400       1.67317700
P       19.61362000       9.37262000      19.26400000      -0.77041900       0.81434200      -1.11206400
P        0.23673000       9.39283000      17.29746000      -0.61432200      -0.52793200       0.18507400
P       19.27433000       7.71728000      17.92117000       0.21081500       0.10180100      -0.77898500
P        4.26179000      12.77202000       4.02741000       1.66780400       2.25133400      -0.32314700
P        6.36128000      12.69411000       3.27901000       0.26047100      -0.18135900       0.54765600
P        5.96673000      13.99020000       5.07364000      -0.18187600      -1.66992100       0.71621200
P        5.55865000      14.70886000       3.16277000      -1.81852400      -0.21311500      -1.35236000
P        9.84986000      12.68103000       8.42963000       0.03561600      -0.63371800       0.26053900
P        9.35940000      11.01570000       6.98635000      -0.05982500       0.34116200       0.61216200
P       10.84094000      12.53713000       6.48497000       0.28068100       0.33961900      -0.06177000
P        8.73888000      13.06874000       6.60528000      -0.74650200       0.74621300      -0.39972600
P        2.41582000      15.85811000      16.24919000      -0.17725600       0.94816800      -0.17636400
P        1.36428000      14.37026000      15.05760000      -0.65154900       1.15396200       0.34218200
P        0.53583000      16.56462000      15.10639000       1.13354600      -1.57440900       0.49495200
P        0.42665000      15.25012000      16.91553000      -0.01696100      -0.24681700      -0.58245500
P       19.42784000      12.86818000      19.84302000      -0.47492900      -0.04773200       0.41331400
P       18.97430000      14.18692000       1.20720000       0.60358600      -0.70007900      -0.06732100
P       18.49062000      14.86245000      19.61191000       1.93477800       0.08114100       0.17376600
P        0.38849000      14.49336000      20.33834000      -1.72891700       0.69811500      -0.17059800
P        2.06739000      16.92843000       2.40170000      -0.73305200      -0.59300800      -0.00998000
P        1.48193000      18.37985000       3.86847000      -0.00546500       0.72362000       0.65653100
P        1.36232000      16.25604000       4.42869000      -0.43545900       0.32917900      -0.96462700
P       20.28186000      17.21170000       2.96638000       1.16371900      -0.59524000       0.21337400
P        0.55610000      12.17277000       7.30069000      -1.44437100      -0.59330400       0.44716300
P        0.44547000      12.66027000       9.51291000      -0.00898000      -1.06194800       0.13657800
P       19.68514000      13.92386000       8.19804000      -0.15503300      -0.98318800      -1.12500700
P        1.43509000      13.89851000       8.08831000       1.38033700       2.02275400      -0.03595700
P        5.96663000      15.25339000       9.34709000       1.82071400      -0.61785200       0.58953100
P        4.66242000      16.93433000       9.05425000       0.13584500       0.44040300      -0.16530400
P        3.85677000      15.01254000       9.65744000      -0.90342500      -0.32389000       0.99764800
P        4.62554000      15.22602000       7.67593000      -0.24113200       0.12296800      -1.15565700
P        0.01296000      18.93864000      18.35370000       2.27791900       0.80803800      -0.56749200
P       19.43100000       0.13922000      19.54179000       0.44412300       0.13337300      -0.24089300
P       18.50240000      18.67869000      19.01423000      -2.73372600      -0.38105400       0.07330900
P       18.90541000      20.24330000      17.41962000      -0.29437600      -0.67115400       0.43888600
P        2.37700000       7.31653000      20.18560000       0.05646000      -0.33336000      -0.99260600
P        1.00535000       5.58184000      20.12741000       0.85450800      -0.09556100       0.54629700
P        3.03645000       5.52436000       0.79350000      -0.73762200      -0.59983800      -0.55030500
P        2.88738000       5.41516000      18.95083000      -0.30636700       0.94078700       1.12321100
P        6.82984000       4.27941000       1.23790000       0.87285600      -2.02507000       0.82307400
P        8.07896000       3.28085000       2.98328000      -0.20278400       1.97507800      -0.35900200
P        6.46648000       2.10388000       2.30242000      -1.34395200       1.91021900      -0.69614800
P        6.00139000       4.29769000       3.22952000       0.80996600      -1.85500500       0.27637000
P        6.09800000       0.17962000       9.96592000      -2.87738400      -2.02851600       0.11834000
P        5.54010000       2.29687000       9.46896000      -0.11551400      -0.61154000       0.76241500
P        7.54619000       1.55621000       9.80444000       3.06368000       2.32568600       0.03779000
P        6.23035000       1.70001000      11.57409000      -0.13159400      -0.01216500      -1.07148000
P        4.55006000       1.50155000      15.36806000       1.84812100      -0.02761500      -0.88460300
P        5.46887000       1.17981000      17.33137000      -0.61401100       1.74315300       0.17483400
P        4.79699000       3.35402000      16.40754000      -0.53829900      -0.14572700       2.02906200
P        6.66839000       2.45601000      15.96910000      -0.19181600      -1.28879600      -0.82149000
P        7.06996000       8.41363000       2.39354000      -0.15690800       0.25669500       0.13759300
P        6.68131000       7.27174000       4.23391000      -0.11924500       0.26433300       0.15883400
P        5.02952000       7.77408000       2.88295000      -0.76898300      -1.34305000      -1.01451000
P        5.83237000       9.33452000       4.01616000       1.13921900       0.75970600       0.65684100
P        2.93113000       5.20487000       4.43861000       0.44773200      -1.57162700       0.75189800
P        1.51990000       3.93203000       5.58398000       0.73558000       0.80073500       0.99427100
P        3.47963000       4.84322000       6.59244000      -1.43589400      -0.85320800      -1.07668900
P        3.47806000       3.03028000       5.23342000       0.02158300       1.59056600      -0.51874800
P        6.98533000       5.07913000      14.01116000      -1.94291300       1.49977800       1.48910200
P        9.08834000       5.41274000      13.69334000       0.17506800       0.21931000      -0.54600500
P        7.61430000       5.36295000      11.96935000       0.59307200       0.10071200      -0.00503200
P        8.06986000       3.54942000      13.14424000       1.14292800      -1.28199700      -0.97492900
P        5.12067000       8.66632000      18.52836000      -0.51985500       0.84697800      -0.90170300
P        6.10486000       6.82558000      18.72873000       1.20146100      -1.39300300       0.48948900
P        6.91767000       8.26811000      17.24768000      -0.55685800      -0.21353800       0.30291500
P        5.01980000       7.12640000      16.88842000       0.02595400       0.76437600       0.05656000
P        4.26204000      10.26980000       8.36690000      -0.62230500       0.30677800      -1.11394700
P        5.78281000      11.46328000       7.09821000      -0.76291100      -0.28732300       1.20111300
P        6.05385000       9.34084000       7.48731000       0.15223800      -0.31017000       0.41924000
P        6.15052000      10.73997000       9.21513000       1.10565900       0.26944000      -0.25479700
P       14.72919000      15.85084000      12.16755000       2.51776300      -1.39788000       0.46115100
P       12.90810000      15.56884000      11.17993000      -1.65366400      -0.26353400       0.21908500
P       13.08190000      16.68823000      13.08125000      -1.99686100       2.11193000       0.76197000
P       13.13869000      14.56443000      13.23168000       0.85032200      -0.14715700      -1.22363300
P        9.23407000      12.17191000      12.51523000      -1.17582400      -0.53965600      -1.07284100
P        8.84644000      10.10085000      13.51293000       1.41220800       2.18152200      -0.27675200
P        8.85579000      12.06808000      14.63248000       0.85860200      -0.64662500       0.16110400
P       10.85078000      11.40039000      13.65621000      -1.19778500      -0.90734900       1.14287800
P        5.23210000      14.25624000      17.68040000       0.11090900       0.41990600      -1.40339300
P        5.43743000      13.67068000      19.70398000      -0.18618200      -1.27183900       0.43147000
P        4.96630000      12.08949000      18.04953000       0.33673700       0.95290600       0.92125000
P        3.46386000      13.56346000      18.73557000      -0.32742200      -0.05504000       0.07990100
P        5.93963000      18.07058000       5.78865000       0.04065700       1.35580800      -0.76544500
P        7.54987000      19.00282000       4.59045000       0.39863400      -0.26565900      -0.19446300
P        6.37139000      20.32805000       5.84939000      -1.02011800      -1.05149500      -0.81142500
P        5.48705000      19.33417000       3.90015000       0.43608100       0.14735000       1.76252800
P        1.75793000      18.50782000       7.20820000       0.09654600      -2.11531500      -0.22773600
P        2.79125000      19.02857000       9.12271000      -0.65310500      -0.28920900       0.05893700
P        2.48016000       0.02529000       7.52603000      -0.05660100       2.10227900       0.03811600
P        0.71521000      19.66804000       8.69293000       0.21531300       0.64897800      -0.01781200
P        4.81889000      17.15769000      12.54409000       0.68163400      -1.19278900       0.81652800
P        6.20422000      18.36137000      13.68569000       0.59817800      -0.63430700       0.46473200
P        6.86605000      16.25968000      13.15524000       1.22788400       0.71445100      -2.56537600
P        5.50955000      16.44899000      14.64052000      -2.49998400       1.12293400       1.33264600
P        6.33144000      18.47617000      18.59900000       0.15487100      -0.92428200       1.64818600
P        4.61352000      17.72828000      19.80969000       0.77181400       0.58507200       0.40775000
P        5.96406000      19.40653000       0.18146000      -0.44841500      -1.21978900      -0.38584300
P        6.64816000      17.23798000       0.25024000      -0.66142500       1.46046000      -1.67404800
P       12.05381000       4.11412000       0.89317000      -0.13127000      -0.40574400      -0.64109900
P       12.67642000       6.17389000       0.68865000       2.07304500       0.97237800      -0.54606000
P       11.33059000       5.63916000       2.23668000      -1.46984600       0.20568500      -0.13769400
P       10.73227000       5.69108000      20.37436000      -0.49077300      -0.64220600       1.31884400
P       13.86761000       3.04786000       9.80181000      -1.98458500      -1.42360300       0.51577500
P       12.80850000       0.98694000      10.36669000       0.68285500       1.27243500      -0.46472100
P       12.67505000       1.86834000       8.34210000      -0.14712000       0.18702400       0.10091100
P       11.51388000       2.76655000      10.03660000       1.66462200      -0.06452700      -0.62211200
P       11.47732000       0.17094000      14.39010000       1.13008700      -2.18839500      -0.07218700
P        9.82381000       1.34783000      14.82361000      -0.99951700       1.52166300      -0.17953900
P        9.55685000      20.29637000      13.22448000       0.39625700      -0.52908100       0.22522200
P       10.94471000       1.52676000      12.83389000      -0.69122400       0.95707400       0.52988900
P        9.90266000       1.78734000       0.57498000      -0.22379400      -0.79979600       0.88009500
P        8.47682000       2.26678000      19.45819000       0.14871900      -0.00971800      -0.85815300
P        8.92660000       0.12512000      19.75121000       0.38595400       0.47262000       0.61223500
P       10.55374000       1.39647000      18.98616000      -0.78750400       0.47156900      -0.90609700
P       14.08330000      10.17764000       4.91268000      -0.29532900      -0.46479300      -0.34445100
P       12.05716000      10.14513000       5.71849000      -0.09197700      -0.41805300       3.19090900
P       12.70462000       8.40558000       4.61007000       0.20422100       1.01618400      -1.08556300
P       12.23556000      10.49279000       3.71973000       0.58233100      -0.40013800      -2.32023700
P        8.09570000       4.17710000       7.42366000       0.29480800       1.41019100      -0.49748900
P        9.32858000       5.11332000       8.97073000      -0.16764300       0.85006200      -0.77617700
P        7.42277000       6.08724000       8.36862000      -0.30531300      -0.41319100       0.43264800
P        9.06107000       6.31160000       6.98141000       0.16378600      -1.78251900       0.63539900
P       11.97793000       7.21688000       9.71769000       0.40778400       0.85524100       0.73924200
P       12.31632000       9.19311000      10.92738000       0.17686900      -0.87611700      -0.50120400
P       10.33387000       8.34900000      10.61421000      -1.24329900      -0.56739600       1.25816300
P       11.33942000       9.17627000       8.96577000       0.58842900       0.59800700      -1.33758400
P       14.57441000       8.68513000      15.91473000       0.59050300      -1.28817200      -1.02916600
P       14.17237000      10.49497000      14.82487000      -1.35039800       0.19094200       0.69147900
P       12.52935000       9.26051000      16.09845000       0.44660100       1.15606600      -1.95862700
P       13.28291000       8.71396000      13.88186000       0.36847300      -0.16646500       2.55871100
P        8.43857000      12.33588000      20.21514000      -0.22985300      -0.44708300      -0.65582000
P        9.50770000      11.04305000      18.66717000      -0.19227000       1.01576600       0.24017800
P        9.41406000      10.43605000       0.33174000       0.44538600       0.33517300       0.53038700
P       10.60401000      12.27962000      20.19938000       0.15716800      -0.91941300      -0.14271300
P       15.17507000      12.13823000       8.35672000       0.29938700       0.46158100       0.95152400
P       14.10989000      14.06076000       8.49109000      -1.12867400      -0.31980300      -0.52264800
P       15.48446000      13.69314000      10.05997000       1.63934000      -0.67685700      -0.16648100
P       13.75092000      12.45253000      10.02009000      -0.90722900      -0.14430100      -0.38020000
P       16.04695000       0.96096000      14.01255000       0.13122300       0.29156100      -0.94849800
P       14.65211000      19.83445000      14.60070000       0.66086000      -0.87431900      -0.12859000
P       15.34724000      19.82134000      12.48700000       0.10000500       0.79070700       0.62107100
P       16.81784000      19.34207000      14.04543000      -0.46820500      -0.49598100       0.43628600
P       15.60319000      14.53153000      15.50693000      -0.79232500      -1.11002000      -0.60179800
P       14.19517000      14.58498000      17.29079000       1.70859500       0.15438700      -0.51070700
P       15.07183000      16.40284000      16.38376000       0.23568100       0.51886600       0.70821500
P       16.52915000      14.97410000      17.39542000      -1.61580100       0.50579500       0.27838800
P        9.59051000      16.36910000       4.99731000       0.32416600      -0.68479400      -1.36639900
P       10.54684000      17.02463000       3.02179000      -0.22720100       0.82445800       0.70382600
P       10.96139000      15.03725000       3.66780000      -0.95520200      -1.26842200       0.53472000
P       11.74195000      16.61732000       4.85196000       0.68253600       0.99590000       0.24555300
P        8.93938000      16.90312000      10.45729000       0.22344000       1.56389200      -1.37490800
P        8.43587000      17.84822000       8.38940000      -0.31054700       0.68090700       1.46299700
P       10.20973000      16.72715000       8.66066000       1.13376200       0.44994000       0.66530600
P       10.08314000      18.84569000       9.70437000      -1.08308200      -2.62824700      -0.77246500
P       18.46286000      11.25400000      13.80617000      -0.01748000       2.70207200      -0.57202000
P       19.91170000      12.88741000      13.02751000      -1.55179600      -0.47955300       0.51575200
P       18.55453000      13.36178000      14.76064000       0.68929700      -0.94420300      -0.02680400
P       17.68223000      13.30071000      12.79537000       0.69747300      -1.54771500      -0.11677900
P        9.92052000      16.74395000      17.84416000      -0.67898300      -0.45188900       0.89767100
P       10.41992000      14.80230000      16.83574000       0.68736600       1.19358000      -0.32539700
P       10.62038000      16.92263000      15.85378000       2.16929700      -0.40920800      -0.92787600
P        8.77168000      15.99970000      16.10878000      -2.13198800      -0.32525200       0.40573400
P       14.34560000       0.57466000       4.91189000      -0.53191900       0.31051800      -1.26944300
P       13.10436000       2.00162000       3.66770000       0.32314300       0.44148900       0.50044700
P       12.16071000       0.48797000       4.95908000       0.29706500      -0.48286200      -1.37038200
P       13.34180000      20.37622000       2.90018000      -0.79686200       0.57846300       2.24893800
P       18.72655000       3.49954000      10.97357000      -0.06398600      -0.80715400      -0.23850800
P       17.42173000       1.95219000       9.99565000      -0.27554200      -1.14830000       1.57151400
P       19.67783000       1.70135000       9.93487000      -0.93953200       0.55850300       0.52429600
P       18.56200000       3.21045000       8.81960000       1.12286100       1.59389500      -1.77528500
P       19.67451000       3.32337000      17.34067000       0.23125500       0.70041100      -0.47424100
P       19.84906000       3.52372000      15.09761000       0.52566000       0.63925400       1.00555000
P        1.10106000       2.77363000      16.32252000       0.61315900      -1.33518100      -0.20670000
P        0.72843000       4.86096000      16.50294000      -1.44656700      -0.04550200      -0.35157300
P       13.79166000       4.54891000      16.17871000      -0.22437900       0.62112100       0.95425200
P       13.70969000       2.83540000      14.87798000      -0.33252300       0.81511000      -0.81638900
P       14.66589000       4.78828000      14.21672000      -0.78894700      -0.56857400      -0.23665300
P       12.39919000       4.67632000      14.46531000       1.26558500      -0.56952400       0.14509100
P       17.59077000       7.04120000       2.13084000       0.46538200      -0.31760800      -0.20833700
P       19.49689000       6.61158000       3.27244000      -1.00976300       0.08100700      -0.11314700
P       17.56332000       5.61654000       3.81777000       0.19915100      -0.90487800      -0.35062900
P       17.77598000       7.70464000       4.17382000       0.50214100       1.14540200       0.67891000
P       15.27921000       4.97539000       6.79410000      -1.10142100       1.01181800      -0.78015400
P       13.40236000       6.35314000       6.94143000       1.24199700      -0.53544800      -0.29010500
P       14.40692000       6.14584000       4.96159000       0.35445700      -1.06155100       0.81148200
P       15.45391000       7.17491000       6.55894000      -0.27713800       0.01847800       0.43404500
P       15.65392000       7.99334000      11.85850000      -0.96255800       1.32625200       0.13916800
P       17.08523000       6.67904000      11.04109000       0.56678600      -2.26507900      -0.11181400
P       17.21782000       7.34047000      13.19559000       0.00110100      -1.42463100       0.59707800
P       17.76578000       8.58549000      11.58544000       0.53370600       2.36333300      -0.75334300
P       17.29175000       2.60638000       1.12898000       1.53003700      -0.18567500      -0.32829000
P       17.37051000       4.55122000      20.40106000       0.16322500      -0.65883500       0.11200900
P       15.60811000       3.85885000       1.07075000      -1.28365400       0.38880600      -0.66811700
P       16.28168000       2.75743000      19.59535000      -0.07573300       0.81607600       0.65963200
P       15.89720000      16.24263000       1.66457000      -0.89850400       0.20197100      -1.00193700
P       14.15816000      16.21990000       3.06780000      -0.53164600      -0.59798600      -0.62092500
P       14.76599000      18.20543000       2.34392000       1.64209000      -1.68529400       0.00402500
P       16.09808000      16.85215000       3.66442000       0.57923800       1.41725800       1.14053100
P       18.05429000      13.71788000       4.22730000      -0.14444900       0.85730700       0.70908000
P       17.91321000      11.59315000       4.12891000      -1.12421800      -0.35984600       0.03463400
P       16.03173000      12.89945000       3.91986000       0.67711700      -0.62869900      -0.20053500
P       16.97640000      12.61571000       5.88652000       0.66385700       0.24680000      -0.57146600
P       20.30674000      16.46979000      10.49744000      -0.17092500       0.48503600       0.02971700
P       18.40112000      15.39453000      10.29611000      -0.19473600       1.44455100      -0.04910500
P       18.93895000      17.05643000       8.86739000       0.40788400      -0.94985900      -1.25900900
P       18.41695000      17.64931000      10.79710000      -0.05728700      -0.47606700       1.64792800
P       16.40972000      10.08214000       0.16990000       1.79326400       0.22685100      -0.36505000
P       14.75323000       9.29810000      19.46635000      -0.80472700       0.33308800       0.39018800
P       15.26302000      11.43999000      19.21879000       0.28747900      -0.41755300       0.59826700
P       14.52091000      10.76056000       0.80928000      -1.28649700      -0.12026600      -0.58781500
P       12.84936000       0.26083000      20.01268000       0.20120400      -0.49079900      -0.34414600
P       14.86196000      19.89260000      19.59121000       1.27923100       0.74529600       0.54870300
P       13.99804000       1.20630000      18.38897000       0.02243200      -1.51236100       0.18877600
P       13.35413000      19.42286000      18.19815000      -1.15681800       0.70137000      -0.46631600
P       14.53259000      18.86929000       7.21986000       0.27886400       0.89919800       0.08037500
P       15.50951000      17.90553000       8.96891000       0.35344900       0.01457600      -0.53328600
P       15.27751000      16.84607000       6.98431000      -0.43168800      -0.01783300       1.02140100
P       13.51162000      17.33935000       8.34833000      -0.09264300      -0.72043200      -0.47542900
248