2
Lattice="20.0 0.0 0.0 0.0 20.0 0.0 0.0 0.0 20.0" Properties=species:S:1:pos:R:3:forces:R:3 energy=-6.50769959 cutoff=-1.0 nneightol=1.2 pbc="T T T"
P       10.80000000      10.00000000      10.00000000      21.36937567       0.00000000      -0.00000000
P        9.20000000      10.00000000      10.00000000     -21.36937567      -0.00000000       0.00000000
2
Lattice="20.0 0.0 0.0 0.0 20.0 0.0 0.0 0.0 20.0" Properties=species:S:1:pos:R:3:forces:R:3 energy=-8.8517662 cutoff=-1.0 nneightol=1.2 pbc="T T T"
P       10.90000000      10.00000000      10.00000000       4.40041363       0.00000000      -0.00000000
P        9.10000000      10.00000000      10.00000000      -4.40041363       0.00000000       0.00000000
2
Lattice="20.0 0.0 0.0 0.0 20.0 0.0 0.0 0.0 20.0" Properties=species:S:1:pos:R:3:forces:R:3 energy=-9.05640881 cutoff=-1.0 nneightol=1.2 pbc="T T T"
P       10.95000000      10.00000000      10.00000000       0.01958046       0.00000000       0.00000000
P        9.05000000      10.00000000      10.00000000      -0.01958046      -0.00000000      -0.00000000
4
Lattice="20.0 0.0 0.0 0.0 20.0 0.0 0.0 0.0 20.0" Properties=species:S:1:pos:R:3:forces:R:3 energy=-8.08838494 cutoff=-1.0 nneightol=1.2 pbc="T T T"
P       11.75000000      10.00000000       8.76256320      -2.80795910       0.00000000       1.98569618
P        8.25000000      10.00000000       8.76256320       2.80795910       0.00000000       1.98569618
P       10.00000000      11.75000000      11.23743680      -0.00000000      -2.80795910      -1.98569618
P       10.00000000       8.25000000      11.23743680      -0.00000000       2.80795910      -1.98569618
4
Lattice="20.0 0.0 0.0 0.0 20.0 0.0 0.0 0.0 20.0" Properties=species:S:1:pos:R:3:forces:R:3 energy=-20.6556337 cutoff=-1.0 nneightol=1.2 pbc="T T T"
P       11.10000000      10.00000000       9.12218260      -0.81144483       0.00000000       1.86693721
P        8.90000000      10.00000000       9.12218260       0.81144483       0.00000000       1.86693721
P       10.00000000      11.10000000      10.87781740       0.00000000      -0.81144483      -1.86693721
P       10.00000000       8.90000000      10.87781740       0.00000000       0.81144483      -1.86693721
248
Lattice="19.577111 0.0 0.0 0.0 19.577111 0.0 0.0 0.0 19.577111" Properties=species:S:1:pos:R:3:forces:R:3 energy=-1309.85173335 hash=d7ab63302dd8a5bd9120a96253cd4383 virial="35.7138118983 1.3731848678 -7.85546789869 1.3731848678 20.1685649373 -3.78087126107 -7.85546789869 -3.78087126107 11.9454720058" config_type=liq_12_03_01_liqP4 pressure=0.0030132903393144195 uploaded="2020-04-10 10:56:38.020000" hash_structure=bc7cc0abf23a3166e566bebb31120516 filename=liq_12_03_01_liqP4/liq_12_03_01_liqP4_mbd2.xyz username=gabor stress="-0.00475981854996 -0.000183013530589 0.00104695074078 -0.000183013530589 -0.0026879995277 0.000503901997769 0.00104695074078 0.000503901997769 -0.00159205294028" volume=7503.187678979971 n_atoms=248 free_energy=-1309.85173335 modified="2020-04-10 10:56:38.020000" formula=P248 miguel_caro=T pbc="T T T"
P        0.53209000       0.41204000       0.94366000      -0.34015100       0.02032200       1.39708200
P        1.62480000       1.03767000       2.72265000       2.73640400      -0.44357400       0.94831900
P       19.13297000       0.84105000       3.08537000      -1.15788300      -1.95629200      -0.64345800
P        0.27206000       2.37343000       1.87476000      -0.31518600       2.81783900      -1.70189000
P       15.28501000       0.46770000       3.69058000       0.69333000       0.12779400       1.54909600
P       17.00489000       1.19274000       5.00373000      -0.17238600      -0.35092100      -0.74818700
P       16.75995000      18.60454000       4.49892000      -0.78564500       0.87548200       1.19552700
P       15.39407000       0.21543000       6.03523000      -0.18870600      -0.97818400      -1.45395800
P        2.12286000       5.58102000      10.84778000       2.21806400      -0.46643500      -0.84679000
P        1.98819000       5.57396000      13.07655000      -0.84733400      -0.57357600      -1.28026300
P        0.88614000       4.01125000      11.75705000       0.47289000       1.57559300       0.38896100
P        0.33935000       6.20029000      11.66457000      -1.54456300       0.14047200       1.24133200
P       18.95497000      19.01576000      13.04656000       1.23966500       1.01450400      -1.46070100
P       18.84074000       0.66779000      11.11541000      -0.07783400      -1.16786400       0.18887200
P        1.01151000      18.88588000      11.44954000      -0.44278000      -0.19448200       0.14945700
P        0.80258000       1.19632000      12.51371000       0.03256700      -0.44413900       1.13104700
P        1.44794000       8.61581000       2.85493000      -0.89451400      -0.75351100       0.57068700
P        0.92586000      10.61017000       3.51237000      -0.90831200      -0.27994500      -0.80896200
P       18.76306000       9.11181000       3.52502000       2.18628300       0.23327000      -0.69436000
P        0.08933000       9.70811000       1.55689000       0.07003600       0.58311400       0.79036700
P       18.96840000       7.12793000       7.30457000       0.45252300      -0.28470100       1.93239300
P       18.27468000       9.10715000       7.09880000      -0.50297300       1.74336800      -0.89452200
P       18.69728000       8.71240000       9.19081000       1.47660200      -0.83312200      -0.32388600
P       17.06096000       7.74568000       8.24946000      -1.29167700      -0.74115900      -0.49995100
P        3.58770000      10.13670000      13.25899000      -0.82086800       0.55461800      -0.75673200
P        3.95411000      11.31514000      11.40288000      -0.35348400      -0.07376800       0.42268300
P        2.00671000      11.64435000      12.47961000       1.22939000      -1.13105400      -0.12541300
P        2.43081000       9.73047000      11.36154000       0.10436200       0.41112800       0.77189100
P       18.78708000       8.99670000      16.13775000       1.25103500      -0.38358300       0.85325700
P        1.15973000       8.97648000      17.46237000      -1.79870400       0.04529600       0.14802600
P        0.73530000       7.35534000      16.12755000      -0.88185300      -0.57367700      -0.11957400
P       18.89714000       7.60761000      17.89001000       1.33186200       0.62948300      -0.86213900
P        4.27989000      13.01015000       2.44808000       0.13766800       0.66279900       1.40300600
P        5.54404000      13.21858000       4.33112000       0.67067900       0.31854200      -0.64493300
P        3.67040000      12.25664000       4.43954000      -1.33322500      -1.62257100       0.13801000
P        3.68216000      14.37577000       4.22161000       0.42824600       0.24283400      -0.91344900
P        9.56316000      13.93444000       6.28529000       0.00975200      -1.51152300       1.59479800
P        8.27589000      12.21391000       6.10802000      -2.22780400      -0.53990900      -1.66002800
P        8.54952000      12.77252000       8.14590000       0.68390100       1.10415300      -0.13034000
P       10.11902000      11.75831000       6.95522000       1.27604200       0.89238200       0.77860300
P        2.25744000      15.96363000      13.74842000      -0.02833900       0.39487700       0.39760100
P        1.94779000      15.45869000      15.90662000      -1.23074900       0.38598100      -1.42430500
P        0.21723000      16.15627000      14.48779000      -0.27578200      -0.90475500       0.49858000
P        1.67701000      17.53733000      15.24985000       0.58059800       0.07236300      -0.52107100
P        0.64005000      12.20466000      17.47852000       0.71473200      -0.14712900      -0.84824400
P        0.23890000      14.26711000      18.17063000      -0.34495600      -0.49487700      -0.16814300
P        0.43829000      12.61013000       0.01312000       0.21698900      -0.09569800       0.96343300
P       18.28105000      12.62040000      18.28858000      -0.88706200       0.57826600       0.06611000
P        0.82328000      14.82120000       2.44412000       0.03813600      -0.58207800       0.69325900
P       18.97907000      16.29730000       3.22505000      -1.19661800       0.16609800      -0.55357900
P        1.20546000      16.88622000       2.12985000       0.56309200       1.04446400       1.03204700
P        1.19620000      16.05871000       4.34483000       0.65730800       0.04964300      -1.59846300
P        2.09240000      11.62252000       8.91743000      -0.56199800       0.66878300      -0.86264700
P        3.27425000      13.28464000       8.00618000      -0.92560900      -0.89249900      -0.22694600
P        1.46668000      13.76089000       9.13255000       0.04840700      -0.40818600       0.30225300
P        1.18796000      12.80860000       7.16550000       1.13414500      -0.23656700       0.86389200
P        5.02171000      15.90202000       9.12201000      -0.25161700      -1.67317200       0.87094900
P        5.31325000      17.27929000       7.60119000       0.54288400       4.15644200      -0.82819800
P        3.76397000      15.87013000       7.33098000      -1.82544700      -0.13749300      -0.33861800
P        5.80238000      15.33614000       7.12425000       1.26320600      -2.01568700      -0.38952200
P       18.14835000      16.71541000      18.45996000       0.23863600       0.78752800       2.27183500
P       18.26490000      19.12782000      18.74784000      -0.34331600      -1.90982000      -0.71656900
P       16.34773000      18.06560000      18.50380000       0.59610600      -0.45016800      -0.89020900
P       17.93146000      17.99810000      16.84215000      -1.14593800       1.38104900      -1.04193700
P        3.83541000       6.11984000       0.73471000       0.32611300      -0.06194900      -0.67543900
P        1.89183000       5.83237000      19.27065000      -0.10033300       0.22427000       0.14855500
P        2.06985000       5.70896000       1.88968000      -0.88889300       0.53672300       0.85881700
P        2.87968000       4.14976000       0.68878000      -0.18714000      -0.83107800      -0.68924700
P        6.75481000       2.11928000       2.37063000      -0.54503100      -1.53357500       1.48969200
P        6.19549000       4.18938000       2.93604000       0.02226500       0.28530000       1.21581600
P        5.48141000       3.34318000       1.12604000      -1.21208500      -0.84140000      -1.39828300
P        7.55226000       3.71108000       1.33964000       2.46877400       1.99843600      -1.40703700
P        4.92672000       0.95697000      10.16884000       0.78793800      -0.64705800      -1.27865000
P        6.27654000       2.70072000      10.63652000      -0.65999800      -0.37304000      -0.33500000
P        5.17497000       1.60072000      12.17980000       0.15356100       0.24734200       1.19242800
P        4.06691000       2.82098000      10.75081000      -0.48746600       0.89678100       0.17955000
P        5.80933000       2.60544000      16.14360000      -1.19834100       1.25057300      -0.57185300
P        4.03054000       1.61662000      15.36874000      -0.43094700       0.79176900      -0.51486800
P        4.16540000       3.92028000      14.93638000       0.75918000      -2.32775100       1.62372700
P        3.77717000       3.02163000      17.03177000       0.61935100       0.34774600      -0.71023200
P        6.77401000       8.06943000       2.29579000      -0.37481400      -0.63745500      -0.18727800
P        4.69794000       8.72546000       1.69557000       1.05711800       0.42892700       0.69401200
P        6.50694000       9.81207000       1.03187000       0.08792400       0.31377000      -0.92024400
P        5.99909000       9.92280000       3.11439000      -0.64718600       0.27038400       0.64774700
P        3.51133000       3.07229000       5.61397000       1.78260400      -1.30372900       0.05122500
P        1.66022000       3.92977000       5.99880000      -1.31802600       1.09992000       0.08426300
P        3.45677000       5.23954000       5.61583000      -0.62868900      -0.36155800       1.05753500
P        3.14011000       4.03183000       7.60385000       0.50452500       0.39993200      -1.23429000
P        7.04245000       6.32812000      12.50237000      -0.95895700       0.90987500       0.24115800
P        9.05318000       5.83662000      12.02986000       0.86750300       0.39662600       0.77622100
P        8.13380000       5.15444000      13.94932000       0.73252500       1.00577300      -0.06327000
P        8.69510000       7.45815000      13.70693000      -0.94230200      -2.68535900      -1.44166100
P        7.20146000       8.40986000      16.51427000      -0.17723200      -1.22445300       0.09597300
P        6.23578000       7.32756000      18.17633000       0.08571200       0.51482200       1.59653600
P        7.60238000       6.19240000      16.92913000      -0.23515700       0.76061500      -0.36352200
P        5.60579000       6.84498000      16.21433000       0.10410300       0.02441900      -1.11830800
P        6.05471000       7.59300000       6.71957000      -0.69838600       1.00916200       1.63709400
P        5.23837000       7.05630000       8.75232000       0.11063800       0.15575600      -0.51834100
P        3.94663000       8.10436000       7.30152000       1.33086000       0.69534300       0.69310500
P        5.74823000       9.19016000       8.47299000      -1.04034900      -1.23530500      -1.79081800
P       10.97651000      14.19168000      10.66079000      -0.26272900      -2.26372900      -3.13514500
P       10.15723000      16.10527000      11.12330000       1.21254900      -0.08446300       0.99553300
P       12.36837000      15.39117000      11.66248000      -0.40219600       1.48971000       0.59874000
P       10.59347000      14.50247000      12.66359000      -0.11128700       0.78573600       1.54337100
P        7.39901000      10.90980000      10.61680000       0.82132300       0.44350000       0.52209700
P        9.04598000      10.91753000      12.18994000      -0.42471700       0.22002100      -0.64354300
P        6.98930000      11.46283000      12.66381000      -0.93696600      -0.34277500       1.40513800
P        8.15124000      12.84215000      11.51549000       0.22430200      -0.30661800      -0.54128000
P        3.61726000      12.10925000      18.57143000       1.30820200      -0.50546500      -0.90249000
P        4.02586000      13.77083000      17.23639000       0.03031200      -0.00615000      -0.68956200
P        4.52452000      11.70138000      16.44826000      -0.56120000       0.91329200       1.36373600
P        5.75181000      12.72731000      17.99730000      -0.14726900      -0.61994300       0.46644400
P        4.54898000      18.79743000       4.91685000       0.70934700       0.02923300      -0.47928700
P        6.45694000      18.92355000       3.65007000      -1.36319400       0.19981700       0.03427000
P        4.35031000      18.54777000       2.72549000       1.07202000       0.31825900       0.53415400
P        5.43995000      17.03874000       3.90595000      -0.40239300      -0.53118200       0.24989200
P       19.22423000      18.82535000       7.57415000       0.23020100       0.96339800      -0.24154700
P        0.85581000      18.77676000       5.76362000       0.25549300      -0.76154900      -0.74123200
P        0.28514000       1.16869000       6.42039000       0.48972900      -0.99578500       1.48639700
P        1.81000000      19.36331000       7.62965000      -0.80499200       0.91499300      -0.34875400
P        4.36528000      17.48455000      11.62364000      -0.47978200      -0.16504600      -1.71993600
P        6.54159000      16.90260000      11.50005000      -0.90116800      -0.40710100       0.25109300
P        4.93864000      15.55936000      12.49419000       1.19648600       1.42253900       0.16177100
P        5.57779000      17.64548000      13.29834000       0.51639500      -0.65698600       2.01039800
P        3.19606000      19.09338000      18.81848000       1.06012700      -0.62306900       0.26635600
P        3.88972000      17.02095000       0.03273000       0.83800900       1.07480200      -0.42564600
P        3.94307000      17.50977000      17.38391000       0.41444200       0.32839400       0.87240100
P        2.10706000      17.28122000      18.49281000      -1.68196200      -0.61280000      -0.39045900
P       10.17747000       6.75401000       0.36813000       0.21510400      -0.64916900      -1.24442000
P       12.24940000       6.71632000      19.22263000      -0.15649300       0.20097700      -0.41140900
P       10.62154000       6.65839000      17.67537000       0.20115700       0.06974900       1.20267400
P       11.04850000       4.89686000      18.95278000      -0.43930300       0.53916800       0.38018500
P       12.83648000       2.25810000       8.75067000       0.20240900      -1.21263100      -1.08511400
P       11.12428000       3.13780000       9.74607000       0.85102700       1.26709700      -0.68664400
P       12.57634000       4.38108000       8.24294000      -0.56526500      -0.94596300       1.81861800
P       13.23037000       3.61172000      10.33188000      -0.28528200       1.07078900      -0.13351900
P        9.74699000       0.87018000      13.96300000       0.06252800      -0.18979600      -0.11022000
P       10.87076000       1.79994000      12.30688000       0.00078500      -0.60759300      -0.05272300
P        8.70905000       1.56542000      12.14075000      -0.02544600      -0.30947500       0.15340700
P       10.00868000      19.32417000      12.05508000      -0.10280900       0.72141900       0.19070400
P        8.43217000      19.56243000      17.07347000      -0.14280900       1.20545400      -0.17087900
P        8.19236000       2.16550000      17.95994000       0.66153300      -1.76694700      -0.09470200
P        8.85120000       0.34442000      19.16713000      -0.71546900       0.58620300       0.11269200
P        6.74242000       0.55979000      18.35139000       0.19243200      -0.14449600       0.55838900
P       13.02320000      11.15958000       5.04165000      -0.70269400       0.01553300      -1.67178900
P       12.70829000      11.72305000       2.80199000      -0.45428800       0.96003000       1.25327400
P       10.92698000      11.19452000       4.19788000       0.79720800       0.82640300      -0.40357500
P       12.32884000       9.74848000       3.44982000       0.47612600      -1.68147200       0.35154600
P        9.14660000       4.24958000       7.47703000      -0.38075800      -1.34106200      -0.99429200
P        7.96741000       4.53594000       5.57723000       0.63713200      -0.61694800      -0.37605500
P        7.05250000       4.68065000       7.47814000      -1.50643700      -0.44680000       0.92466300
P        7.51542000       2.61398000       6.71534000       1.24724200       1.90969100       0.14884300
P        9.44490000       7.04751000       9.13476000      -0.33912200       0.25005500       0.48667200
P       11.46819000       7.76828000       9.58399000       0.57511900      -0.44904900      -0.26821000
P        9.89002000       9.22767000       9.44586000      -0.83147200       0.36410000       0.69961100
P       10.47581000       8.24008000       7.66138000       0.88589800      -0.30642400      -1.32023700
P       12.41328000       8.20823000      13.55226000      -0.42076700       0.10298500      -1.72021000
P       13.07763000       8.89639000      15.42365000      -0.86599600       1.77601400       0.03962800
P       10.88082000       8.85715000      14.90826000      -0.03769400       0.08752800       0.85046700
P       11.95482000      10.45336000      13.83957000       1.18716600      -1.74455500       0.94321500
P       10.44241000      12.39932000      18.97163000       0.30047100       1.07019100      -0.38122300
P       11.15829000      10.88386000      17.53469000       0.53721500      -0.34107800       0.41996600
P        9.20437000      11.73810000      17.23880000      -0.45609000       0.37921100       0.29167600
P        9.54073000      10.47851000      19.00515000      -0.23235300      -1.19313100      -0.13189600
P       15.93612000      11.02761000       9.93525000      -0.13746800      -1.36980100      -0.17185100
P       13.67772000      11.11340000       9.62513000      -0.34494100      -0.73837600       1.57525700
P       14.95300000      11.83252000       8.14764000       1.23482700       0.61982000      -1.72576100
P       14.93101000      12.87283000      10.05236000      -0.79388200       1.44332900       0.30137100
P       13.57843000       0.36312000      12.71862000       0.21810800       0.44804500       1.12540400
P       15.55304000      19.06384000      12.62356000       0.63721100       0.22397600       0.37366000
P       15.33700000       1.70926000      12.68378000       0.23811100      -0.37281600      -0.78412400
P       15.05329000       0.61858000      14.52105000      -0.77003100      -0.83040200      -0.80722100
P       12.89895000      14.18865000      16.00863000       1.23531100       0.58404900      -0.39431500
P       15.27216000      14.38965000      16.16975000      -0.98033200       1.22440400      -0.20524900
P       14.32285000      12.53967000      15.66488000      -0.42782900      -0.76471600       0.57245500
P       14.04333000      13.47068000      17.70421000       0.03609500      -0.95835200       0.30899300
P        8.49310000      14.12412000       1.45928000       0.00429000       1.26632900       1.18094400
P        8.11518000      14.53851000       3.68091000       0.49896000       0.61994200      -1.34188900
P        8.49670000      16.28700000       2.29266000      -1.92727500       0.06996900      -0.74431000
P       10.06692000      15.03497000       2.74577000       1.73416300      -1.62748800       0.40660300
P       10.00555000      18.40530000       8.64974000      -1.40454300      -0.15298000      -1.08924500
P        8.49288000      18.39589000       6.81336000       0.94757400      -0.25097700       1.22903600
P        8.17372000       0.08790000       8.57673000       0.02565900      -0.18656600       0.22317400
P        7.91117000      17.47396000       8.78791000       1.15336000       0.77930700      -0.58556500
P       16.78657000      11.55267000      13.29531000      -0.85575800       0.38781400      -0.34777900
P       18.46249000      12.59965000      12.32477000      -0.16856100       0.30461500      -0.12115800
P       18.63050000      11.76925000      14.32316000       0.82560200       0.18148400       0.87842100
P       17.39526000      13.59517000      14.02444000       0.27104500      -0.73951300      -0.60416200
P        8.52072000      16.25033000      14.61261000      -0.03438700       0.85401100       1.28759800
P        9.64760000      15.88872000      16.55161000      -0.45935200      -0.65745200      -0.90941600
P        8.05320000      14.47075000      15.73788000       0.15202600       0.59637000       1.00949600
P        7.55191000      16.48551000      16.73745000       0.22948800      -0.75387600      -1.43996300
P       10.20426000       2.27770000       3.21946000       0.15036000       0.15161200       0.40016700
P       11.48172000       1.28588000       4.75728000      -0.34441600       0.82952400       2.41506400
P       12.26377000       1.60246000       2.84624000       1.50484100       1.25101400      -1.61382700
P       10.74846000       0.18050000       3.14168000      -1.46513300      -2.27955100      -1.09801500
P       17.68479000       3.07850000      10.35449000      -0.01311700       0.44554500       0.26165700
P       16.26498000       2.24972000       8.94895000      -1.30393000      -1.40731900       0.20461200
P       18.03890000       3.10282000       8.19061000       1.02262900       0.75598900      -0.38768500
P       16.46441000       4.39128000       9.06867000       0.03979100       0.71653600      -0.11577800
P       18.81683000       3.46558000      14.18168000      -0.81345100      -0.01856700      -1.42935800
P       17.82831000       3.45229000      16.08941000      -1.09642500       1.15881000       1.19747300
P        0.31079000       2.83114000      15.88023000       0.38289700      -1.24258100       0.74860700
P       18.11472000       1.55732000      15.13461000       1.06839300       0.33920300      -0.01315000
P       13.88465000       3.94015000      13.81754000      -0.91378800      -0.09709500       0.56771500
P       11.63904000       4.06094000      14.06073000       0.92912100       0.12063600       0.50743600
P       12.99918000       5.54161000      14.99730000      -0.25851000       0.62855200       0.18569700
P       12.93644000       3.53122000      15.83361000      -0.07991600      -0.25962900      -0.73460400
P       18.21014000       5.02772000       2.90542000       0.00663900      -0.52066200      -3.40143900
P       19.27572000       5.91145000       4.47503000       0.02676100       0.46742000       1.11435900
P       17.87384000       4.19183000       4.79395000      -0.55343800       0.89584200       1.18446600
P       17.08888000       6.30557000       4.18285000       0.16060300      -0.50618600       1.09411800
P       14.03436000       5.00446000       4.23997000      -0.40003100       1.34493400       0.38221800
P       12.45416000       5.99809000       3.00419000       0.39656200       0.48284700       0.73374300
P       12.61563000       6.68672000       5.21577000       2.02811900       1.19535900      -1.01277700
P       11.95177000       4.81981000       4.73224000      -2.00520000      -3.13290800       0.02355100
P       15.71748000       8.47746000      13.90388000       0.18462600      -0.22364800      -0.01717700
P       15.88610000       6.40929000      13.07172000      -0.48209500       1.04568800      -0.59381400
P       17.18117000       8.01910000      12.35188000       1.86667200       0.18542300       0.17829700
P       15.16402000       8.23834000      11.78530000      -1.04180000      -0.96099600       0.31405000
P       15.54131000       2.95424000       1.17972000      -1.21332500       0.76967600      -0.06605900
P       14.36173000       4.39555000      19.16771000       2.36280600      -2.27115800       0.90186700
P       15.40781000       2.31024000      18.68400000      -0.40839900       0.95426600      -0.15028900
P       16.67191000       4.02308000      19.26967000      -0.45348300       0.40071300      -0.55262300
P       15.61768000      14.31202000       1.68980000       0.21859300      -0.73078400      -0.24712500
P       14.15341000      15.15468000       3.08443000      -0.63336800      -0.48322800      -0.07948800
P       14.05400000      15.59924000       0.89276000      -1.08607600      -0.12222600      -0.25945100
P       15.59201000      16.41423000       2.12592000       1.27592600       1.39343800       0.22412700
P       19.43498000      13.10300000       4.40534000      -1.85833100      -0.32042200       0.64522900
P       17.79013000      11.85335000       5.31305000       0.34025700      -0.48139700       0.08210500
P       17.60106000      12.53824000       3.23461000       0.23632900       1.05053300       1.36280500
P       17.40264000      13.97344000       5.13594000       0.66621400      -0.25451900      -1.47358100
P       19.39046000      16.42381000      10.39206000      -1.35449600      -0.82739100      -1.05891000
P       17.62956000      14.98230000      10.07749000       0.33576400      -0.57211600       0.93819600
P       18.48543000      15.87901000       8.33366000       0.28744500       0.90708100       0.43894300
P       17.33806000      17.11126000       9.83707000       0.31421600       0.17704600      -0.43143300
P       16.63475000       9.97250000       0.16370000      -0.26936500      -1.78640800      -0.91649800
P       14.52393000      10.45140000       0.47688000      -0.51104600      -0.58613900       0.00679800
P       15.89998000      10.15480000       2.10955000      -0.05474700       1.18838400       2.57710200
P       15.03209000       8.35794000       1.35258000       0.75728400       1.05409200      -1.90237000
P       13.65772000      19.13860000      17.68279000       1.38675500       1.14110600       0.09767000
P       11.95351000      17.97609000      17.99420000      -1.77167600       0.22691400       0.09236100
P       11.84382000       0.73220000      18.09691000      -0.64636100      -0.64134900      -1.06811000
P       12.66944000      19.16454000       0.10562000       1.04688700      -0.60205400       0.71392100
P       14.68119000      15.27933000       7.38398000       0.44242100       0.30757100       0.13845800
P       13.20085000      16.78547000       8.05896000       0.09673700       0.23814500       1.17724600
P       12.55784000      14.95494000       7.07068000      -0.34056000      -0.13355800      -0.33358500
P       13.60928000      16.57741000       5.97717000      -0.03130800      -0.16612100      -0.86584500
248
Lattice="20.886014 0.0 0.0 0.0 20.886014 0.0 0.0 0.0 20.886014" Properties=species:S:1:pos:R:3:forces:R:3 energy=-1309.2282959 hash=d2e5d72082fb22409503147dabfe57af virial="-44.383430315 0.836733305131 7.85985663328 0.836733305131 11.924387895 -8.01237251777 7.85985663328 -8.01237251777 -6.60646266981" config_type=liq_12_03_01_liqP4 pressure=-0.0014292410942295805 uploaded="2020-04-10 10:56:37.614000" hash_structure=37ef654a76767379a6115282219b24db filename=liq_12_03_01_liqP4/liq_12_03_01_liqP4_mbd2.xyz username=gabor stress="0.00487140425011 -9.18375652782e-05 -0.000862676425343 -9.18375652782e-05 -0.00130878829012 0.000879416152819 -0.000862676425343 0.000879416152819 0.000725107322699" volume=9111.013587918118 n_atoms=248 free_energy=-1309.2282959 modified="2020-04-10 10:56:37.614000" formula=P248 miguel_caro=T pbc="T T T"