248
Lattice="19.207643 0.0 0.0 0.0 19.207643 0.0 0.0 0.0 19.207643" Properties=species:S:1:pos:R:3:forces:R:3 energy=-1308.872643965729 hash=0a52d05be110f62b0b8ba1dd06f580af virial="0.494352900131 -7.65209813893 7.72109612803 -7.65209813893 14.1363610828 -13.2346104406 7.72109612803 -13.2346104406 19.6957855958" config_type=liq_12_03_01_liqP4 pressure=0.0016146784108647724 uploaded="2020-04-10 10:56:38.097000" hash_structure=7256de5227695c2198da4cf346617eea filename=liq_12_03_01_liqP4/liq_12_03_01_liqP4_mbd2.xyz username=gabor stress="0.005666439633771768 0.0006845532845175434 -0.0011328775599931268 0.0006845532845175434 0.0046460601418839296 0.0016546614369901454 -0.0011328775599931268 0.0016546614369901454 0.0037409234338874374" volume=7086.343911736328 n_atoms=248 free_energy=-1310.85738039 modified="2020-04-10 10:56:38.097000" formula=P248 miguel_caro=T pbc="T T T"
P       19.07786000       1.83802000       2.14603000       1.18987100       0.53336000      -0.09408100
P        1.84009000       2.77358000       1.36927000      -1.09994900      -1.07152600       1.22097100
P        1.74336000       0.66243000       2.09671000      -0.16516000      -0.22994600      -1.11141900
P        1.56765000       2.19952000       3.55407000      -0.34470300       0.74987800      -0.39343200
P       17.28258000      18.89348000       5.16478000      -0.42160000       0.99338900       0.67104600
P       15.20283000      18.88955000       4.58162000      -0.60664100       0.25894400      -1.69321100
P       16.13352000       1.63244000       5.24472000       0.14184100      -0.66568700      -0.55392400
P       15.56991000       0.04130000       6.60745000       0.71333900      -0.22811300       1.67842300
P        2.46893000       6.49209000       9.63336000      -0.34852100       0.74934700       0.22427200
P        0.67446000       6.85221000      11.06187000       0.75161900       1.27897600       0.71871900
P        1.57443000       4.92107000      10.78613000       1.12239200      -2.13690300       1.95254400
P        0.45238000       5.76483000       9.27418000      -1.62425000      -0.00331400      -2.95215700
P        2.46336000      18.93916000      13.69707000      -0.65651200       1.08038500       0.02317200
P        0.72883000       0.26124000      12.17388000       1.64669500      -1.83706000       1.61128800
P        1.05738000      17.37769000      13.20124000      -0.45340500       0.90190000      -1.09037300
P        2.49231000      18.17408000      11.69484000      -0.45856000      -0.27779900      -0.64426100
P        1.38800000       9.37700000       6.05427000       0.01572700      -0.26516600      -0.92500500
P        2.10276000       9.39052000       3.85828000      -1.49135000       0.09709200       1.16965800
P        1.78441000      11.24473000       4.98965000      -0.64767100      -0.07769800      -0.21122100
P       19.02665000      10.08705000       4.61127000       2.78351900      -0.48442000      -0.36450600
P       17.12988000       8.17216000       9.35508000      -1.11843800      -0.17659900      -0.60879000
P       16.12170000       6.39269000       8.45186000       0.03370100       0.77522100      -0.08788800
P       15.74389000       8.45077000       7.56637000       0.29838000      -1.28834100       0.96805900
P       14.90429000       7.89065000       9.53083000       0.69277000      -0.17431400       0.03402300
P        3.95699000       6.81330000      12.71951000      -1.11168300       0.44018800       0.42912100
P        5.58345000       8.01383000      12.12671000       1.74487000       0.68522100       0.43507400
P        4.26220000       8.76199000      13.83772000       0.00726900      -0.61960800      -2.35355000
P        3.67527000       8.78640000      11.58075000      -0.61562200      -0.27640800       1.39095100
P        1.01983000       8.93949000      14.88483000      -1.91340200      -0.43552200      -0.56788500
P        2.45900000       8.55236000      16.32550000       0.69548500      -1.13337700       1.43607800
P        1.53976000       6.79518000      15.20026000       0.08679000       1.06010200       0.60720800
P        0.39531000       7.81703000      16.83387000       0.90348200       0.59028500      -1.38115800
P        6.11089000      12.48537000       4.19445000       0.81949200      -2.48862700       1.52898700
P        5.05776000      13.62600000       2.84621000      -0.88294000       1.85841800      -0.85550700
P        6.35435000      14.57964000       4.48239000      -0.78587300       0.02279100      -0.18743500
P        4.35606000      13.64102000       4.95309000       1.00256900      -0.23815700      -0.58996200
P        9.90000000      12.31790000       7.53923000      -0.94552400       0.86282900       0.13685100
P        8.94634000      14.24892000       6.79370000      -0.22836800      -1.48025200       1.24219000
P        8.91260000      13.71602000       9.04242000      -0.60094400      -0.96313200      -2.52526500
P        7.66022000      12.40318000       7.32798000       1.69755400       1.58550800       0.98644000
P        2.69679000      14.27808000      15.94839000      -1.42101800      -0.46709900      -0.43955700
P        2.86109000      12.91954000      14.26064000       1.44055900      -0.14455800      -1.24844100
P        1.32900000      14.50106000      14.14683000       0.37499100      -0.54591100       0.78502900
P        1.11737000      12.66089000      15.38832000      -0.61301100       0.87007900       1.20188000
P        0.19580000      11.36124000      18.52324000      -0.81354400      -0.23279300      -1.18691400
P        0.73462000      13.00233000       0.61568000      -0.22038200      -0.01199200       0.54403300
P        1.50957000      10.97325000       0.94404000       0.84890100      -0.31328600       0.86571000
P       18.60458000      11.35195000       1.36954000       0.18981500       0.55338700      -0.22910300
P        1.19715000      17.04527000       4.98874000       1.06199900      -0.09896600       0.76359800
P       18.42777000      16.21705000       5.00572000      -0.79106400      -1.29505900       0.92693800
P        0.94096000      14.88444000       4.38589000      -0.28638100       0.73905200       0.50628200
P        0.21693000      16.52856000       3.16165000      -0.02020700       0.22847400      -2.13800300
P        1.01236000       9.92171000       9.41814000      -0.57258300      -2.08129200       0.18867800
P        2.74727000      11.18371000       9.52578000       0.25941000       0.59298900       0.77085100
P        0.64855000      11.77436000      10.43653000       1.77224300       0.67469100      -0.32005000
P        1.06560000      11.70892000       8.28212000      -0.49587000       1.26195700      -1.25216900
P        3.80117000      14.58010000       9.21055000       1.23727400       0.13676300       2.02642000
P        2.24618000      16.10580000       9.15115000       0.33200200      -0.51006100      -1.15772700
P        3.10839000      14.84849000       7.29066000      -1.25212800       1.83211200      -0.46863500
P        4.19877000      16.60672000       8.25185000      -0.52254700      -1.27623100      -0.03581800
P       18.95602000      17.58850000      16.76564000       2.36468900      -0.22273600      -0.43365600
P        0.17738000      16.52856000      18.76414000      -1.46186900       1.64915500      -1.31546500
P       17.30463000      17.17667000      17.94221000      -0.90218700      -0.97019600       1.56607300
P       18.68312000      18.71819000      18.61599000       0.53387700      -0.63303900       0.36395100
P        3.75807000       6.26861000      18.83772000      -1.06633700       0.17208300       0.96116200
P        2.61018000       7.54484000       1.11055000       0.32529100       0.35252900      -0.44314800
P        3.24836000       5.54686000       1.67318000       0.29459800      -0.04923500      -0.03322000
P        1.62066000       5.81509000       0.21568000       0.38434300      -0.04943300      -0.38447400
P        5.73652000       1.66169000       1.67546000       0.03552000       1.10981700       0.83729400
P        6.35060000       3.33481000       0.45547000      -0.15461700       0.48627700      -1.96970900
P        7.57211000       2.81834000       2.13116000       1.49489000      -1.50760100      -0.19118600
P        5.87254000       3.90499000       2.45391000      -2.75420800       0.32431700       0.81315700
P        5.42576000       3.49020000      10.25292000       0.61746800       1.25796700       0.30646000
P        7.27570000       2.17394000      10.41615000      -1.56535800      -0.07910300      -0.92424300
P        5.46932000       1.76824000       8.99459000       0.76402700      -0.88147600       0.50224100
P        5.29405000       1.57762000      11.22531000       0.02788800      -0.84480500      -0.33045900
P        3.35427000       1.64202000      17.24673000      -0.32980700       1.55476800      -0.46534900
P        3.59075000       3.92502000      16.73871000      -0.67587800      -1.20392400       0.18337100
P        2.51259000       2.49734000      15.35809000       0.53011300       0.32643200       0.53863500
P        4.70537000       2.43007000      15.66162000      -0.30173400      -0.95625900       0.55755300
P        6.00329000       7.31035000       2.68615000       0.35542700       0.54372100       0.48251000
P        5.65367000       9.45857000       3.28249000       0.35596100      -0.65425000      -0.04154300
P        5.80178000       8.87166000       1.18198000      -0.11849300       0.09403200      -0.54353200
P        7.62584000       8.86331000       2.39779000      -1.17051600      -0.50055900       0.68161400
P        4.12384000       5.69345000       5.02247000      -0.34820100      -0.43171100      -0.44389300
P        2.54302000       4.19741000       5.60064000      -0.17722200       0.57330500      -0.29845500
P        3.89429000       5.02163000       7.08019000       0.46508400      -0.34789200       0.57170500
P        4.63139000       3.59978000       5.52944000       0.23530300       0.27558000       0.25386200
P        7.16902000       4.87340000      14.62399000       0.01877400      -0.19631100      -0.89687500
P        7.99426000       2.85086000      14.67026000      -1.00686200       0.10355100       0.72879400
P        8.00457000       3.76558000      12.78294000       0.32876800       1.71399900      -0.83162900
P        6.05554000       3.22750000      13.59782000       0.53944300       0.55611200      -0.01179700
P        5.93879000       7.92982000      16.15797000       0.87872600       0.24781300       0.29430500
P        7.04761000       9.53081000      17.26331000       0.46562900      -1.10265700      -1.69156800
P        7.50927000       9.02606000      14.99429000       0.02649000      -0.81417500       2.61188700
P        8.04625000       7.56964000      16.84954000      -0.76379500       1.29152700      -1.23578700
P        4.94900000       8.97033000       8.68462000      -0.02376000       2.64168200       2.80194500
P        4.30612000       8.13572000       6.96665000      -1.76320200      -1.78298800      -2.61978600
P        6.42211000       8.21559000       7.41553000       1.27988600      -0.12866100      -1.44406600
P        5.27188000      10.02001000       6.64058000       0.52002000      -0.27107000       1.15059900
P       12.80679000      14.04805000      13.05353000       0.76404200      -1.37198800      -1.38948100
P       10.75922000      14.57376000      12.07256000       0.52649800      -1.04171200      -0.46222300
P       12.40551000      15.95804000      12.13510000       0.64238600       1.26196500      -0.62262800
P       11.41981000      15.30227000      13.95082000      -1.25938200       1.65591100       2.26297300
P        8.03025000      13.40002000      12.30374000      -1.88832200      -1.24383700      -0.00219900
P        6.64961000      11.78925000      13.22450000       0.87838000       0.58834800      -1.46864400
P        7.13134000      11.85532000      10.93656000       0.69805800      -0.80382800       1.05604400
P        5.78934000      13.24394000      11.81660000       0.09337900       1.03616200       0.56471300
P        4.09323000      13.02198000      18.91425000       1.36458200      -0.89273800      -0.92527000
P        5.98284000      11.70095000      18.94398000       0.09076200       1.27069700       0.78191100
P        5.46713000      12.80773000      17.08314000       0.09988100       0.72942200       0.61481700
P        4.32896000      11.12687000      17.74827000      -1.87502400      -0.71450500      -0.33576300
P        5.05559000      16.96031000       4.90175000      -0.96619100       1.94470700      -1.54567500
P        5.77822000      17.89196000       2.94540000       0.42023700      -0.50014300       0.44866200
P        4.94873000      19.19351000       4.50598000      -0.34265000      -0.49225100      -0.05163600
P        3.61741000      17.96637000       3.18682000       1.02489500      -0.64172500       1.41115100
P        0.99805000       0.25706000       8.63286000       0.38445400       0.43916800      -0.55994900
P        1.84415000       2.32447000       8.51112000      -0.00217600      -1.00725500      -0.54631000
P        2.82366000       0.61126000       7.39644000      -0.37882900       0.41085900       0.51344900
P        0.88468000       1.38543000       6.71146000       0.05990900       0.14002300       0.51518000
P        5.76379000      16.61532000      12.49207000       1.72324100       0.47454500      -0.39443900
P        6.89284000      18.36218000      13.30051000       0.01001800      -0.06824900      -0.70224400
P        8.05816000      17.05147000      11.85371000      -2.11394500      -0.06106100       1.12048700
P        7.45823000      16.35327000      13.88960000       0.08561900      -0.08082900      -0.54363000
P        5.17089000      18.70417000      18.39844000       0.05937000      -0.30068300       0.07592900
P        4.29921000      17.60734000      16.68145000      -0.82291200       0.60681500      -0.32890100
P        3.66363000      17.11822000      18.77146000       0.77232300       0.04597800      -0.69314900
P        5.69981000      16.61851000      17.92467000       0.27977000      -0.44165200       1.03381600
P       11.22598000       4.75562000       0.52796000      -0.73541700      -0.19414400       0.93486900
P        9.93014000       6.37344000      19.08786000       0.27629700       0.58642600       0.59783900
P       11.47311000       6.67458000       1.53461000       0.18356200       0.60098200      -0.58974000
P        9.59330000       5.70135000       1.96221000       0.38655200      -0.81741500      -0.84518600
P       13.37881000       1.11059000       9.08733000       0.33010500      -0.21444500       0.30245100
P       11.75761000       0.80025000       7.67933000      -0.51755100      -1.20541200      -0.77716800
P       12.14276000       2.75668000       8.37330000      -0.04521600       1.05534000       0.86654700
P       11.29240000       1.22808000       9.80404000       0.36488900       0.71902400      -1.36803500
P       12.24635000       1.09512000      12.66199000      -0.47928800      -0.76985100      -0.00272000
P       11.42555000      18.95326000      14.18471000      -0.44963800      -0.15654200      -0.56245100
P       10.49367000      18.88655000      12.07665000       0.90291500       0.68665000       1.80132700
P       10.20658000       1.44516000      13.47368000       0.41774500      -1.16157300      -0.76886600
P        8.86675000       2.64612000      17.78822000       0.96847400      -1.77048900       0.29030000
P        8.52097000       0.89704000      16.51900000      -0.81497900      -0.85822400      -0.52488700
P        9.08289000       0.40184000      18.52637000       0.73628600       1.43065100       0.05274300
P       10.58322000       1.28693000      17.01063000      -0.81187200       0.45612500       1.17828600
P       11.96338000       8.97750000       5.44827000      -0.61770800       0.92470700       1.07071500
P       11.69152000       9.50398000       3.42885000      -0.56627100       0.29650400      -1.24186600
P       11.37769000      11.17190000       4.84640000      -0.17470800      -1.88289900       0.28579000
P        9.87307000       9.44157000       4.74175000       1.42847900       0.60676700      -0.09452800
P        7.55811000       3.09112000       7.15441000       0.29475700      -0.14341500      -0.88741800
P        9.65009000       3.68199000       6.76873000      -0.14177700      -0.01818100      -0.13630300
P        8.06466000       5.18320000       6.92929000      -0.07978500       0.56730700      -0.17008800
P        8.19354000       3.92545000       5.11067000      -0.19119200      -0.27987200       1.17337600
P       10.81156000       6.90340000      10.11828000      -0.38478900       0.22711300      -1.23911800
P        9.33618000       7.97780000      11.22671000      -0.64597000       0.70515700       1.31504100
P        8.63184000       6.58352000       9.72151000      -0.26517600      -1.52105000       0.29175300
P        9.40589000       8.45430000       9.11547000       1.25274000       0.60824000      -0.36838000
P       13.15428000      10.56645000      14.22044000      -0.43658200       0.75765600       0.58230700
P       11.21571000      10.51292000      13.24626000      -0.49841400       0.22694400       0.36048100
P       11.48807000      12.07750000      14.81499000       0.74995700      -1.08382200      -0.27859500
P       11.39912000       9.96333000      15.40614000      -0.11275300      -0.22937100      -0.27021100
P        9.55008000       9.70564000       0.50564000      -0.03598900       0.37206700      -0.66763800
P       11.43249000      10.57081000      19.07062000       0.46381900       0.25372300      -0.64637400
P       10.21666000      11.61198000       1.32834000       0.32854000       0.37893100       1.74539300
P        9.55110000      11.64830000      18.54070000      -0.06082200      -1.03725100      -1.06045000
P       12.88308000      10.26326000       8.96941000      -1.81887200      -1.08514800      -0.35085700
P       13.99480000      12.01897000       9.03791000       0.68436800       1.28482700       0.72778000
P       13.95881000      10.62830000      10.80361000      -1.15050700       1.35316800      -0.50381800
P       12.06924000      11.99888000      10.20258000       1.85975900      -1.47550600      -0.19158400
P       16.11458000      17.37923000      12.66646000       0.53252200      -0.17235300       0.00542100
P       16.28637000      15.86478000      14.30823000       1.03608300       0.65091800      -0.23749400
P       16.92145000      18.09185000      14.61581000      -0.89417400      -1.46363000      -0.71633900
P       14.82067000      17.41593000      14.39838000      -0.89014500       0.78956700       0.53151600
P       15.10673000      12.38953000      16.69332000       0.95743500       0.96856800      -0.54876100
P       15.92314000      13.81202000      18.29684000      -1.55324600      -0.58419400      -1.15992500
P       13.82737000      12.92986000      18.28495000      -0.29616000       0.95329000       0.83708600
P       14.33578000      14.52693000      16.79253000       0.69273800      -1.27330600       0.84006100
P        8.85910000      14.38026000       2.94845000      -0.37310400       0.08034000       0.64135500
P       10.02418000      16.07734000       3.91173000      -0.32853700      -1.22958700      -2.43700600
P        9.32493000      16.02121000       1.59164000      -0.06013100       0.92163600       1.20492600
P       10.85001000      14.66000000       2.24194000       1.20962900       0.27721600       0.67568200
P        7.35910000      17.10546000       8.34280000       0.95079600       0.33339700      -0.33523200
P        8.86465000      17.63154000       6.71042000       0.18695300      -1.07433500      -0.07681600
P        8.81610000      18.82140000       8.52222000      -1.51834800      -0.15045000      -0.59496800
P        7.05385000      18.75987000       6.95397000       0.29336100       0.91633200       0.77678000
P       15.89359000      10.95022000      12.93066000       1.40599000       0.82391800       0.20596600
P       17.86874000      10.90178000      11.83193000      -1.25884200      -0.46868100      -1.02478000
P       17.90694000      11.16431000      13.90770000      -0.17615800       0.18395800       1.50921200
P       17.15663000      12.81163000      12.64841000      -0.45138200      -0.46917800       0.07902500
P        9.02317000      16.54675000      17.69035000      -0.86655700      -1.18849800      -0.35435300
P       10.10480000      14.82033000      16.90386000       0.44053300      -0.34602500       0.58707300
P        8.02054000      14.93310000      16.35162000       0.07761800       0.37492300       1.22798300
P        8.52372000      14.43449000      18.50218000       0.41359300       1.11117300      -1.37528000
P        9.98052000       0.91229000       4.78868000      -0.38119200      -0.25485300      -1.26569200
P        9.76943000      19.03733000       2.71946000       1.35379300       0.78096400       1.53922200
P       11.78431000       0.93543000       3.55416000      -1.30362700      -0.63753800      -0.94056300
P        9.91124000       1.98745000       2.78328000       1.62356100      -0.31456700       0.97098400
P       16.41151000       3.71180000      11.35452000       0.28110900      -1.25030400      -0.29034100
P       16.02521000       1.47939000      11.39098000      -1.89979500      -0.46607000       1.51713600
P       17.96472000       2.11518000      11.00496000       0.79823200       1.29989300      -0.90868300
P       16.29290000       2.44114000       9.51842000       0.79734400       0.74057700      -0.43017700
P       17.78877000       1.72056000      14.44572000       0.20201100       0.41531900       0.19223200
P       18.37134000       1.89136000      16.57890000      -1.25922300       0.18766000      -0.22228900
P       16.38994000       2.88979000      15.70916000       2.09747100      -0.46020000       0.06287800
P       18.50470000       3.63685000      15.30711000      -0.74908000       0.13610200      -0.31622000
P       12.32407000       5.95145000      14.41021000       0.35125400       2.06037900      -1.58855100
P       11.59373000       4.69360000      15.89847000       0.37848400      -1.83172400      -0.14983200
P       13.66084000       4.34281000      14.92716000      -0.25508500      -0.37608700       1.01961300
P       11.89696000       3.91373000      13.74073000      -0.43262000       0.70489600       0.90063300
P        0.22156000       6.28063000       3.02048000      -0.85324000       0.80985700       1.08961200
P       17.67966000       6.87054000       4.55448000       1.20516200      -0.04457700      -1.15124100
P       17.40846000       5.51499000       2.84815000      -0.40431500       0.60200400      -0.38025800
P       17.81947000       7.75472000       2.49021000       0.11955700      -1.48995100       0.58594000
P       14.09780000       3.98284000       6.20048000       0.03412100       0.20532100       0.39410600
P       12.36285000       4.29617000       4.90383000       1.05956300       1.54794900       0.42291100
P       14.42100000       5.29084000       4.47173000      -1.87456600       0.22569900       1.37380200
P       13.09669000       5.99980000       6.41213000       0.60746800      -1.88523300      -2.25289400
P       15.72891000       8.22235000      14.34060000      -0.36154700       1.42858100      -0.81213200
P       15.03467000       6.77304000      12.76465000       0.71575000       1.12922800      -0.45853200
P       16.11610000       6.19548000      14.51760000       1.72527600      -1.58062500       0.05120500
P       17.25029000       7.45975000      12.87041000      -1.82574500      -0.98848400       1.11625700
P       15.87546000       1.93586000       0.19323000       0.73204100      -1.40109600      -0.08985900
P       16.16498000       4.02419000      18.94146000       0.15810600       0.58893400      -0.21620500
P       14.52177000       3.36155000       1.02344000      -0.73990000       0.67917200       0.49949500
P       14.46105000       2.92363000      18.07343000      -0.26838400       0.34175000      -0.01141500
P       14.24185000      15.90057000       2.23156000      -0.03508700      -1.45129700       0.39226600
P       15.75255000      15.02278000       3.57084000       1.62467900       0.26665300      -0.57781800
P       14.53652000      13.62016000       2.34641000       0.85128900       0.24694500      -1.35435900
P       13.74989000      14.61396000       4.00151000      -2.45262200       0.93978800       1.45716600
P       17.36657000      12.14807000       5.20848000       0.05787600       0.08628200       0.20926600
P       16.67008000      11.03775000       7.02773000       0.17480300       2.15054300       0.32825900
P       15.71051000      10.68473000       5.17485000      -0.78995400       0.90575500      -0.91767400
P       15.44099000      12.86230000       5.95187000       0.29915500      -2.05419300       0.71274600
P       16.63801000      14.76949000       9.99372000       0.53587800      -0.33470000      -0.89604500
P       17.62311000      16.67805000       9.67581000      -0.35617500       1.06116800      -0.48189300
P       18.22682000      15.03718000       8.30414000      -1.55268700      -0.00384700      -0.96717000
P       18.79349000      15.01723000      10.30507000       1.15668000      -0.84620900       2.39705400
P       14.25793000       8.24436000       0.29885000       0.75365700      -0.25047800       0.14913400
P       15.29435000       9.56155000      18.04078000      -0.88180900      -1.36215900      -0.12640800
P       13.39339000       8.37584000      17.54196000       0.38235700       0.55705000      -0.55120000
P       15.31600000       7.31613000      17.73457000      -0.30712600       0.76657700       0.61562600
P       12.09672000      17.65250000      19.19712000       0.63592600      -2.01862100      -0.78283300
P       13.07278000       0.20349000      18.74188000       0.82804400       1.31560300      -1.30999400
P       13.11498000      17.77546000      17.07300000      -0.48762800       0.68108900       2.11078900
P       14.42997000      17.70393000      18.86940000      -1.23472900      -0.26320200       0.00675600
P       14.12663000      16.08888000       7.23556000       1.03197800      -0.41513700       0.75603200
P       12.52932000      15.00409000       8.35433000      -0.01531200       0.39106100      -0.83055900
P       12.14626000      16.78241000       6.97946000      -0.96539700      -0.02398600       0.97501700
P       13.10301000      16.99928000       9.01336000       0.06853200       0.12078500      -0.71845900
248
Lattice="19.577111 0.0 0.0 0.0 19.577111 0.0 0.0 0.0 19.577111" Properties=species:S:1:pos:R:3:forces:R:3 energy=-1307.64853197552 hash=4bc068354c7e0ac46aabe6d5394a67ac virial="-22.3820422846 4.77856345205 -10.971851059 4.77856345205 -12.0118786678 -7.89218357075 -10.971851059 -7.89218357075 5.6096770135" config_type=liq_12_03_01_liqP4 pressure=-0.0012787562287043448 uploaded="2020-04-10 10:56:37.921000" hash_structure=43c6885f842ce4cccfd1f4be8a6457e1 filename=liq_12_03_01_liqP4/liq_12_03_01_liqP4_mbd2.xyz username=gabor stress="0.007716752196164085 -0.0012590848588881765 0.0018384786027203976 -0.0012590848588881765 0.006407342060053025 0.0003455704576421434 0.0018384786027203976 0.0003455704576421434 0.0037026143005630878" volume=7503.187678979971 n_atoms=248 free_energy=-1310.13427812 modified="2020-04-10 10:56:37.921000" formula=P248 miguel_caro=T pbc="T T T"
P        1.20759000       0.46672000      19.22911000       1.86757600       0.40379000      -2.01435100
P        2.95215000       1.02081000       1.16347000      -0.77125700       0.00625800      -1.20102400
P        1.70616000      18.83212000       1.32034000      -0.47513200      -0.20152500       0.96536300
P        0.80677000       1.36470000       1.46699000      -0.32773200       0.05444300       1.96337900
P       16.32430000       1.25370000       5.41599000      -0.83567100      -0.23720900      -0.28286100
P       16.26024000      19.27944000       3.74432000      -0.56056000       0.90054300      -0.19988700
P       17.64350000      19.10984000       5.35356000       0.74433200      -1.35995300       1.61869200
P       17.94761000       1.12911000       3.99258000       0.46024100       0.65748200      -1.18963700
P        2.99970000       6.46959000      11.85654000      -1.01645000       0.76221300      -0.74779000
P        1.08490000       5.55594000      12.88266000       0.49614600       0.98326400      -1.74133500
P        3.07441000       5.04087000      13.39948000       1.05545000      -1.65901600       0.72369000
P        2.32829000       4.44737000      11.32495000      -0.39472200       0.30426700       1.26060900
P       19.31787000      19.27645000      11.73511000       1.61977300      -0.14589800       1.95182000
P        1.66981000       0.54017000      12.95568000      -2.09508600      -1.93598600      -0.49650100
P        1.44876000      17.98549000      12.15416000       0.10781000       0.55979200       0.95097900
P        0.11887000      18.61419000      13.89930000       1.37924600       0.68596600      -1.62912700
P        1.21946000       8.18785000       4.88441000      -0.31624700       0.54649900      -0.06232700
P        2.56106000       9.74793000       4.12576000       0.70680000      -0.24142700      -0.46454400
P        0.56623000      10.34333000       4.65324000      -0.65316700      -0.57904900       0.20652900
P        0.86116000       9.03789000       2.87500000       0.19086700       0.20575000       0.36975100