104
Lattice="14.752975 0.0 0.0 0.0 12.828814 0.0 0.0 0.0 12.8717" Properties=species:S:1:pos:R:3:forces:R:3 energy=-563.505019660273 hash=65caec19db865b84795faa891699f15e virial="26.5960839552 0.0 0.0 0.0 -8.69836786862 0.0 0.0 0.0 9.45073549841" config_type=rss_3c pressure=0.0037420489448516097 uploaded="2020-04-10 10:56:53.323000" hash_structure=f5bb3ec5005e822dba26f0166ed6c15a filename=rss_3c/rss_3c_mbd2.xyz username=gabor stress="-0.002832716294315915 0.0 -0.0 0.0 0.005895255292494896 1.231456940039291e-07 -0.0 1.231456940039291e-07 0.00453168765192819" volume=2436.138773885412 n_atoms=104 free_energy=-570.88456 modified="2020-04-10 10:56:53.323000" formula=P104 miguel_caro=T pbc="T T T"
P        5.55284000       1.54336000       4.79899000      -0.03785000       0.12367100       0.00128700
P        3.40593000       1.92310000       4.54218000      -0.07452800       0.42675500       0.05189700
P        2.83521000      12.72241000       5.14557000      -0.37351700       0.00001100       0.12163100
P        0.61386000       0.19271000       4.91270000      -0.02386300      -0.24453300       0.03958900
P        6.32144000       3.56955000       4.26074000      -0.23670200      -0.06586700      -0.19844200
P        4.67563000       3.69629000       7.41183000       0.11030700       0.17297000      -0.28523800
P        2.84625000       3.29862000       6.23727000      -0.07830700      -0.35292500      -0.08138900
P        1.91349000       1.94200000       7.76613000       0.10888600       0.26920000      -0.18496600
P        0.02843000       1.52844000       6.62131000      -0.04150900       0.34727100       0.25086000
P        5.98915000       4.94149000       6.02491000      -0.18838400      -0.11384400      -0.07830600
P        5.84247000       1.90315000       6.94732000       0.13462200      -0.44642400       0.42231900
P        2.80712000      12.81238000       7.35081000       0.29772000      -0.18869300       0.08798700
P        4.90134000       0.16568000       7.93271000       0.17365500      -0.14545700       0.04756100
P        9.20015000       4.87104000       4.79899000       0.03780000      -0.12370300       0.00126100
P       11.34706000       4.49130000       4.54218000       0.07450100      -0.42671200       0.05186700
P       11.91778000       6.52081000       5.14557000       0.37343500      -0.00003200       0.12161700
P       14.13912000       6.22169000       4.91270000       0.02393000       0.24457600       0.03959800
P        8.43153000       2.84485000       4.26074000       0.23676100       0.06591700      -0.19843000
P       10.07734000       2.71812000       7.41183000      -0.11016500      -0.17309500      -0.28522200
P       11.90673000       3.11579000       6.23727000       0.07830000       0.35285700      -0.08133700
P       12.83948000       4.47241000       7.76613000      -0.10875900      -0.26920300      -0.18498200
P       14.72456000       4.88597000       6.62131000       0.04137300      -0.34732400       0.25091500
P        8.76383000       1.47291000       6.02491000       0.18835300       0.11387800      -0.07830200
P        8.91052000       4.51125000       6.94732000      -0.13474800       0.44652300       0.42226400
P       11.94585000       6.43084000       7.35081000      -0.29761500       0.18871100       0.08796500
P        9.85164000       6.24872000       7.93271000      -0.17371700       0.14550400       0.04758600
P        5.55284000      11.28544000       1.63686000      -0.03785800      -0.12358900      -0.00128700
P        3.40593000      10.90571000       1.89367000      -0.07454300      -0.42676400      -0.05189600
P        2.83521000       0.10640000       1.29028000      -0.37350800      -0.00000700      -0.12163400
P        0.61386000      12.63610000       1.52315000      -0.02386400       0.24459500      -0.03958500
P        6.32144000       9.25926000       2.17511000      -0.23668000       0.06581200       0.19845500
P        4.67563000       9.13252000      11.89572000       0.11030700      -0.17297200       0.28523000
P        2.84625000       9.53019000       0.19858000      -0.07831600       0.35292700       0.08138900
P        1.91349000      10.88681000      11.54142000       0.10887800      -0.26919300       0.18497000
P        0.02843000      11.30038000      12.68624000      -0.04150400      -0.34734500      -0.25086600
P        5.98915000       7.88732000       0.41094000      -0.18838400       0.11383700       0.07830300
P        5.84247000      10.92566000      12.36023000       0.13462300       0.44641600      -0.42233500
P        2.80712000       0.01643000      11.95674000       0.29772800       0.18869900      -0.08798700
P        4.90134000      12.66313000      11.37484000       0.17365500       0.14546000      -0.04755700
P        9.20015000       7.95776000       1.63686000       0.03779900       0.12379200      -0.00127000
P       11.34706000       8.33751000       1.89367000       0.07448900       0.42672500      -0.05189100
P       11.91778000       6.30800000       1.29028000       0.37344300       0.00004300      -0.12162700
P       14.13912000       6.60712000       1.52315000       0.02392200      -0.24457000      -0.03960300
P        8.43153000       9.98396000       2.17511000       0.23678500      -0.06597600       0.19841700
P       10.07734000      10.11070000      11.89572000      -0.11019000       0.17301500       0.28523600
P       11.90673000       9.71303000       0.19858000       0.07829000      -0.35291400       0.08135900
P       12.83948000       8.35641000      11.54142000      -0.10877400       0.26912500       0.18500900
P       14.72456000       7.94284000      12.68624000       0.04135900       0.34733400      -0.25091900
P        8.76383000      11.35590000       0.41094000       0.18833900      -0.11386600       0.07831700
P        8.91052000       8.31756000      12.36023000      -0.13470900      -0.44647700      -0.42225800
P       11.94585000       6.39797000      11.95674000      -0.29759000      -0.18863700      -0.08797500
P        9.85164000       6.58009000      11.37484000      -0.17371400      -0.14549900      -0.04758700
P        9.20015000      11.28544000       8.07271000       0.03781200      -0.12362800      -0.00126900
P       11.34706000      10.90571000       8.32952000       0.07450900      -0.42678200      -0.05187200
P       11.91778000       0.10640000       7.72613000       0.37343700       0.00001200      -0.12163700
P       14.13912000      12.63610000       7.95900000       0.02393300       0.24458600      -0.03961000
P        8.43153000       9.25926000       8.61096000       0.23674200       0.06586200       0.19844200
P       10.07734000       9.13252000       5.45987000      -0.11019000      -0.17302100       0.28522300
P       11.90673000       9.53019000       6.63443000       0.07829900       0.35289700       0.08135900
P       12.83948000      10.88681000       5.10557000      -0.10876300      -0.26916800       0.18499600
P       14.72456000      11.30038000       6.25039000       0.04136100      -0.34734800      -0.25090200
P        8.76383000       7.88732000       6.84679000       0.18835000       0.11383300       0.07832400
P        8.91052000      10.92566000       5.92438000      -0.13471600       0.44646100      -0.42229000
P       11.94585000       0.01643000       5.52089000      -0.29760200       0.18869400      -0.08796900
P        9.85164000      12.66313000       4.93899000      -0.17370700       0.14547500      -0.04759200
P        5.55284000       7.95776000       8.07271000      -0.03784400       0.12375300      -0.00128900
P        3.40593000       8.33751000       8.32952000      -0.07452300       0.42670600      -0.05191400
P        2.83521000       6.30800000       7.72613000      -0.37351400       0.00006200      -0.12162400
P        0.61386000       6.60712000       7.95900000      -0.02385300      -0.24457900      -0.03957800
P        6.32144000       9.98396000       8.61096000      -0.23672300      -0.06592600       0.19843000
P        4.67563000      10.11070000       5.45987000       0.11030700       0.17296700       0.28524300
P        2.84625000       9.71303000       6.63443000      -0.07830600      -0.35294300       0.08139000
P        1.91349000       8.35641000       5.10557000       0.10889000       0.26915100       0.18498300
P        0.02843000       7.94284000       6.25039000      -0.04150100       0.34733100      -0.25088300
P        5.98915000      11.35590000       6.84679000      -0.18837300      -0.11387000       0.07829700
P        5.84247000       8.31756000       5.92438000       0.13461700      -0.44643200      -0.42230300
P        2.80712000       6.39797000       5.52089000       0.29771600      -0.18864200      -0.08799300
P        4.90134000       6.58009000       4.93899000       0.17366200      -0.14548300      -0.04755100
P        9.20015000       1.54336000      11.23484000       0.03780400       0.12370900       0.00126900
P       11.34706000       1.92310000      10.97803000       0.07449400       0.42677400       0.05187400
P       11.91778000      12.72241000      11.58142000       0.37344500      -0.00000800       0.12163400
P       14.13912000       0.19271000      11.34855000       0.02393200      -0.24452400       0.03961400
P        8.43153000       3.56955000      10.69659000       0.23676400      -0.06591700      -0.19842900
P       10.07734000       3.69629000       0.97598000      -0.11019100       0.17301800      -0.28523100
P       11.90673000       3.29862000      12.67312000       0.07829100      -0.35289600      -0.08135800
P       12.83948000       1.94200000       1.33028000      -0.10877000       0.26917400      -0.18499300
P       14.72456000       1.52844000       0.18546000       0.04136700       0.34727400       0.25089700
P        8.76383000       4.94149000      12.46076000       0.18835000      -0.11384000      -0.07832700
P        8.91052000       1.90315000       0.51147000      -0.13471500      -0.44646900       0.42227300
P       11.94585000      12.81238000       0.91496000      -0.29759400      -0.18868800       0.08796900
P        9.85164000       0.16568000       1.49686000      -0.17370700      -0.14547200       0.04759600
P        5.55284000       4.87104000      11.23484000      -0.03784600      -0.12366500       0.00127900
P        3.40593000       4.49130000      10.97803000      -0.07453600      -0.42669400       0.05189000
P        2.83521000       6.52081000      11.58142000      -0.37350700      -0.00005200       0.12161400
P        0.61386000       6.22169000      11.34855000      -0.02386100       0.24458600       0.03957400
P        6.32144000       2.84485000      10.69659000      -0.23669900       0.06586700      -0.19844300
P        4.67563000       2.71812000       0.97598000       0.11028200      -0.17304700      -0.28522900
P        2.84625000       3.11579000      12.67312000      -0.07831700       0.35288700      -0.08136700
P        1.91349000       4.47241000       1.33028000       0.10887400      -0.26922900      -0.18495600
P        0.02843000       4.88597000       0.18546000      -0.04151500      -0.34732000       0.25087800
P        5.98915000       1.47291000      12.46076000      -0.18838800       0.11388200      -0.07828100
P        5.84247000       4.51125000       0.51147000       0.13465500       0.44647900       0.42230900
P        2.80712000       6.43084000       0.91496000       0.29774100       0.18871600       0.08798300
P        4.90134000       6.24872000       1.49686000       0.17366400       0.14548900       0.04755100
104
Lattice="14.889483 0.0 0.0 0.0 12.391801 -1e-06 0.0 -2e-06 13.347013" Properties=species:S:1:pos:R:3:forces:R:3 energy=-563.375130905697 hash=2a03cfe65dbe78e74669f4a756e0817d virial="26.3757318784 0.0 0.0 0.0 11.6352465281 -0.0 0.0 -0.0 5.35105200861" config_type=rss_3c pressure=0.005869352902749718 uploaded="2020-04-10 10:56:53.293000" hash_structure=389247ae759652655bed27dccf1a710e filename=rss_3c/rss_3c_mbd2.xyz username=gabor stress="-0.004506712910196509 1.218212699429782e-08 -1.218212699429782e-08 1.218212699429782e-08 -0.000794891907795929 -6.497134396958838e-08 -1.218212699429782e-08 -6.497134396958838e-08 0.00531059522771423" volume=2462.6241389572056 n_atoms=104 free_energy=-569.77517532 modified="2020-04-10 10:56:53.293000" formula=P104 miguel_caro=T pbc="T T T"
P       13.33855000       1.06165000      11.95313000      -0.28772000       0.24169400       0.20446500
P       11.16165000       1.34697000      11.59177000      -0.06232000       0.26920300       0.17145000
P       10.27593000      11.89413000      12.35433000      -0.11250100       0.30903100      -0.06457100
P        8.16584000       0.09854000      11.85261000      -0.08902100      -0.10832200       0.17290700
P       13.77690000       3.12620000      11.20159000       0.01251200       0.17533100      -0.18356600
P       12.15737000       3.40535000       0.98354000       0.29141900      -0.06172800      -0.10789000
P       10.45252000       2.90202000      13.05469000      -0.11314100      -0.24232500      -0.32636700
P        9.40458000       1.86157000       1.37042000       0.10870200      -0.10394000      -0.14183000
P        7.55619000       1.51609000       0.15572000       0.07090800       0.21124600       0.14839800
P       13.37872000       4.56250000      12.87660000       0.09643800      -0.12197000      -0.33256600
P       13.41294000       1.59319000       0.76070000       0.13859500      -0.08949900       0.31682000
P       10.24094000      12.20672000       1.19632000      -0.01344900      -0.09034100       0.00070200
P       12.35360000      12.32120000       1.74348000       0.19265700      -0.18311900      -0.13572600
P        1.55096000       5.13427000      11.95313000       0.28789300      -0.24169600       0.20445000
P        3.72788000       4.84895000      11.59177000       0.06221100      -0.26913800       0.17149600
P        4.61360000       6.69360000      12.35433000       0.11248300      -0.30911900      -0.06459600
P        6.72369000       6.09738000      11.85261000       0.08901100       0.10835800       0.17291800
P        1.11262000       3.06972000      11.20159000      -0.01250400      -0.17534000      -0.18355700
P        2.73215000       2.79057000       0.98354000      -0.29134400       0.06179000      -0.10790700
P        4.43701000       3.29390000      13.05469000       0.11306000       0.24233800      -0.32635900
P        5.48494000       4.33435000       1.37042000      -0.10864200       0.10407700      -0.14184800
P        7.33334000       4.67984000       0.15572000      -0.07096800      -0.21127300       0.14844000
P        1.51081000       1.63342000      12.87660000      -0.09650300       0.12197800      -0.33258800
P        1.47659000       4.60274000       0.76070000      -0.13860400       0.08946300       0.31682200
P        4.64859000       6.38102000       1.19632000       0.01347500       0.09021400       0.00070900
P        2.53593000       6.26653000       1.74348000      -0.19264600       0.18312700      -0.13573900
P        5.89381000       5.13427000       8.06739000      -0.28773900      -0.24167900      -0.20444400
P        3.71691000       4.84895000       8.42875000      -0.06234700      -0.26915000      -0.17147500
P        2.83119000       6.69360000       7.66619000      -0.11248200      -0.30909800       0.06461500
P        0.72110000       6.09738000       8.16790000      -0.08901000       0.10838000      -0.17280400
P        6.33215000       3.06972000       8.81893000       0.01258600      -0.17533700       0.18357600
P        4.71263000       2.79057000       5.68996000       0.29144500       0.06178300       0.10795000
P        3.00778000       3.29390000       6.96583000      -0.11310900       0.24234300       0.32635000
P        1.95984000       4.33435000       5.30309000       0.10871900       0.10406900       0.14182900
P        0.11145000       4.67984000       6.51779000       0.07089700      -0.21131000      -0.14846200
P        5.93398000       1.63342000       7.14392000       0.09641500       0.12200000       0.33253200
P        5.96820000       4.60274000       5.91281000       0.13854500       0.08943500      -0.31687200
P        2.79620000       6.38102000       5.47719000      -0.01355100       0.09020100      -0.00071900
P        4.90885000       6.26653000       4.93003000       0.19272600       0.18307300       0.13569900
P        8.99570000       1.06165000       8.06739000       0.28789900       0.24171700      -0.20443700
P       11.17262000       1.34698000       8.42875000       0.06220800       0.26910300      -0.17146300
P       12.05834000      11.89413000       7.66619000       0.11245500       0.30908600       0.06460500
P       14.16843000       0.09854000       8.16790000       0.08901300      -0.10831400      -0.17279700
P        8.55736000       3.12620000       8.81893000      -0.01254900       0.17534900       0.18356400
P       10.17689000       3.40535000       5.68996000      -0.29132200      -0.06173800       0.10796100
P       11.88175000       2.90202000       6.96583000       0.11303900      -0.24224900       0.32633100
P       12.92968000       1.86157000       5.30309000      -0.10860700      -0.10395600       0.14180800
P       14.77808000       1.51609000       6.51779000      -0.07093200       0.21128200      -0.14845600
P        8.95555000       4.56250000       7.14392000      -0.09646100      -0.12196600       0.33258300
P        8.92133000       1.59319000       5.91281000      -0.13863500      -0.08952000      -0.31685100
P       12.09333000      12.20672000       5.47719000       0.01343000      -0.09036700      -0.00073000
P        9.98067000      12.32120000       4.93003000      -0.19265000      -0.18311200       0.13570100
P        1.55096000      11.33017000       1.39388000       0.28789100      -0.24169600      -0.20445600
P        3.72788000      11.04485000       1.75524000       0.06220900      -0.26910700      -0.17147200
P        4.61360000       0.49770000       0.99268000       0.11246400      -0.30911200       0.06460300
P        6.72369000      12.29329000       1.49440000       0.08900400       0.10830800      -0.17291500
P        1.11262000       9.26562000       2.14542000      -0.01249800      -0.17531000       0.18358900
P        2.73215000       8.98647000      12.36347000      -0.29127800       0.06176400       0.10792000
P        4.43701000       9.48980000       0.29233000       0.11308000       0.24235600       0.32626200
P        5.48494000      10.53025000      11.97659000      -0.10866600       0.10405600       0.14189500
P        7.33334000      10.87574000      13.19129000      -0.07097300      -0.21125800      -0.14843200
P        1.51081000       7.82933000       0.47041000      -0.09649300       0.12189000       0.33259100
P        1.47659000      10.79863000      12.58631000      -0.13860400       0.08958000      -0.31684600
P        4.64859000       0.18512000      12.15069000       0.01347800       0.09019400      -0.00070200
P        2.53593000       0.07063000      11.60353000      -0.19265800       0.18305500       0.13574900
P       13.33855000       7.25756000       1.39388000      -0.28773000       0.24162200      -0.20446900
P       11.16165000       7.54288000       1.75524000      -0.06233400       0.26910000      -0.17142400
P       10.27593000       5.69823000       0.99268000      -0.11247800       0.30908200       0.06459400
P        8.16584000       6.29444000       1.49440000      -0.08901600      -0.10830200      -0.17291600
P       13.77690000       9.32210000       2.14542000       0.01251900       0.17538400       0.18358700
P       12.15737000       9.60125000      12.36347000       0.29137200      -0.06174200       0.10791600
P       10.45252000       9.09792000       0.29233000      -0.11314100      -0.24227700       0.32625400
P        9.40458000       8.05747000      11.97659000       0.10873000      -0.10398900       0.14187300
P        7.55619000       7.71199000      13.19129000       0.07090600       0.21119700      -0.14841200
P       13.37872000      10.75840000       0.47041000       0.09644200      -0.12195000       0.33256800
P       13.41294000       7.78909000      12.58631000       0.13859900      -0.08948600      -0.31683000
P       10.24094000       6.01081000      12.15069000      -0.01347000      -0.09026200      -0.00070500
P       12.35360000       6.12530000      11.60353000       0.19264800      -0.18313600       0.13573000
P        8.99570000       7.25755000       5.27962000       0.28789000       0.24172600       0.20451600
P       11.17262000       7.54288000       4.91827000       0.06219400       0.26910400       0.17140000
P       12.05834000       5.69823000       5.68082000       0.11247000       0.30906800      -0.06452000
P       14.16843000       6.29444000       5.17911000       0.08902500      -0.10830700       0.17286300
P        8.55736000       9.32210000       4.52808000      -0.01254600       0.17534300      -0.18355700
P       10.17689000       9.60125000       7.65705000      -0.29132200      -0.06172800      -0.10794700
P       11.88175000       9.09792000       6.38118000       0.11304700      -0.24223900      -0.32630900
P       12.92968000       8.05747000       8.04392000      -0.10862400      -0.10394100      -0.14177100
P       14.77808000       7.71199000       6.82923000      -0.07092400       0.21124500       0.14840200
P        8.95555000      10.75840000       6.20309000      -0.09647800      -0.12199200      -0.33256200
P        8.92133000       7.78909000       7.43421000      -0.13863800      -0.08952300       0.31677200
P       12.09333000       6.01082000       7.86983000       0.01343300      -0.09038200       0.00065000
P        9.98067000       6.12530000       8.41699000      -0.19265700      -0.18312600      -0.13573800
P        5.89381000      11.33017000       5.27962000      -0.28773100      -0.24168800       0.20452200
P        3.71691000      11.04485000       4.91827000      -0.06234000      -0.26914600       0.17141100
P        2.83119000       0.49770000       5.68082000      -0.11248100      -0.30908600      -0.06452500
P        0.72110000      12.29329000       5.17911000      -0.08902000       0.10831600       0.17286400
P        6.33215000       9.26562000       4.52808000       0.01258100      -0.17533300      -0.18357100
P        4.71263000       8.98647000       7.65705000       0.29144400       0.06177300      -0.10793500
P        3.00778000       9.48980000       6.38118000      -0.11311800       0.24233900      -0.32632700
P        1.95984000      10.53025000       8.04392000       0.10874200       0.10407000      -0.14179800
P        0.11145000      10.87574000       6.82923000       0.07091000      -0.21127700       0.14835600
P        5.93398000       7.82932000       6.20309000       0.09643200       0.12202900      -0.33251100
P        5.96820000      10.79864000       7.43421000       0.13854700       0.08944400       0.31679400
P        2.79620000       0.18512000       7.86983000      -0.01355700       0.09020400       0.00064300
P        4.90885000       0.07063000       8.41699000       0.19273300       0.18308400      -0.13573600
104
Lattice="12.943911 0.24864 -0.016578 0.24758 13.078507 -0.10008 -0.023239 -0.133746 16.279084" Properties=species:S:1:pos:R:3:forces:R:3 energy=-560.600860262449 hash=e4724269cb8291177014383e86479694 virial="9.43688046502 -2.29643045408 -1.48755793306 -2.29643045408 17.2412984863 -0.689551531013 -1.48755793306 -0.689551531013 -1.39997563866" config_type=rss_3c pressure=0.0030588429534144515 uploaded="2020-04-10 10:56:53.299000" hash_structure=2f85a93544bd858272d2942ccbbe2898 filename=rss_3c/rss_3c_mbd2.xyz username=gabor stress="0.0007228772616000664 0.0003348219014498078 0.0004860493579789527 0.0003348219014498078 -0.0014057386738237643 0.00015147068086990666 0.0004860493579789527 0.00015147068086990666 -0.006432506947343294" volume=2754.658509512892 n_atoms=104 free_energy=-568.50559371 modified="2020-04-10 10:56:53.299000" formula=P104 miguel_caro=T pbc="T T T"
P       11.56466000      11.71978000       2.43582000      -0.34818100       0.03761800      -0.33750900
P       11.51399000      10.28244000       4.11301000      -0.19612400      -0.14800500      -0.12211600
P       11.50866000      11.84246000       5.67230000      -0.35750600      -0.07513600       0.40571100
P       11.32961000      10.55544000       7.56835000       0.33348200       0.10748900      -0.06323500
P       11.36653000      10.43519000       0.54418000       0.46574300       0.06773700       0.07305700
P        8.41953000      10.30399000       2.34860000       0.17402400      -0.21230100       0.09854200
P        9.47892000       9.35829000       4.07124000       0.02986500       0.24579400       0.00742400
P        8.37528000      10.36833000       5.72777000       0.26781600      -0.23513700       0.00411600
P        9.52161000       9.27819000       7.32820000      -0.37829500      -0.40450200      -0.27791800
P        9.55102000       9.18788000       0.76564000      -0.40421100      -0.68248900       0.33521300
P        9.42757000      12.27072000       2.11207000      -0.02589200       0.22733700       0.22343500
P        9.36073000      12.35953000       5.93696000      -0.08744300       0.12869100      -0.28606100
P        8.55582000      12.90350000       3.99024000      -0.26202400       0.41407900       0.09675600
P        1.67220000       1.41810000       2.34905000       0.35638100       0.07840100      -0.40954000
P        1.66806000       2.97743000       3.90906000       0.19070600       0.14453700       0.12736100
P        1.61706000       1.53883000       5.58569000       0.34924400      -0.03198800       0.34146300
P        1.81424000       2.82386000       7.47870000      -0.48270700      -0.07445300      -0.08240700
P        1.84999000       2.70680000       0.45327000      -0.33482100      -0.10205800       0.06775800
P        4.80419000       2.89448000       2.29303000      -0.26351200       0.23294700      -0.00085500
P        3.70225000       3.90173000       3.95210000      -0.02744400      -0.24432200      -0.01133300
P        4.76254000       2.95520000       5.67444000      -0.17682200       0.21200300      -0.10417600
P        3.62796000       4.07029000       7.25545000       0.41443100       0.69595200      -0.32552100
P        3.65850000       3.98484000       0.69258000       0.37387400       0.39692200       0.27814800
P        3.81996000       0.90254000       2.08223000       0.08960500      -0.12924400       0.28786300
P        3.75452000       0.98849000       5.90958000       0.02336200      -0.22883800      -0.22580600
P        4.62487000       0.35887000       4.02936000       0.26337600      -0.42068500      -0.08939100
P       11.41600000       1.89460000      13.69041000      -0.08526400       0.42403400       0.39627500
P        9.95914000       2.00931000      12.04039000      -0.33606100       0.23800300       0.10580500
P       11.45166000       2.02195000      10.44108000      -0.12279500       0.40238200      -0.46844300
P       10.03836000       2.21202000       8.63452000       0.23250600      -0.29792100       0.01057100
P       10.04498000       2.01667000      15.52042000       0.08776100      -0.28489400       0.16010000
P        9.97948000       5.06385000      13.83963000      -0.18733500      -0.31068400       0.05488200
P        9.02188000       4.06409000      12.10844000       0.19041400      -0.26448000       0.02745900
P        9.95475000       5.17064000      10.43283000      -0.15479400      -0.25158200      -0.02958300
P        8.74879000       4.00422000       8.89693000      -0.19101000       0.44667600       0.32952000
P        8.76321000       3.83317000      15.32729000      -0.13317600       0.43066500      -0.32736000
P       11.95476000       4.03374000      14.03792000       0.10068200       0.10204200      -0.26337000
P       11.94706000       4.18053000      10.21152000       0.14435000       0.11890600       0.22426900
P       12.64760000       4.88573000      12.15138000       0.44791800       0.16860800       0.03224000
P        1.70872000      11.10480000      13.86087000       0.12346000      -0.39962400       0.47490900
P        3.20044000      11.11226000      12.26045000       0.33096000      -0.25033000      -0.09924100
P        1.74096000      11.23315000      10.61258000       0.08270100      -0.42618300      -0.39693400
P        3.10908000      11.10916000       8.78138000      -0.08419000       0.28482100      -0.16050300
P        3.12012000      10.91159000      15.66957000      -0.23086800       0.31084300      -0.01974400
P        3.19611000       7.95153000      13.87593000       0.15969800       0.25132700       0.01682000
P        4.12529000       9.05142000      12.19393000      -0.17395500       0.27276300      -0.03386500
P        3.16668000       8.05938000      10.45833000       0.19729900       0.31146100      -0.04524200
P        4.39014000       9.29231000       8.97700000       0.12784800      -0.42986500       0.32680600
P        4.40873000       9.11986000      15.40567000       0.18962300      -0.45213700      -0.32884100
P        1.20749000       8.94784000      14.09532000      -0.15339100      -0.11389400      -0.22289500
P        1.19460000       9.09534000      10.26306000      -0.09840300      -0.09280000       0.26404200
P        0.50942000       8.24536000      12.15346000      -0.44875900      -0.17156600      -0.03679500
P       10.84316000       2.22637000       2.48414000      -0.29290100       0.05596300       0.20980700
P       11.28758000       3.80122000       3.98025000       0.23484300      -0.01895100       0.07241700
P       10.81080000       2.29253000       5.54161000      -0.23371000       0.10219200      -0.44413800