248
Lattice="19.207643 0.0 0.0 0.0 19.207643 0.0 0.0 0.0 19.207643" Properties=species:S:1:pos:R:3:forces:R:3 energy=-1306.141840609165 hash=0a52d05be110f62b0b8ba1dd06f580af virial="0.494352900131 -7.65209813893 7.72109612803 -7.65209813893 14.1363610828 -13.2346104406 7.72109612803 -13.2346104406 19.6957855958" config_type=liq_12_03_01_liqP4 pressure=0.0016146784108647724 uploaded="2020-04-10 10:56:38.097000" hash_structure=7256de5227695c2198da4cf346617eea filename=liq_12_03_01_liqP4/liq_12_03_01_liqP4_mbd2.xyz username=gabor stress="0.00399042586024749 0.0008414861138935189 -0.001161885466264731 0.0008414861138935189 0.0033525708455460555 0.0016487161991460965 -0.001161885466264731 0.0016487161991460965 0.0019518443039565883" volume=7086.343911736328 n_atoms=248 free_energy=-1310.85738039 modified="2020-04-10 10:56:38.097000" formula=P248 miguel_caro=T pbc="T T T"
P       19.07786000       1.83802000       2.14603000       1.10424800       0.58608100      -0.07656500
P        1.84009000       2.77358000       1.36927000      -1.03903800      -0.99088400       1.14216800
P        1.74336000       0.66243000       2.09671000      -0.04113300      -0.41428700      -1.07263400
P        1.56765000       2.19952000       3.55407000      -0.30709400       0.72407800      -0.45619400
P       17.28258000      18.89348000       5.16478000      -0.24277400       0.77391200       0.60859700
P       15.20283000      18.88955000       4.58162000      -0.62607500       0.24369600      -1.65148000
P       16.13352000       1.63244000       5.24472000       0.07622300      -0.54539800      -0.60955000
P       15.56991000       0.04130000       6.60745000       0.76127900      -0.22013100       1.57475000
P        2.46893000       6.49209000       9.63336000      -0.29936300       0.85050200       0.25894900
P        0.67446000       6.85221000      11.06187000       0.83619300       1.23609000       0.69284700
P        1.57443000       4.92107000      10.78613000       1.06970700      -2.08047300       1.99028100
P        0.45238000       5.76483000       9.27418000      -1.62337600      -0.04344300      -2.87914000
P        2.46336000      18.93916000      13.69707000      -0.60398000       0.94902200       0.02002500
P        0.72883000       0.26124000      12.17388000       1.61753700      -1.71074400       1.48876800
P        1.05738000      17.37769000      13.20124000      -0.39384300       0.84845200      -0.97145400
P        2.49231000      18.17408000      11.69484000      -0.43255900      -0.24259000      -0.57580200
P        1.38800000       9.37700000       6.05427000      -0.04084100      -0.19001600      -0.79635600
P        2.10276000       9.39052000       3.85828000      -1.42023600       0.23063200       1.29910300
P        1.78441000      11.24473000       4.98965000      -0.66437300      -0.20942000      -0.27296500
P       19.02665000      10.08705000       4.61127000       2.59769700      -0.37281300      -0.27517600
P       17.12988000       8.17216000       9.35508000      -1.19027100      -0.17789700      -0.70888200
P       16.12170000       6.39269000       8.45186000       0.10795500       0.70998400      -0.00932900
P       15.74389000       8.45077000       7.56637000       0.36473200      -1.11981200       0.86542200
P       14.90429000       7.89065000       9.53083000       0.63482000      -0.04648100       0.09328600
P        3.95699000       6.81330000      12.71951000      -1.02758900       0.46315400       0.33342900
P        5.58345000       8.01383000      12.12671000       1.62206500       0.61016700       0.37698900
P        4.26220000       8.76199000      13.83772000       0.07002200      -0.61629600      -1.95075200
P        3.67527000       8.78640000      11.58075000      -0.62116100      -0.39165800       1.38899700
P        1.01983000       8.93949000      14.88483000      -1.71286100      -0.46083800      -0.47391100
P        2.45900000       8.55236000      16.32550000       0.68400300      -1.10878200       1.20197900
P        1.53976000       6.79518000      15.20026000       0.09823000       0.95978600       0.55990600
P        0.39531000       7.81703000      16.83387000       0.71594900       0.56675100      -1.33741100
P        6.11089000      12.48537000       4.19445000       0.74908800      -2.45838300       1.38779400
P        5.05776000      13.62600000       2.84621000      -0.78035400       1.78179200      -0.76340100
P        6.35435000      14.57964000       4.48239000      -0.71235600       0.35601900      -0.20357900
P        4.35606000      13.64102000       4.95309000       0.88460000      -0.25879800      -0.44061900
P        9.90000000      12.31790000       7.53923000      -1.01481200       0.90399800       0.15644700
P        8.94634000      14.24892000       6.79370000      -0.21010200      -1.59465100       1.30627700
P        8.91260000      13.71602000       9.04242000      -0.63278900      -0.98589800      -2.54851000
P        7.66022000      12.40318000       7.32798000       1.81022600       1.60303600       1.04473600
P        2.69679000      14.27808000      15.94839000      -1.36034400      -0.40911700      -0.45682000
P        2.86109000      12.91954000      14.26064000       1.42148600      -0.14696600      -1.22802300
P        1.32900000      14.50106000      14.14683000       0.35694700      -0.53139100       0.68679900
P        1.11737000      12.66089000      15.38832000      -0.56471700       0.82187600       1.13223200
P        0.19580000      11.36124000      18.52324000      -0.86316300      -0.28898700      -1.16913300
P        0.73462000      13.00233000       0.61568000      -0.19815100       0.06108300       0.55495600
P        1.50957000      10.97325000       0.94404000       0.91430900      -0.28700500       0.79520100
P       18.60458000      11.35195000       1.36954000       0.07063200       0.54046600      -0.18017300
P        1.19715000      17.04527000       4.98874000       1.10923300      -0.04346600       0.74243100
P       18.42777000      16.21705000       5.00572000      -0.92194800      -1.02173800       1.00953100
P        0.94096000      14.88444000       4.38589000      -0.22812000       0.58973200       0.41989100
P        0.21693000      16.52856000       3.16165000      -0.02554300       0.24042200      -2.06829300
P        1.01236000       9.92171000       9.41814000      -0.41301100      -1.86195600       0.14149200
P        2.74727000      11.18371000       9.52578000       0.22533600       0.58146200       0.73670500
P        0.64855000      11.77436000      10.43653000       1.60768900       0.61256600      -0.10960300
P        1.06560000      11.70892000       8.28212000      -0.53307000       1.08361300      -1.33185800
P        3.80117000      14.58010000       9.21055000       1.22195500       0.18918600       1.86775600
P        2.24618000      16.10580000       9.15115000       0.26780600      -0.50668100      -1.03309400
P        3.10839000      14.84849000       7.29066000      -1.19514400       1.66839200      -0.54449600
P        4.19877000      16.60672000       8.25185000      -0.47994600      -1.22212400      -0.00605300
P       18.95602000      17.58850000      16.76564000       2.26293800      -0.18113000      -0.51540200
P        0.17738000      16.52856000      18.76414000      -1.45086000       1.54995800      -1.25171300
P       17.30463000      17.17667000      17.94221000      -0.78634600      -0.95144500       1.47774900
P       18.68312000      18.71819000      18.61599000       0.48683100      -0.62646300       0.38274200
P        3.75807000       6.26861000      18.83772000      -0.91723300       0.19829600       0.92020300
P        2.61018000       7.54484000       1.11055000       0.31060500       0.28189500      -0.51252300
P        3.24836000       5.54686000       1.67318000       0.19605900      -0.09531100      -0.10791300
P        1.62066000       5.81509000       0.21568000       0.30456200      -0.04737100      -0.25266400
P        5.73652000       1.66169000       1.67546000       0.03048400       1.13496900       0.88318800
P        6.35060000       3.33481000       0.45547000      -0.18866800       0.47802200      -1.96549300
P        7.57211000       2.81834000       2.13116000       1.71852600      -1.62503000      -0.13139800
P        5.87254000       3.90499000       2.45391000      -2.63789200       0.20514800       0.79455500
P        5.42576000       3.49020000      10.25292000       0.59697300       1.19005700       0.27465500
P        7.27570000       2.17394000      10.41615000      -1.46542100       0.05779600      -0.62822600
P        5.46932000       1.76824000       8.99459000       0.67822800      -0.78627100       0.46593700
P        5.29405000       1.57762000      11.22531000       0.07197400      -0.72959600      -0.13167800
P        3.35427000       1.64202000      17.24673000      -0.41448200       1.36961400      -0.33818900
P        3.59075000       3.92502000      16.73871000      -0.67772300      -1.11079300       0.11574800
P        2.51259000       2.49734000      15.35809000       0.59602400       0.30439200       0.55966700
P        4.70537000       2.43007000      15.66162000      -0.18051200      -0.94858800       0.40815200
P        6.00329000       7.31035000       2.68615000       0.44472000       0.63248500       0.40251000
P        5.65367000       9.45857000       3.28249000       0.32117200      -0.65204100      -0.11493000
P        5.80178000       8.87166000       1.18198000      -0.17935200       0.16049800      -0.44159600
P        7.62584000       8.86331000       2.39779000      -0.97508700      -0.40325600       0.50569600
P        4.12384000       5.69345000       5.02247000      -0.42447900      -0.44150000      -0.29225600
P        2.54302000       4.19741000       5.60064000      -0.22843100       0.62085200      -0.32097600
P        3.89429000       5.02163000       7.08019000       0.51332400      -0.29422700       0.56546900
P        4.63139000       3.59978000       5.52944000       0.24135600       0.21064100       0.21060100
P        7.16902000       4.87340000      14.62399000       0.03572400      -0.19353600      -0.90143100
P        7.99426000       2.85086000      14.67026000      -0.76349500      -0.09091400       0.72092900
P        8.00457000       3.76558000      12.78294000       0.37725900       1.66394800      -1.05148000
P        6.05554000       3.22750000      13.59782000       0.26682300       0.43145600      -0.06017100
P        5.93879000       7.92982000      16.15797000       0.77174100       0.27557400       0.17531600
P        7.04761000       9.53081000      17.26331000       0.40266900      -1.04110700      -1.74570600
P        7.50927000       9.02606000      14.99429000      -0.02232700      -0.86394300       2.62925600
P        8.04625000       7.56964000      16.84954000      -0.82212900       1.29486100      -1.33888600
P        4.94900000       8.97033000       8.68462000       0.06589700       2.54299100       2.67293900
P        4.30612000       8.13572000       6.96665000      -1.72784800      -1.83659100      -2.55136400
P        6.42211000       8.21559000       7.41553000       1.18314200      -0.05867300      -1.39270000
P        5.27188000      10.02001000       6.64058000       0.47174500      -0.28415000       1.13817300
P       12.80679000      14.04805000      13.05353000       0.68475500      -1.49858200      -1.22428000
P       10.75922000      14.57376000      12.07256000       0.47652300      -1.03702000      -0.49591900
P       12.40551000      15.95804000      12.13510000       0.65395500       1.29517400      -0.55666000
P       11.41981000      15.30227000      13.95082000      -1.16565900       1.64604300       2.13705500
P        8.03025000      13.40002000      12.30374000      -1.80778300      -1.23217900       0.05223000
P        6.64961000      11.78925000      13.22450000       0.83522800       0.64520500      -1.42363600
P        7.13134000      11.85532000      10.93656000       0.71183500      -0.67780800       0.99090100
P        5.78934000      13.24394000      11.81660000       0.09605000       0.88292500       0.57302100
P        4.09323000      13.02198000      18.91425000       1.30840400      -0.87061600      -0.96979900
P        5.98284000      11.70095000      18.94398000       0.06004100       1.18584900       0.74725600
P        5.46713000      12.80773000      17.08314000       0.03819000       0.65211100       0.61109600
P        4.32896000      11.12687000      17.74827000      -1.66297200      -0.71256500      -0.27999200
P        5.05559000      16.96031000       4.90175000      -0.88929900       1.82580900      -1.55411500
P        5.77822000      17.89196000       2.94540000       0.41434900      -0.41959100       0.54042400
P        4.94873000      19.19351000       4.50598000      -0.29065400      -0.42165300      -0.12238300
P        3.61741000      17.96637000       3.18682000       0.87174600      -0.60141500       1.37620500
P        0.99805000       0.25706000       8.63286000       0.36702100       0.47429400      -0.60434900
P        1.84415000       2.32447000       8.51112000      -0.07144500      -1.05645400      -0.59491500
P        2.82366000       0.61126000       7.39644000      -0.44144000       0.37914600       0.47720300
P        0.88468000       1.38543000       6.71146000       0.03499200       0.08458800       0.61556900
P        5.76379000      16.61532000      12.49207000       1.57906600       0.50910800      -0.32068600
P        6.89284000      18.36218000      13.30051000       0.00519000      -0.08895600      -0.63561300
P        8.05816000      17.05147000      11.85371000      -1.92520100       0.08556200       1.05265500
P        7.45823000      16.35327000      13.88960000       0.14854000      -0.04539000      -0.47902700
P        5.17089000      18.70417000      18.39844000      -0.00675400      -0.21230200      -0.03693900
P        4.29921000      17.60734000      16.68145000      -0.79198000       0.59159400      -0.33910000
P        3.66363000      17.11822000      18.77146000       0.76532000       0.03900700      -0.62474000
P        5.69981000      16.61851000      17.92467000       0.25218600      -0.44927600       0.99762500
P       11.22598000       4.75562000       0.52796000      -0.72740900      -0.18880500       0.90926900
P        9.93014000       6.37344000      19.08786000       0.35037100       0.44939200       0.64043000
P       11.47311000       6.67458000       1.53461000       0.10782000       0.48548800      -0.55474700
P        9.59330000       5.70135000       1.96221000       0.40724600      -0.79602000      -0.78559000
P       13.37881000       1.11059000       9.08733000       0.27285400      -0.25506800       0.35064100
P       11.75761000       0.80025000       7.67933000      -0.40867200      -1.21425900      -0.71162000
P       12.14276000       2.75668000       8.37330000       0.03829700       1.13899200       0.80296700
P       11.29240000       1.22808000       9.80404000       0.25704200       0.74154800      -0.96216900
P       12.24635000       1.09512000      12.66199000      -0.43221700      -0.71132700      -0.03898100
P       11.42555000      18.95326000      14.18471000      -0.48063600      -0.09420900      -0.56111000
P       10.49367000      18.88655000      12.07665000       0.83172200       0.67050500       1.57826200
P       10.20658000       1.44516000      13.47368000       0.41816100      -1.05722100      -0.70587800
P        8.86675000       2.64612000      17.78822000       0.90375000      -1.73324600       0.29952600
P        8.52097000       0.89704000      16.51900000      -0.91128500      -0.79644900      -0.61127700
P        9.08289000       0.40184000      18.52637000       0.71853800       1.48569300       0.05491600
P       10.58322000       1.28693000      17.01063000      -0.76698500       0.44244000       1.09091000
P       11.96338000       8.97750000       5.44827000      -0.58974100       0.93691400       0.98396300
P       11.69152000       9.50398000       3.42885000      -0.52567800       0.33763500      -1.12615800
P       11.37769000      11.17190000       4.84640000      -0.13249700      -1.75205000       0.24824200
P        9.87307000       9.44157000       4.74175000       1.30094300       0.55920900      -0.00383100
P        7.55811000       3.09112000       7.15441000       0.32412900      -0.15001100      -0.85627900
P        9.65009000       3.68199000       6.76873000      -0.19744600       0.01322100      -0.16299500
P        8.06466000       5.18320000       6.92929000       0.00786600       0.47668300      -0.18637200
P        8.19354000       3.92545000       5.11067000      -0.17365600      -0.19684800       1.23277500
P       10.81156000       6.90340000      10.11828000      -0.26290000       0.14866400      -1.14813500
P        9.33618000       7.97780000      11.22671000      -0.61344100       0.69265000       1.35691500
P        8.63184000       6.58352000       9.72151000      -0.31775000      -1.57048400       0.29288100
P        9.40589000       8.45430000       9.11547000       1.21858500       0.69035000      -0.41577300
P       13.15428000      10.56645000      14.22044000      -0.55476900       0.71886200       0.68820500
P       11.21571000      10.51292000      13.24626000      -0.47171300       0.14796600       0.36216100
P       11.48807000      12.07750000      14.81499000       0.72849400      -0.90731200      -0.37635400
P       11.39912000       9.96333000      15.40614000      -0.19470800      -0.22216600      -0.32432800
P        9.55008000       9.70564000       0.50564000      -0.23486400       0.23519100      -0.51255000
P       11.43249000      10.57081000      19.07062000       0.44662400       0.34016100      -0.52101900
P       10.21666000      11.61198000       1.32834000       0.36441800       0.31753800       1.61455800
P        9.55110000      11.64830000      18.54070000      -0.10183600      -0.82821300      -1.03581100
P       12.88308000      10.26326000       8.96941000      -1.75153600      -0.99399500      -0.39906000
P       13.99480000      12.01897000       9.03791000       0.66017500       1.18255000       0.80641000
P       13.95881000      10.62830000      10.80361000      -0.99646000       1.19571300      -0.41125400
P       12.06924000      11.99888000      10.20258000       1.84580800      -1.50432600      -0.20290600
P       16.11458000      17.37923000      12.66646000       0.44383100      -0.21675500       0.01671600
P       16.28637000      15.86478000      14.30823000       0.96133100       0.64379600      -0.24642100
P       16.92145000      18.09185000      14.61581000      -0.72500700      -1.21612000      -0.51099300
P       14.82067000      17.41593000      14.39838000      -0.79114100       0.77249400       0.40798300
P       15.10673000      12.38953000      16.69332000       0.93352500       0.89929200      -0.51650500
P       15.92314000      13.81202000      18.29684000      -1.49753800      -0.59460000      -1.13165000
P       13.82737000      12.92986000      18.28495000      -0.25260200       0.94746500       0.71773600
P       14.33578000      14.52693000      16.79253000       0.65276000      -1.27180300       0.85815400
P        8.85910000      14.38026000       2.94845000      -0.45168500       0.12805700       0.68970400
P       10.02418000      16.07734000       3.91173000      -0.26116900      -1.22973600      -2.48858800
P        9.32493000      16.02121000       1.59164000      -0.18187000       0.67936800       0.95706200
P       10.85001000      14.66000000       2.24194000       1.22135100       0.33407200       0.59204300
P        7.35910000      17.10546000       8.34280000       0.93648400       0.25816800      -0.37140600
P        8.86465000      17.63154000       6.71042000       0.03862100      -0.89913600       0.05432900
P        8.81610000      18.82140000       8.52222000      -1.44523000      -0.18303500      -0.58554700
P        7.05385000      18.75987000       6.95397000       0.32236800       0.79368200       0.74041300
P       15.89359000      10.95022000      12.93066000       1.12158200       0.79506100       0.05435000
P       17.86874000      10.90178000      11.83193000      -1.00571700      -0.45835200      -1.21469400
P       17.90694000      11.16431000      13.90770000      -0.20110200       0.27455400       1.55887200
P       17.15663000      12.81163000      12.64841000      -0.49293600      -0.54708900       0.12366900
P        9.02317000      16.54675000      17.69035000      -0.81076200      -1.33353100      -0.52029400
P       10.10480000      14.82033000      16.90386000       0.33189200      -0.33312400       0.69745100
P        8.02054000      14.93310000      16.35162000       0.11849000       0.40748400       1.06918800
P        8.52372000      14.43449000      18.50218000       0.54144700       1.06051800      -1.08702000
P        9.98052000       0.91229000       4.78868000      -0.33411100      -0.22566000      -1.43533400
P        9.76943000      19.03733000       2.71946000       1.35888900       0.82703300       1.57123900
P       11.78431000       0.93543000       3.55416000      -1.20958400      -0.72829300      -0.72536000
P        9.91124000       1.98745000       2.78328000       1.18169000      -0.18377300       0.78082700
P       16.41151000       3.71180000      11.35452000       0.19427300      -1.16183800      -0.29854200
P       16.02521000       1.47939000      11.39098000      -1.84300400      -0.46324100       1.46120700
P       17.96472000       2.11518000      11.00496000       0.86402200       1.23728600      -0.95433800
P       16.29290000       2.44114000       9.51842000       0.77823800       0.71832100      -0.46288100
P       17.78877000       1.72056000      14.44572000       0.08051200       0.27640500       0.24027500
P       18.37134000       1.89136000      16.57890000      -1.17425700       0.23202600      -0.27227900
P       16.38994000       2.88979000      15.70916000       2.10612700      -0.56391800       0.21068300
P       18.50470000       3.63685000      15.30711000      -0.67297900       0.19163000      -0.25922800
P       12.32407000       5.95145000      14.41021000       0.31860800       2.13653500      -1.50453200
P       11.59373000       4.69360000      15.89847000       0.30704900      -1.70545700      -0.07774400
P       13.66084000       4.34281000      14.92716000      -0.24906700      -0.24677300       0.90971300
P       11.89696000       3.91373000      13.74073000      -0.53238300       0.50581200       0.60856500
P        0.22156000       6.28063000       3.02048000      -0.80298000       0.72783500       0.97086200
P       17.67966000       6.87054000       4.55448000       1.12739300      -0.08204900      -1.11360600
P       17.40846000       5.51499000       2.84815000      -0.33142300       0.57239400      -0.38033400
P       17.81947000       7.75472000       2.49021000       0.04137100      -1.42391400       0.50789100
P       14.09780000       3.98284000       6.20048000      -0.03726600       0.25360400       0.36709700
P       12.36285000       4.29617000       4.90383000       1.14570200       1.54102900       0.39925600
P       14.42100000       5.29084000       4.47173000      -1.85361400       0.20559900       1.35307300
P       13.09669000       5.99980000       6.41213000       0.59839800      -1.91105700      -2.14421000
P       15.72891000       8.22235000      14.34060000      -0.33104200       1.46593600      -0.77512500
P       15.03467000       6.77304000      12.76465000       0.61260000       1.03112600      -0.36978800
P       16.11610000       6.19548000      14.51760000       1.62826400      -1.55643700       0.00087100
P       17.25029000       7.45975000      12.87041000      -1.80323800      -0.96411900       1.17257400
P       15.87546000       1.93586000       0.19323000       0.72616200      -1.39449000      -0.03648400
P       16.16498000       4.02419000      18.94146000       0.20123200       0.61751800      -0.22751100
P       14.52177000       3.36155000       1.02344000      -0.68664500       0.66353200       0.61061300
P       14.46105000       2.92363000      18.07343000      -0.26654100       0.27501500      -0.13748000
P       14.24185000      15.90057000       2.23156000      -0.04970200      -1.31076500       0.35922400
P       15.75255000      15.02278000       3.57084000       1.53855300       0.16833200      -0.57382600
P       14.53652000      13.62016000       2.34641000       0.78101100       0.17047200      -1.29960200
P       13.74989000      14.61396000       4.00151000      -2.31725500       0.80904700       1.52911500
P       17.36657000      12.14807000       5.20848000       0.26486200      -0.04128000       0.09167000
P       16.67008000      11.03775000       7.02773000       0.13334800       1.94131500       0.40363800
P       15.71051000      10.68473000       5.17485000      -0.73803700       0.98952900      -0.95250300
P       15.44099000      12.86230000       5.95187000       0.16811900      -1.87741000       0.63872500
P       16.63801000      14.76949000       9.99372000       0.35180600      -0.38782600      -0.89054700
P       17.62311000      16.67805000       9.67581000      -0.28883400       1.14364700      -0.49182300
P       18.22682000      15.03718000       8.30414000      -1.42244100      -0.00932600      -0.91551000
P       18.79349000      15.01723000      10.30507000       1.19778800      -0.75847600       2.31021300
P       14.25793000       8.24436000       0.29885000       0.77393800      -0.23996600       0.10898400
P       15.29435000       9.56155000      18.04078000      -0.74757900      -1.30941500      -0.08945700
P       13.39339000       8.37584000      17.54196000       0.44071700       0.43599500      -0.51943300
P       15.31600000       7.31613000      17.73457000      -0.31543400       0.77949900       0.66129000
P       12.09672000      17.65250000      19.19712000       0.66576400      -1.90811000      -0.70395200
P       13.07278000       0.20349000      18.74188000       0.76132300       1.25092000      -1.21355100
P       13.11498000      17.77546000      17.07300000      -0.45955100       0.70875400       2.11104400
P       14.42997000      17.70393000      18.86940000      -1.22300600      -0.25007300      -0.01201800
P       14.12663000      16.08888000       7.23556000       0.98227700      -0.39608600       0.71836100
P       12.52932000      15.00409000       8.35433000      -0.02315800       0.45304400      -0.81045600
P       12.14626000      16.78241000       6.97946000      -0.86090300      -0.06929000       0.86960500
P       13.10301000      16.99928000       9.01336000       0.06389900       0.15281900      -0.72491000
248
Lattice="19.577111 0.0 0.0 0.0 19.577111 0.0 0.0 0.0 19.577111" Properties=species:S:1:pos:R:3:forces:R:3 energy=-1305.278047968763 hash=4bc068354c7e0ac46aabe6d5394a67ac virial="-22.3820422846 4.77856345205 -10.971851059 4.77856345205 -12.0118786678 -7.89218357075 -10.971851059 -7.89218357075 5.6096770135" config_type=liq_12_03_01_liqP4 pressure=-0.0012787562287043448 uploaded="2020-04-10 10:56:37.921000" hash_structure=43c6885f842ce4cccfd1f4be8a6457e1 filename=liq_12_03_01_liqP4/liq_12_03_01_liqP4_mbd2.xyz username=gabor stress="0.006783783396834831 -0.001074491315549235 0.001776054467800761 -0.001074491315549235 0.005193348702867228 0.0004548613397424669 0.001776054467800761 0.0004548613397424669 0.0027816563963167945" volume=7503.187678979971 n_atoms=248 free_energy=-1310.13427812 modified="2020-04-10 10:56:37.921000" formula=P248 miguel_caro=T pbc="T T T"
P        1.20759000       0.46672000      19.22911000       1.57027600       0.34635900      -2.23328400
P        2.95215000       1.02081000       1.16347000      -0.54344300       0.07350500      -1.00545300
P        1.70616000      18.83212000       1.32034000      -0.54821000      -0.33989400       1.00568600
P        0.80677000       1.36470000       1.46699000      -0.34074900       0.05729900       1.89327300
P       16.32430000       1.25370000       5.41599000      -0.83729500      -0.22931400      -0.16599900
P       16.26024000      19.27944000       3.74432000      -0.57924100       0.82295300      -0.24318800
P       17.64350000      19.10984000       5.35356000       0.72288800      -1.25807600       1.61246900
P       17.94761000       1.12911000       3.99258000       0.46113200       0.68691600      -1.11736700
P        2.99970000       6.46959000      11.85654000      -0.92850400       0.76189600      -0.71781700
P        1.08490000       5.55594000      12.88266000       0.42590600       0.92863300      -1.49572900
P        3.07441000       5.04087000      13.39948000       0.96426700      -1.58680200       0.68047800
P        2.32829000       4.44737000      11.32495000      -0.32759300       0.22275900       1.14513400
P       19.31787000      19.27645000      11.73511000       1.45485500      -0.14817500       1.78082600
P        1.66981000       0.54017000      12.95568000      -2.12557000      -1.88561100      -0.49025800
P        1.44876000      17.98549000      12.15416000       0.13869800       0.53713800       0.96309000
P        0.11887000      18.61419000      13.89930000       1.32083300       0.69784800      -1.71874000
P        1.21946000       8.18785000       4.88441000      -0.29317300       0.46471100      -0.04975900
P        2.56106000       9.74793000       4.12576000       0.70300300      -0.20166200      -0.44712000
P        0.56623000      10.34333000       4.65324000      -0.55112100      -0.61048700       0.12498800
P        0.86116000       9.03789000       2.87500000       0.15863900       0.14154100       0.37412700
P       18.49144000       8.11203000       9.91675000       0.48063700      -0.32294900       0.25670600