104
Lattice="14.752975 0.0 0.0 0.0 12.828814 0.0 0.0 0.0 12.8717" Properties=species:S:1:pos:R:3:forces:R:3 energy=-566.703697530822 hash=65caec19db865b84795faa891699f15e virial="26.5960839552 0.0 0.0 0.0 -8.69836786862 0.0 0.0 0.0 9.45073549841" config_type=rss_3c pressure=0.0037420489448516097 uploaded="2020-04-10 10:56:53.323000" hash_structure=f5bb3ec5005e822dba26f0166ed6c15a filename=rss_3c/rss_3c_mbd2.xyz username=gabor stress="-0.003675537738648206 0.0 -0.0 0.0 0.003989448427233621 1.313554069375244e-07 -0.0 1.313554069375244e-07 0.003947915489502563" volume=2436.138773885412 n_atoms=104 free_energy=-570.88456 modified="2020-04-10 10:56:53.323000" formula=P104 miguel_caro=T pbc="T T T"
P        5.55284000       1.54336000       4.79899000       0.01615200      -0.05596800       0.02242600
P        3.40593000       1.92310000       4.54218000      -0.15499200       0.54920400      -0.05692700
P        2.83521000      12.72241000       5.14557000      -0.27516500       0.01682200       0.11179800
P        0.61386000       0.19271000       4.91270000      -0.20184700      -0.22321100       0.11565700
P        6.32144000       3.56955000       4.26074000      -0.28995400       0.03281700      -0.23112400
P        4.67563000       3.69629000       7.41183000       0.09437000       0.04715100      -0.23420300
P        2.84625000       3.29862000       6.23727000      -0.06866000      -0.39491100      -0.19403200
P        1.91349000       1.94200000       7.76613000       0.16547600       0.25482900       0.00232700
P        0.02843000       1.52844000       6.62131000      -0.04681400       0.20625100       0.24114000
P        5.98915000       4.94149000       6.02491000      -0.08442100      -0.10950300       0.04150800
P        5.84247000       1.90315000       6.94732000       0.23612900      -0.29407800       0.38448200
P        2.80712000      12.81238000       7.35081000       0.10258100      -0.30276900       0.17317300
P        4.90134000       0.16568000       7.93271000       0.14221800      -0.06702500       0.19415700
P        9.20015000       4.87104000       4.79899000      -0.01619800       0.05593200       0.02240400
P       11.34706000       4.49130000       4.54218000       0.15496400      -0.54916000      -0.05695300
P       11.91778000       6.52081000       5.14557000       0.27508600      -0.01684600       0.11178100
P       14.13912000       6.22169000       4.91270000       0.20191600       0.22325700       0.11566600
P        8.43153000       2.84485000       4.26074000       0.29001300      -0.03277000      -0.23111400
P       10.07734000       2.71812000       7.41183000      -0.09423300      -0.04727100      -0.23418600
P       11.90673000       3.11579000       6.23727000       0.06865200       0.39484600      -0.19397700
P       12.83948000       4.47241000       7.76613000      -0.16534900      -0.25483300       0.00230500
P       14.72456000       4.88597000       6.62131000       0.04667600      -0.20630600       0.24120000
P        8.76383000       1.47291000       6.02491000       0.08438900       0.10954100       0.04151000
P        8.91052000       4.51125000       6.94732000      -0.23624900       0.29417600       0.38442600
P       11.94585000       6.43084000       7.35081000      -0.10248300       0.30278500       0.17315300
P        9.85164000       6.24872000       7.93271000      -0.14228100       0.06706900       0.19418200
P        5.55284000      11.28544000       1.63686000       0.01614300       0.05605000      -0.02242700
P        3.40593000      10.90571000       1.89367000      -0.15500800      -0.54921300       0.05692900
P        2.83521000       0.10640000       1.29028000      -0.27515800      -0.01681900      -0.11180000
P        0.61386000      12.63610000       1.52315000      -0.20184700       0.22327700      -0.11565200
P        6.32144000       9.25926000       2.17511000      -0.28993300      -0.03287300       0.23113600
P        4.67563000       9.13252000      11.89572000       0.09437100      -0.04715400       0.23419700
P        2.84625000       9.53019000       0.19858000      -0.06866600       0.39491300       0.19403300
P        1.91349000      10.88681000      11.54142000       0.16546900      -0.25482000      -0.00232300
P        0.02843000      11.30038000      12.68624000      -0.04680800      -0.20633000      -0.24114700
P        5.98915000       7.88732000       0.41094000      -0.08442300       0.10949800      -0.04151100
P        5.84247000      10.92566000      12.36023000       0.23613100       0.29407000      -0.38450000
P        2.80712000       0.01643000      11.95674000       0.10258800       0.30277200      -0.17317400
P        4.90134000      12.66313000      11.37484000       0.14221700       0.06702700      -0.19415400
P        9.20015000       7.95776000       1.63686000      -0.01620000      -0.05584600      -0.02241200
P       11.34706000       8.33751000       1.89367000       0.15495100       0.54917200       0.05693000
P       11.91778000       6.30800000       1.29028000       0.27509100       0.01685400      -0.11178800
P       14.13912000       6.60712000       1.52315000       0.20191000      -0.22325000      -0.11567000
P        8.43153000       9.98396000       2.17511000       0.29003500       0.03271000       0.23110400
P       10.07734000      10.11070000      11.89572000      -0.09425400       0.04719400       0.23419800
P       11.90673000       9.71303000       0.19858000       0.06864200      -0.39489900       0.19400000
P       12.83948000       8.35641000      11.54142000      -0.16536200       0.25475200      -0.00228100
P       14.72456000       7.94284000      12.68624000       0.04666400       0.20631900      -0.24120400
P        8.76383000      11.35590000       0.41094000       0.08437500      -0.10952700      -0.04149400
P        8.91052000       8.31756000      12.36023000      -0.23621300      -0.29413000      -0.38442100
P       11.94585000       6.39797000      11.95674000      -0.10245700      -0.30271100      -0.17316600
P        9.85164000       6.58009000      11.37484000      -0.14227800      -0.06706400      -0.19418100
P        9.20015000      11.28544000       8.07271000      -0.01618600       0.05601100      -0.02241100
P       11.34706000      10.90571000       8.32952000       0.15497200      -0.54923000       0.05694800
P       11.91778000       0.10640000       7.72613000       0.27508700      -0.01680100      -0.11179900
P       14.13912000      12.63610000       7.95900000       0.20192000       0.22326700      -0.11567700
P        8.43153000       9.25926000       8.61096000       0.28999500      -0.03282700       0.23112500
P       10.07734000       9.13252000       5.45987000      -0.09425500      -0.04719700       0.23418900
P       11.90673000       9.53019000       6.63443000       0.06864900       0.39488500       0.19399900
P       12.83948000      10.88681000       5.10557000      -0.16535100      -0.25479300      -0.00229200
P       14.72456000      11.30038000       6.25039000       0.04666600      -0.20633300      -0.24118500
P        8.76383000       7.88732000       6.84679000       0.08438700       0.10949600      -0.04148700
P        8.91052000      10.92566000       5.92438000      -0.23622000       0.29411400      -0.38445500
P       11.94585000       0.01643000       5.52089000      -0.10246900       0.30276500      -0.17315900
P        9.85164000      12.66313000       4.93899000      -0.14226900       0.06704100      -0.19418700
P        5.55284000       7.95776000       8.07271000       0.01615700      -0.05588500      -0.02242700
P        3.40593000       8.33751000       8.32952000      -0.15498700       0.54915600       0.05691000
P        2.83521000       6.30800000       7.72613000      -0.27516200       0.01687200      -0.11178900
P        0.61386000       6.60712000       7.95900000      -0.20183700      -0.22326100      -0.11564500
P        6.32144000       9.98396000       8.61096000      -0.28997300       0.03275600       0.23111400
P        4.67563000      10.11070000       5.45987000       0.09437000       0.04715100       0.23420600
P        2.84625000       9.71303000       6.63443000      -0.06865900      -0.39492600       0.19403300
P        1.91349000       8.35641000       5.10557000       0.16548000       0.25477800      -0.00231200
P        0.02843000       7.94284000       6.25039000      -0.04680600       0.20631600      -0.24116600
P        5.98915000      11.35590000       6.84679000      -0.08441100      -0.10952800      -0.04151800
P        5.84247000       8.31756000       5.92438000       0.23612400      -0.29408600      -0.38446600
P        2.80712000       6.39797000       5.52089000       0.10257600      -0.30271800      -0.17318000
P        4.90134000       6.58009000       4.93899000       0.14222600      -0.06705100      -0.19414800
P        9.20015000       1.54336000      11.23484000      -0.01619500      -0.05592900       0.02241000
P       11.34706000       1.92310000      10.97803000       0.15495600       0.54922100      -0.05694700
P       11.91778000      12.72241000      11.58142000       0.27509400       0.01680400       0.11179700
P       14.13912000       0.19271000      11.34855000       0.20192000      -0.22320000       0.11568200
P        8.43153000       3.56955000      10.69659000       0.29001600       0.03277100      -0.23111300
P       10.07734000       3.69629000       0.97598000      -0.09425500       0.04719400      -0.23419400
P       11.90673000       3.29862000      12.67312000       0.06864200      -0.39488300      -0.19399900
P       12.83948000       1.94200000       1.33028000      -0.16535800       0.25480200       0.00229600
P       14.72456000       1.52844000       0.18546000       0.04667100       0.20625500       0.24117900
P        8.76383000       4.94149000      12.46076000       0.08438500      -0.10950200       0.04148500
P        8.91052000       1.90315000       0.51147000      -0.23621800      -0.29412200       0.38443700
P       11.94585000      12.81238000       0.91496000      -0.10246200      -0.30276200       0.17315800
P        9.85164000       0.16568000       1.49686000      -0.14227100      -0.06703900       0.19419000
P        5.55284000       4.87104000      11.23484000       0.01615500       0.05597100       0.02242000
P        3.40593000       4.49130000      10.97803000      -0.15500000      -0.54914400      -0.05693300
P        2.83521000       6.52081000      11.58142000      -0.27515700      -0.01686400       0.11178200
P        0.61386000       6.22169000      11.34855000      -0.20184300       0.22326700       0.11564100
P        6.32144000       2.84485000      10.69659000      -0.28995100      -0.03281600      -0.23112500
P        4.67563000       2.71812000       0.97598000       0.09434800      -0.04722800      -0.23419500
P        2.84625000       3.11579000      12.67312000      -0.06867000       0.39487300      -0.19401000
P        1.91349000       4.47241000       1.33028000       0.16546700      -0.25486000       0.00233600
P        0.02843000       4.88597000       0.18546000      -0.04681800      -0.20630200       0.24116200
P        5.98915000       1.47291000      12.46076000      -0.08442500       0.10954200       0.04153300
P        5.84247000       4.51125000       0.51147000       0.23616000       0.29413200       0.38447100
P        2.80712000       6.43084000       0.91496000       0.10260200       0.30279100       0.17316800
P        4.90134000       6.24872000       1.49686000       0.14222800       0.06705600       0.19414900
104
Lattice="14.889483 0.0 0.0 0.0 12.391801 -1e-06 0.0 -2e-06 13.347013" Properties=species:S:1:pos:R:3:forces:R:3 energy=-566.158714338996 hash=2a03cfe65dbe78e74669f4a756e0817d virial="26.3757318784 0.0 0.0 0.0 11.6352465281 -0.0 0.0 -0.0 5.35105200861" config_type=rss_3c pressure=0.005869352902749718 uploaded="2020-04-10 10:56:53.293000" hash_structure=389247ae759652655bed27dccf1a710e filename=rss_3c/rss_3c_mbd2.xyz username=gabor stress="-0.005072353430795745 4.060708998099274e-09 -8.121417996198547e-09 4.060708998099274e-09 -0.0020495210455206653 -6.497134396958838e-08 -8.121417996198547e-09 -6.497134396958838e-08 0.00481753581974702" volume=2462.6241389572056 n_atoms=104 free_energy=-569.77517532 modified="2020-04-10 10:56:53.293000" formula=P104 miguel_caro=T pbc="T T T"
P       13.33855000       1.06165000      11.95313000      -0.25848200       0.13103600       0.26402400
P       11.16165000       1.34697000      11.59177000      -0.07493700       0.34258300       0.12193100
P       10.27593000      11.89413000      12.35433000      -0.04928600       0.35259200       0.01212800
P        8.16584000       0.09854000      11.85261000      -0.21830900      -0.05947500       0.08113200
P       13.77690000       3.12620000      11.20159000      -0.12522800       0.32463200      -0.35358100
P       12.15737000       3.40535000       0.98354000       0.23860700      -0.14476200       0.00902000
P       10.45252000       2.90202000      13.05469000      -0.14157700      -0.30503500      -0.46305200
P        9.40458000       1.86157000       1.37042000       0.12930900      -0.04576200       0.01560400
P        7.55619000       1.51609000       0.15572000       0.02815600       0.12869800       0.11685600
P       13.37872000       4.56250000      12.87660000       0.22562100      -0.06053300      -0.18942200
P       13.41294000       1.59319000       0.76070000       0.25824600      -0.03026000       0.32419300
P       10.24094000      12.20672000       1.19632000      -0.18730200      -0.24340100       0.06920600
P       12.35360000      12.32120000       1.74348000       0.20590100      -0.16925300       0.01442300
P        1.55096000       5.13427000      11.95313000       0.25864700      -0.13103900       0.26400700
P        3.72788000       4.84895000      11.59177000       0.07483100      -0.34251900       0.12196900
P        4.61360000       6.69360000      12.35433000       0.04927200      -0.35267400       0.01210100
P        6.72369000       6.09738000      11.85261000       0.21830100       0.05951200       0.08114100
P        1.11262000       3.06972000      11.20159000       0.12523600      -0.32463700      -0.35357600
P        2.73215000       2.79057000       0.98354000      -0.23852900       0.14482300       0.00900300
P        4.43701000       3.29390000      13.05469000       0.14149500       0.30504400      -0.46303900
P        5.48494000       4.33435000       1.37042000      -0.12924500       0.04589500       0.01558800
P        7.33334000       4.67984000       0.15572000      -0.02821600      -0.12872700       0.11690300
P        1.51081000       1.63342000      12.87660000      -0.22567700       0.06053700      -0.18944400
P        1.47659000       4.60274000       0.76070000      -0.25826300       0.03022600       0.32419800
P        4.64859000       6.38102000       1.19632000       0.18732500       0.24327900       0.06921300
P        2.53593000       6.26653000       1.74348000      -0.20589100       0.16926100       0.01441000
P        5.89381000       5.13427000       8.06739000      -0.25850100      -0.13102000      -0.26400100
P        3.71691000       4.84895000       8.42875000      -0.07496300      -0.34253300      -0.12195100
P        2.83119000       6.69360000       7.66619000      -0.04926600      -0.35265100      -0.01208400
P        0.72110000       6.09738000       8.16790000      -0.21829700       0.05953100      -0.08102500
P        6.33215000       3.06972000       8.81893000      -0.12515400      -0.32463700       0.35359200
P        4.71263000       2.79057000       5.68996000       0.23863000       0.14481500      -0.00896200
P        3.00778000       3.29390000       6.96583000      -0.14154200       0.30505100       0.46303400
P        1.95984000       4.33435000       5.30309000       0.12932600       0.04588900      -0.01560600
P        0.11145000       4.67984000       6.51779000       0.02814400      -0.12876500      -0.11692500
P        5.93398000       1.63342000       7.14392000       0.22559600       0.06056100       0.18939100
P        5.96820000       4.60274000       5.91281000       0.25820000       0.03020300      -0.32424700
P        2.79620000       6.38102000       5.47719000      -0.18740500       0.24326800      -0.06922200
P        4.90885000       6.26653000       4.93003000       0.20596800       0.16920400      -0.01444900
P        8.99570000       1.06165000       8.06739000       0.25865300       0.13105800      -0.26399500
P       11.17262000       1.34698000       8.42875000       0.07482800       0.34248200      -0.12194200
P       12.05834000      11.89413000       7.66619000       0.04924300       0.35264700      -0.01209300
P       14.16843000       0.09854000       8.16790000       0.21829900      -0.05946500      -0.08102000
P        8.55736000       3.12620000       8.81893000       0.12519100       0.32464700       0.35358200
P       10.17689000       3.40535000       5.68996000      -0.23851000      -0.14477500      -0.00895000
P       11.88175000       2.90202000       6.96583000       0.14147800      -0.30496500       0.46301000
P       12.92968000       1.86157000       5.30309000      -0.12921400      -0.04577700      -0.01562200
P       14.77808000       1.51609000       6.51779000      -0.02818100       0.12873500      -0.11691900
P        8.95555000       4.56250000       7.14392000      -0.22564000      -0.06052900       0.18943800
P        8.92133000       1.59319000       5.91281000      -0.25828900      -0.03028000      -0.32422200
P       12.09333000      12.20672000       5.47719000       0.18728300      -0.24342500      -0.06923200
P        9.98067000      12.32120000       4.93003000      -0.20589400      -0.16924700      -0.01444800
P        1.55096000      11.33017000       1.39388000       0.25864600      -0.13104000      -0.26401600
P        3.72788000      11.04485000       1.75524000       0.07482800      -0.34248600      -0.12193800
P        4.61360000       0.49770000       0.99268000       0.04925000      -0.35266500      -0.01209600
P        6.72369000      12.29329000       1.49440000       0.21829400       0.05946100      -0.08113700
P        1.11262000       9.26562000       2.14542000       0.12524300      -0.32460800       0.35360700
P        2.73215000       8.98647000      12.36347000      -0.23846400       0.14479800      -0.00898500
P        4.43701000       9.48980000       0.29233000       0.14151100       0.30506300       0.46293600
P        5.48494000      10.53025000      11.97659000      -0.12926700       0.04587300      -0.01553900
P        7.33334000      10.87574000      13.19129000      -0.02822300      -0.12871000      -0.11689400
P        1.51081000       7.82933000       0.47041000      -0.22567200       0.06045400       0.18944400
P        1.47659000      10.79863000      12.58631000      -0.25826300       0.03033800      -0.32421900
P        4.64859000       0.18512000      12.15069000       0.18733000       0.24326300      -0.06920600
P        2.53593000       0.07063000      11.60353000      -0.20590300       0.16918900      -0.01440000
P       13.33855000       7.25756000       1.39388000      -0.25849200       0.13096800      -0.26402900
P       11.16165000       7.54288000       1.75524000      -0.07494900       0.34248200      -0.12189800
P       10.27593000       5.69823000       0.99268000      -0.04926300       0.35263900      -0.01210500
P        8.16584000       6.29444000       1.49440000      -0.21830400      -0.05945400      -0.08114000
P       13.77690000       9.32210000       2.14542000      -0.12522200       0.32468400       0.35360200
P       12.15737000       9.60125000      12.36347000       0.23856000      -0.14477800      -0.00899100
P       10.45252000       9.09792000       0.29233000      -0.14157700      -0.30499000       0.46293400
P        9.40458000       8.05747000      11.97659000       0.12933500      -0.04581000      -0.01556000
P        7.55619000       7.71199000      13.19129000       0.02815500       0.12864700      -0.11687100
P       13.37872000      10.75840000       0.47041000       0.22562500      -0.06051400       0.18942500
P       13.41294000       7.78909000      12.58631000       0.25825200      -0.03024700      -0.32420400
P       10.24094000       6.01081000      12.15069000      -0.18732200      -0.24332800      -0.06920900
P       12.35360000       6.12530000      11.60353000       0.20589300      -0.16926900      -0.01442000
P        8.99570000       7.25755000       5.27962000       0.25864600       0.13106900       0.26407400
P       11.17262000       7.54288000       4.91827000       0.07481500       0.34248400       0.12187300
P       12.05834000       5.69823000       5.68082000       0.04925800       0.35263100       0.01218100
P       14.16843000       6.29444000       5.17911000       0.21831300      -0.05945700       0.08109000
P        8.55736000       9.32210000       4.52808000       0.12519500       0.32464200      -0.35357500
P       10.17689000       9.60125000       7.65705000      -0.23850800      -0.14476200       0.00896200
P       11.88175000       9.09792000       6.38118000       0.14148600      -0.30495500      -0.46298600
P       12.92968000       8.05747000       8.04392000      -0.12923200      -0.04576200       0.01566000
P       14.77808000       7.71199000       6.82923000      -0.02817400       0.12869600       0.11686000
P        8.95555000      10.75840000       6.20309000      -0.22565500      -0.06055200      -0.18941400
P        8.92133000       7.78909000       7.43421000      -0.25829200      -0.03028500       0.32414500
P       12.09333000       6.01082000       7.86983000       0.18728500      -0.24344100       0.06914900
P        9.98067000       6.12530000       8.41699000      -0.20590200      -0.16926200       0.01441200
P        5.89381000      11.33017000       5.27962000      -0.25849500      -0.13103100       0.26407800
P        3.71691000      11.04485000       4.91827000      -0.07495600      -0.34253100       0.12188100
P        2.83119000       0.49770000       5.68082000      -0.04926500      -0.35263900       0.01217800
P        0.72110000      12.29329000       5.17911000      -0.21831200       0.05946500       0.08108700
P        6.33215000       9.26562000       4.52808000      -0.12515900      -0.32463400      -0.35358900
P        4.71263000       8.98647000       7.65705000       0.23862800       0.14480200       0.00897400
P        3.00778000       9.48980000       6.38118000      -0.14155000       0.30504600      -0.46301000
P        1.95984000      10.53025000       8.04392000       0.12935000       0.04588800       0.01564000
P        0.11145000      10.87574000       6.82923000       0.02815500      -0.12872800       0.11681100
P        5.93398000       7.82932000       6.20309000       0.22561100       0.06058700      -0.18936800
P        5.96820000      10.79864000       7.43421000       0.25820200       0.03021500       0.32417000
P        2.79620000       0.18512000       7.86983000      -0.18741100       0.24327200       0.06914300
P        4.90885000       0.07063000       8.41699000       0.20597700       0.16921500       0.01441400
104
Lattice="12.943911 0.24864 -0.016578 0.24758 13.078507 -0.10008 -0.023239 -0.133746 16.279084" Properties=species:S:1:pos:R:3:forces:R:3 energy=-563.763788515282 hash=e4724269cb8291177014383e86479694 virial="9.43688046502 -2.29643045408 -1.48755793306 -2.29643045408 17.2412984863 -0.689551531013 -1.48755793306 -0.689551531013 -1.39997563866" config_type=rss_3c pressure=0.0030588429534144515 uploaded="2020-04-10 10:56:53.299000" hash_structure=2f85a93544bd858272d2942ccbbe2898 filename=rss_3c/rss_3c_mbd2.xyz username=gabor stress="-0.00041871614794240314 0.00024596878257690584 0.00048411445389498237 0.00024596878257690584 -0.0026708065535502516 0.000269645038553743 0.00048411445389498237 0.000269645038553743 -0.0059931203606501835" volume=2754.658509512892 n_atoms=104 free_energy=-568.50559371 modified="2020-04-10 10:56:53.299000" formula=P104 miguel_caro=T pbc="T T T"
P       11.56466000      11.71978000       2.43582000      -0.32233800       0.21544000      -0.25504700
P       11.51399000      10.28244000       4.11301000      -0.17157700      -0.27894300      -0.11375400
P       11.50866000      11.84246000       5.67230000      -0.32835000       0.10993500       0.35074400
P       11.32961000      10.55544000       7.56835000       0.27117600       0.10406000       0.07243500
P       11.36653000      10.43519000       0.54418000       0.38555000       0.06651300      -0.06395800
P        8.41953000      10.30399000       2.34860000       0.16772000      -0.08703100       0.10163100
P        9.47892000       9.35829000       4.07124000       0.09393500       0.08351600       0.00777200
P        8.37528000      10.36833000       5.72777000       0.27501600      -0.12469200      -0.01098700
P        9.52161000       9.27819000       7.32820000      -0.37985400      -0.42155900      -0.22264600
P        9.55102000       9.18788000       0.76564000      -0.40744700      -0.70984400       0.29634300
P        9.42757000      12.27072000       2.11207000       0.03840500       0.18405300       0.07650900
P        9.36073000      12.35953000       5.93696000      -0.04411200       0.09633100      -0.14935700
P        8.55582000      12.90350000       3.99024000      -0.38852900       0.21358600       0.12737200
P        1.67220000       1.41810000       2.34905000       0.32713100      -0.10702900      -0.35464600
P        1.66806000       2.97743000       3.90906000       0.16568700       0.27536500       0.11860100
P        1.61706000       1.53883000       5.58569000       0.32337200      -0.20910200       0.25891500
P        1.81424000       2.82386000       7.47870000      -0.40391800      -0.07320400       0.05323900
P        1.84999000       2.70680000       0.45327000      -0.27271300      -0.09715300      -0.06715100
P        4.80419000       2.89448000       2.29303000      -0.27005700       0.12165800       0.01448700
P        3.70225000       3.90173000       3.95210000      -0.09190000      -0.08218500      -0.01122500
P        4.76254000       2.95520000       5.67444000      -0.17078500       0.08699200      -0.10822800
P        3.62796000       4.07029000       7.25545000       0.41850500       0.72298700      -0.28634000
P        3.65850000       3.98484000       0.69258000       0.37570100       0.41268900       0.22239200
P        3.81996000       0.90254000       2.08223000       0.04658700      -0.09542300       0.15102100
P        3.75452000       0.98849000       5.90958000      -0.04039200      -0.18628300      -0.07841000
P        4.62487000       0.35887000       4.02936000       0.38875700      -0.21880900      -0.12125900
P       11.41600000       1.89460000      13.69041000       0.10683400       0.36092400       0.31993200
P        9.95914000       2.00931000      12.04039000      -0.48609800       0.24399100       0.09469400
P       11.45166000       2.02195000      10.44108000       0.05111800       0.35082000      -0.41541400
P       10.03836000       2.21202000       8.63452000       0.24823100      -0.24905700      -0.13362900
P       10.04498000       2.01667000      15.52042000       0.07063600      -0.25750100       0.27559300
P        9.97948000       5.06385000      13.83963000      -0.09103800      -0.30113000       0.05448800
P        9.02188000       4.06409000      12.10844000      -0.03830400      -0.32569500       0.02030800
P        9.95475000       5.17064000      10.43283000      -0.07598800      -0.26896700      -0.04304200
P        8.74879000       4.00422000       8.89693000      -0.21381700       0.45650500       0.28238400
P        8.76321000       3.83317000      15.32729000      -0.14311200       0.44068000      -0.28529300
P       11.95476000       4.03374000      14.03792000       0.08596200       0.04777900      -0.12784600
P       11.94706000       4.18053000      10.21152000       0.13430600       0.05908800       0.07455000
P       12.64760000       4.88573000      12.15138000       0.26052000       0.33663000       0.05843100
P        1.70872000      11.10480000      13.86087000      -0.05143900      -0.34908500       0.42230000
P        3.20044000      11.11226000      12.26045000       0.48094200      -0.25584300      -0.08844300
P        1.74096000      11.23315000      10.61258000      -0.10962400      -0.36257400      -0.32126900
P        3.10908000      11.10916000       8.78138000      -0.06760600       0.25849200      -0.27513000
P        3.12012000      10.91159000      15.66957000      -0.24686600       0.26330100       0.12362200
P        3.19611000       7.95153000      13.87593000       0.07995200       0.27011700       0.03220300
P        4.12529000       9.05142000      12.19393000       0.05742400       0.33474300      -0.02638600
P        3.16668000       8.05938000      10.45833000       0.10052900       0.30519200      -0.04533300
P        4.39014000       9.29231000       8.97700000       0.13746600      -0.44039100       0.28513100
P        4.40873000       9.11986000      15.40567000       0.21167300      -0.46283800      -0.28088500
P        1.20749000       8.94784000      14.09532000      -0.14169300      -0.05447200      -0.07437100
P        1.19460000       9.09534000      10.26306000      -0.08370400      -0.03984000       0.13068800
P        0.50942000       8.24536000      12.15346000      -0.26046300      -0.33677600      -0.06246300
P       10.84316000       2.22637000       2.48414000      -0.29959600      -0.02838200       0.28616800
P       11.28758000       3.80122000       3.98025000       0.16824000       0.04551300       0.07129200
P       10.81080000       2.29253000       5.54161000      -0.27020300       0.02679200      -0.52423600