104
Lattice="14.752975 0.0 0.0 0.0 12.828814 0.0 0.0 0.0 12.8717" Properties=species:S:1:pos:R:3:forces:R:3 energy=-570.88454607 hash=65caec19db865b84795faa891699f15e virial="26.5960839552 0.0 0.0 0.0 -8.69836786862 0.0 0.0 0.0 9.45073549841" config_type=rss_3c pressure=0.0037420489448516097 uploaded="2020-04-10 10:56:53.323000" hash_structure=f5bb3ec5005e822dba26f0166ed6c15a filename=rss_3c/rss_3c_mbd2.xyz username=gabor stress="-0.0109173107215 -0.0 -0.0 -0.0 0.00357055515961 -0.0 -0.0 -0.0 -0.00387939127267" volume=2436.138773885412 n_atoms=104 free_energy=-570.88456 modified="2020-04-10 10:56:53.323000" formula=P104 miguel_caro=T pbc="T T T"
P        5.55284000       1.54336000       4.79899000       0.19947900       0.50455100       0.07727800
P        3.40593000       1.92310000       4.54218000      -0.23474400       0.31339500      -0.26753000
P        2.83521000      12.72241000       5.14557000      -0.56537400       0.06112000       0.24876300
P        0.61386000       0.19271000       4.91270000       0.15143500      -0.28882900       0.00805600
P        6.32144000       3.56955000       4.26074000      -0.16761000      -0.22288900      -0.31206400
P        4.67563000       3.69629000       7.41183000       0.00077200      -0.06417300      -0.11868400
P        2.84625000       3.29862000       6.23727000      -0.42918100      -0.13623400      -0.02870000
P        1.91349000       1.94200000       7.76613000       0.02367400       0.09807700      -0.33523500
P        0.02843000       1.52844000       6.62131000       0.24549000       0.15030800       0.72713800
P        5.98915000       4.94149000       6.02491000      -0.24906200      -0.01820700       0.05630700
P        5.84247000       1.90315000       6.94732000       0.77059700      -0.21853900       0.02603800
P        2.80712000      12.81238000       7.35081000      -0.30618700      -0.42427900       0.14763100
P        4.90134000       0.16568000       7.93271000      -0.11863300      -0.10930600       0.38202200
P        9.20015000       4.87104000       4.79899000      -0.19947900      -0.50455100       0.07727800
P       11.34706000       4.49130000       4.54218000       0.23474400      -0.31339500      -0.26753000
P       11.91778000       6.52081000       5.14557000       0.56537400      -0.06112000       0.24876300
P       14.13912000       6.22169000       4.91270000      -0.15143500       0.28882900       0.00805600
P        8.43153000       2.84485000       4.26074000       0.16761000       0.22288900      -0.31206400
P       10.07734000       2.71812000       7.41183000      -0.00077200       0.06417300      -0.11868400
P       11.90673000       3.11579000       6.23727000       0.42918100       0.13623400      -0.02870000
P       12.83948000       4.47241000       7.76613000      -0.02367400      -0.09807700      -0.33523500
P       14.72456000       4.88597000       6.62131000      -0.24549000      -0.15030800       0.72713800
P        8.76383000       1.47291000       6.02491000       0.24906200       0.01820700       0.05630700
P        8.91052000       4.51125000       6.94732000      -0.77059700       0.21853900       0.02603800
P       11.94585000       6.43084000       7.35081000       0.30618700       0.42427900       0.14763100
P        9.85164000       6.24872000       7.93271000       0.11863300       0.10930600       0.38202200
P        5.55284000      11.28544000       1.63686000       0.19947900      -0.50455100      -0.07727800
P        3.40593000      10.90571000       1.89367000      -0.23474400      -0.31339500       0.26753000
P        2.83521000       0.10640000       1.29028000      -0.56537400      -0.06112000      -0.24876300
P        0.61386000      12.63610000       1.52315000       0.15143500       0.28882900      -0.00805600
P        6.32144000       9.25926000       2.17511000      -0.16761000       0.22288900       0.31206400
P        4.67563000       9.13252000      11.89572000       0.00077200       0.06417300       0.11868400
P        2.84625000       9.53019000       0.19858000      -0.42918100       0.13623400       0.02870000
P        1.91349000      10.88681000      11.54142000       0.02367400      -0.09807700       0.33523500
P        0.02843000      11.30038000      12.68624000       0.24549000      -0.15030800      -0.72713800
P        5.98915000       7.88732000       0.41094000      -0.24906200       0.01820700      -0.05630700
P        5.84247000      10.92566000      12.36023000       0.77059700       0.21853900      -0.02603800
P        2.80712000       0.01643000      11.95674000      -0.30618700       0.42427900      -0.14763100
P        4.90134000      12.66313000      11.37484000      -0.11863300       0.10930600      -0.38202200
P        9.20015000       7.95776000       1.63686000      -0.19947900       0.50455100      -0.07727800
P       11.34706000       8.33751000       1.89367000       0.23474400       0.31339500       0.26753000
P       11.91778000       6.30800000       1.29028000       0.56537400       0.06112000      -0.24876300
P       14.13912000       6.60712000       1.52315000      -0.15143500      -0.28882900      -0.00805600
P        8.43153000       9.98396000       2.17511000       0.16761000      -0.22288900       0.31206400
P       10.07734000      10.11070000      11.89572000      -0.00077200      -0.06417300       0.11868400
P       11.90673000       9.71303000       0.19858000       0.42918100      -0.13623400       0.02870000
P       12.83948000       8.35641000      11.54142000      -0.02367400       0.09807700       0.33523500
P       14.72456000       7.94284000      12.68624000      -0.24549000       0.15030800      -0.72713800
P        8.76383000      11.35590000       0.41094000       0.24906200      -0.01820700      -0.05630700
P        8.91052000       8.31756000      12.36023000      -0.77059700      -0.21853900      -0.02603800
P       11.94585000       6.39797000      11.95674000       0.30618700      -0.42427900      -0.14763100
P        9.85164000       6.58009000      11.37484000       0.11863300      -0.10930600      -0.38202200
P        9.20015000      11.28544000       8.07271000      -0.19947900      -0.50455100      -0.07727800
P       11.34706000      10.90571000       8.32952000       0.23474400      -0.31339500       0.26753000
P       11.91778000       0.10640000       7.72613000       0.56537400      -0.06112000      -0.24876300
P       14.13912000      12.63610000       7.95900000      -0.15143500       0.28882900      -0.00805600
P        8.43153000       9.25926000       8.61096000       0.16761000       0.22288900       0.31206400
P       10.07734000       9.13252000       5.45987000      -0.00077200       0.06417300       0.11868400
P       11.90673000       9.53019000       6.63443000       0.42918100       0.13623400       0.02870000
P       12.83948000      10.88681000       5.10557000      -0.02367400      -0.09807700       0.33523500
P       14.72456000      11.30038000       6.25039000      -0.24549000      -0.15030800      -0.72713800
P        8.76383000       7.88732000       6.84679000       0.24906200       0.01820700      -0.05630700
P        8.91052000      10.92566000       5.92438000      -0.77059700       0.21853900      -0.02603800
P       11.94585000       0.01643000       5.52089000       0.30618700       0.42427900      -0.14763100
P        9.85164000      12.66313000       4.93899000       0.11863300       0.10930600      -0.38202200
P        5.55284000       7.95776000       8.07271000       0.19947900       0.50455100      -0.07727800
P        3.40593000       8.33751000       8.32952000      -0.23474400       0.31339500       0.26753000
P        2.83521000       6.30800000       7.72613000      -0.56537400       0.06112000      -0.24876300
P        0.61386000       6.60712000       7.95900000       0.15143500      -0.28882900      -0.00805600
P        6.32144000       9.98396000       8.61096000      -0.16761000      -0.22288900       0.31206400
P        4.67563000      10.11070000       5.45987000       0.00077200      -0.06417300       0.11868400
P        2.84625000       9.71303000       6.63443000      -0.42918100      -0.13623400       0.02870000
P        1.91349000       8.35641000       5.10557000       0.02367400       0.09807700       0.33523500
P        0.02843000       7.94284000       6.25039000       0.24549000       0.15030800      -0.72713800
P        5.98915000      11.35590000       6.84679000      -0.24906200      -0.01820700      -0.05630700
P        5.84247000       8.31756000       5.92438000       0.77059700      -0.21853900      -0.02603800
P        2.80712000       6.39797000       5.52089000      -0.30618700      -0.42427900      -0.14763100
P        4.90134000       6.58009000       4.93899000      -0.11863300      -0.10930600      -0.38202200
P        9.20015000       1.54336000      11.23484000      -0.19947900       0.50455100       0.07727800
P       11.34706000       1.92310000      10.97803000       0.23474400       0.31339500      -0.26753000
P       11.91778000      12.72241000      11.58142000       0.56537400       0.06112000       0.24876300
P       14.13912000       0.19271000      11.34855000      -0.15143500      -0.28882900       0.00805600
P        8.43153000       3.56955000      10.69659000       0.16761000      -0.22288900      -0.31206400
P       10.07734000       3.69629000       0.97598000      -0.00077200      -0.06417300      -0.11868400
P       11.90673000       3.29862000      12.67312000       0.42918100      -0.13623400      -0.02870000
P       12.83948000       1.94200000       1.33028000      -0.02367400       0.09807700      -0.33523500
P       14.72456000       1.52844000       0.18546000      -0.24549000       0.15030800       0.72713800
P        8.76383000       4.94149000      12.46076000       0.24906200      -0.01820700       0.05630700
P        8.91052000       1.90315000       0.51147000      -0.77059700      -0.21853900       0.02603800
P       11.94585000      12.81238000       0.91496000       0.30618700      -0.42427900       0.14763100
P        9.85164000       0.16568000       1.49686000       0.11863300      -0.10930600       0.38202200
P        5.55284000       4.87104000      11.23484000       0.19947900      -0.50455100       0.07727800
P        3.40593000       4.49130000      10.97803000      -0.23474400      -0.31339500      -0.26753000
P        2.83521000       6.52081000      11.58142000      -0.56537400      -0.06112000       0.24876300
P        0.61386000       6.22169000      11.34855000       0.15143500       0.28882900       0.00805600
P        6.32144000       2.84485000      10.69659000      -0.16761000       0.22288900      -0.31206400
P        4.67563000       2.71812000       0.97598000       0.00077200       0.06417300      -0.11868400
P        2.84625000       3.11579000      12.67312000      -0.42918100       0.13623400      -0.02870000
P        1.91349000       4.47241000       1.33028000       0.02367400      -0.09807700      -0.33523500
P        0.02843000       4.88597000       0.18546000       0.24549000      -0.15030800       0.72713800
P        5.98915000       1.47291000      12.46076000      -0.24906200       0.01820700       0.05630700
P        5.84247000       4.51125000       0.51147000       0.77059700       0.21853900       0.02603800
P        2.80712000       6.43084000       0.91496000      -0.30618700       0.42427900       0.14763100
P        4.90134000       6.24872000       1.49686000      -0.11863300       0.10930600       0.38202200
104
Lattice="14.889483 0.0 0.0 0.0 12.391801 -1e-06 0.0 -2e-06 13.347013" Properties=species:S:1:pos:R:3:forces:R:3 energy=-569.77517526 hash=2a03cfe65dbe78e74669f4a756e0817d virial="26.3757318784 0.0 0.0 0.0 11.6352465281 -0.0 0.0 -0.0 5.35105200861" config_type=rss_3c pressure=0.005869352902749718 uploaded="2020-04-10 10:56:53.293000" hash_structure=389247ae759652655bed27dccf1a710e filename=rss_3c/rss_3c_mbd2.xyz username=gabor stress="-0.010710417177 -0.0 -0.0 -0.0 -0.00472473502717 0.0 -0.0 0.0 -0.00217290650407" volume=2462.6241389572056 n_atoms=104 free_energy=-569.77517532 modified="2020-04-10 10:56:53.293000" formula=P104 miguel_caro=T pbc="T T T"
P       13.33855000       1.06165000      11.95313000      -0.05712600       0.52797300       0.28950400
P       11.16165000       1.34697000      11.59177000      -0.28503600       0.44446600      -0.02496500
P       10.27593000      11.89413000      12.35433000      -0.39593100       0.44299900       0.06958100
P        8.16584000       0.09854000      11.85261000       0.36112000      -0.21862700       0.06870100
P       13.77690000       3.12620000      11.20159000      -0.24476400       0.01203200      -0.32710600
P       12.15737000       3.40535000       0.98354000       0.03477400      -0.19065900       0.09254100
P       10.45252000       2.90202000      13.05469000      -0.36031900      -0.04981200      -0.17702200
P        9.40458000       1.86157000       1.37042000      -0.01965300      -0.19483200      -0.48394900
P        7.55619000       1.51609000       0.15572000       0.26254600       0.01286800       0.54925700
P       13.37872000       4.56250000      12.87660000       0.24834100       0.12983500      -0.36477900
P       13.41294000       1.59319000       0.76070000       0.82364700       0.07394100      -0.11396200
P       10.24094000      12.20672000       1.19632000      -0.84769000      -0.48994600       0.13434600
P       12.35360000      12.32120000       1.74348000      -0.11064900      -0.25197000       0.15101800
P        1.55096000       5.13427000      11.95313000       0.05712600      -0.52797300       0.28950400
P        3.72788000       4.84895000      11.59177000       0.28503600      -0.44446600      -0.02496500
P        4.61360000       6.69360000      12.35433000       0.39593100      -0.44299900       0.06958100
P        6.72369000       6.09738000      11.85261000      -0.36112000       0.21862700       0.06870000
P        1.11262000       3.06972000      11.20159000       0.24476400      -0.01203200      -0.32710600
P        2.73215000       2.79057000       0.98354000      -0.03477400       0.19065900       0.09254100
P        4.43701000       3.29390000      13.05469000       0.36031900       0.04981200      -0.17702200
P        5.48494000       4.33435000       1.37042000       0.01965300       0.19483200      -0.48394900
P        7.33334000       4.67984000       0.15572000      -0.26254600      -0.01286800       0.54925700
P        1.51081000       1.63342000      12.87660000      -0.24834100      -0.12983500      -0.36477900
P        1.47659000       4.60274000       0.76070000      -0.82364700      -0.07394100      -0.11396200
P        4.64859000       6.38102000       1.19632000       0.84769000       0.48994600       0.13434600
P        2.53593000       6.26653000       1.74348000       0.11064900       0.25197000       0.15101800
P        5.89381000       5.13427000       8.06739000      -0.05712600      -0.52797300      -0.28950400
P        3.71691000       4.84895000       8.42875000      -0.28503600      -0.44446600       0.02496500
P        2.83119000       6.69360000       7.66619000      -0.39593100      -0.44299900      -0.06958100
P        0.72110000       6.09738000       8.16790000       0.36112000       0.21862700      -0.06870100
P        6.33215000       3.06972000       8.81893000      -0.24476400      -0.01203200       0.32710600
P        4.71263000       2.79057000       5.68996000       0.03477400       0.19065900      -0.09254100
P        3.00778000       3.29390000       6.96583000      -0.36031900       0.04981200       0.17702200
P        1.95984000       4.33435000       5.30309000      -0.01965300       0.19483200       0.48394900
P        0.11145000       4.67984000       6.51779000       0.26254600      -0.01286800      -0.54925700
P        5.93398000       1.63342000       7.14392000       0.24834100      -0.12983500       0.36477900
P        5.96820000       4.60274000       5.91281000       0.82364700      -0.07394100       0.11396200
P        2.79620000       6.38102000       5.47719000      -0.84769000       0.48994600      -0.13434600
P        4.90885000       6.26653000       4.93003000      -0.11064900       0.25197000      -0.15101800
P        8.99570000       1.06165000       8.06739000       0.05712600       0.52797300      -0.28950400
P       11.17262000       1.34698000       8.42875000       0.28503600       0.44446600       0.02496500
P       12.05834000      11.89413000       7.66619000       0.39593100       0.44299900      -0.06958100
P       14.16843000       0.09854000       8.16790000      -0.36112000      -0.21862700      -0.06870000
P        8.55736000       3.12620000       8.81893000       0.24476400       0.01203200       0.32710600
P       10.17689000       3.40535000       5.68996000      -0.03477400      -0.19065900      -0.09254100
P       11.88175000       2.90202000       6.96583000       0.36031900      -0.04981200       0.17702200
P       12.92968000       1.86157000       5.30309000       0.01965300      -0.19483200       0.48394900
P       14.77808000       1.51609000       6.51779000      -0.26254600       0.01286800      -0.54925700
P        8.95555000       4.56250000       7.14392000      -0.24834100       0.12983500       0.36477900
P        8.92133000       1.59319000       5.91281000      -0.82364700       0.07394100       0.11396200
P       12.09333000      12.20672000       5.47719000       0.84769000      -0.48994600      -0.13434600
P        9.98067000      12.32120000       4.93003000       0.11064900      -0.25197000      -0.15101800
P        1.55096000      11.33017000       1.39388000       0.05712600      -0.52797300      -0.28950400
P        3.72788000      11.04485000       1.75524000       0.28503600      -0.44446600       0.02496500
P        4.61360000       0.49770000       0.99268000       0.39593100      -0.44299900      -0.06958100
P        6.72369000      12.29329000       1.49440000      -0.36112000       0.21862700      -0.06870100
P        1.11262000       9.26562000       2.14542000       0.24476400      -0.01203200       0.32710600
P        2.73215000       8.98647000      12.36347000      -0.03477400       0.19065900      -0.09254100
P        4.43701000       9.48980000       0.29233000       0.36031900       0.04981200       0.17702200
P        5.48494000      10.53025000      11.97659000       0.01965300       0.19483200       0.48394900
P        7.33334000      10.87574000      13.19129000      -0.26254600      -0.01286800      -0.54925700
P        1.51081000       7.82933000       0.47041000      -0.24834100      -0.12983500       0.36477900
P        1.47659000      10.79863000      12.58631000      -0.82364700      -0.07394100       0.11396200
P        4.64859000       0.18512000      12.15069000       0.84769000       0.48994600      -0.13434600
P        2.53593000       0.07063000      11.60353000       0.11064900       0.25197000      -0.15101800
P       13.33855000       7.25756000       1.39388000      -0.05712600       0.52797300      -0.28950400
P       11.16165000       7.54288000       1.75524000      -0.28503600       0.44446600       0.02496500
P       10.27593000       5.69823000       0.99268000      -0.39593100       0.44299900      -0.06958100
P        8.16584000       6.29444000       1.49440000       0.36112000      -0.21862700      -0.06870000
P       13.77690000       9.32210000       2.14542000      -0.24476400       0.01203200       0.32710600
P       12.15737000       9.60125000      12.36347000       0.03477400      -0.19065900      -0.09254100
P       10.45252000       9.09792000       0.29233000      -0.36031900      -0.04981200       0.17702200
P        9.40458000       8.05747000      11.97659000      -0.01965300      -0.19483200       0.48394900
P        7.55619000       7.71199000      13.19129000       0.26254600       0.01286800      -0.54925700
P       13.37872000      10.75840000       0.47041000       0.24834100       0.12983500       0.36477900
P       13.41294000       7.78909000      12.58631000       0.82364700       0.07394100       0.11396200
P       10.24094000       6.01081000      12.15069000      -0.84769000      -0.48994600      -0.13434600
P       12.35360000       6.12530000      11.60353000      -0.11064900      -0.25197000      -0.15101800
P        8.99570000       7.25755000       5.27962000       0.05712600       0.52797300       0.28950400
P       11.17262000       7.54288000       4.91827000       0.28503600       0.44446600      -0.02496500
P       12.05834000       5.69823000       5.68082000       0.39593100       0.44299900       0.06958100
P       14.16843000       6.29444000       5.17911000      -0.36112000      -0.21862700       0.06870100
P        8.55736000       9.32210000       4.52808000       0.24476400       0.01203200      -0.32710600
P       10.17689000       9.60125000       7.65705000      -0.03477400      -0.19065900       0.09254100
P       11.88175000       9.09792000       6.38118000       0.36031900      -0.04981200      -0.17702200
P       12.92968000       8.05747000       8.04392000       0.01965300      -0.19483200      -0.48394900
P       14.77808000       7.71199000       6.82923000      -0.26254600       0.01286800       0.54925700
P        8.95555000      10.75840000       6.20309000      -0.24834100       0.12983500      -0.36477900
P        8.92133000       7.78909000       7.43421000      -0.82364700       0.07394100      -0.11396200
P       12.09333000       6.01082000       7.86983000       0.84769000      -0.48994600       0.13434600
P        9.98067000       6.12530000       8.41699000       0.11064900      -0.25197000       0.15101800
P        5.89381000      11.33017000       5.27962000      -0.05712600      -0.52797300       0.28950400
P        3.71691000      11.04485000       4.91827000      -0.28503600      -0.44446600      -0.02496500
P        2.83119000       0.49770000       5.68082000      -0.39593100      -0.44299900       0.06958100
P        0.72110000      12.29329000       5.17911000       0.36112000       0.21862700       0.06870000
P        6.33215000       9.26562000       4.52808000      -0.24476400      -0.01203200      -0.32710600
P        4.71263000       8.98647000       7.65705000       0.03477400       0.19065900       0.09254100
P        3.00778000       9.48980000       6.38118000      -0.36031900       0.04981200      -0.17702200
P        1.95984000      10.53025000       8.04392000      -0.01965300       0.19483200      -0.48394900
P        0.11145000      10.87574000       6.82923000       0.26254600      -0.01286800       0.54925700
P        5.93398000       7.82932000       6.20309000       0.24834100      -0.12983500      -0.36477900
P        5.96820000      10.79864000       7.43421000       0.82364700      -0.07394100      -0.11396200
P        2.79620000       0.18512000       7.86983000      -0.84769000       0.48994600       0.13434600
P        4.90885000       0.07063000       8.41699000      -0.11064900       0.25197000       0.15101800
104
Lattice="12.943911 0.24864 -0.016578 0.24758 13.078507 -0.10008 -0.023239 -0.133746 16.279084" Properties=species:S:1:pos:R:3:forces:R:3 energy=-568.50559371 hash=e4724269cb8291177014383e86479694 virial="9.43688046502 -2.29643045408 -1.48755793306 -2.29643045408 17.2412984863 -0.689551531013 -1.48755793306 -0.689551531013 -1.39997563866" config_type=rss_3c pressure=0.0030588429534144515 uploaded="2020-04-10 10:56:53.299000" hash_structure=2f85a93544bd858272d2942ccbbe2898 filename=rss_3c/rss_3c_mbd2.xyz username=gabor stress="-0.00342578959694 0.000833653407908 0.000540015369571 0.000833653407908 -0.0062589603854 0.000250321965003 0.000540015369571 0.000250321965003 0.000508221122084" volume=2754.658509512892 n_atoms=104 free_energy=-568.50559371 modified="2020-04-10 10:56:53.299000" formula=P104 miguel_caro=T pbc="T T T"
P       11.56466000      11.71978000       2.43582000      -0.52294800       0.15012700      -0.69298000
P       11.51399000      10.28244000       4.11301000       0.03857500      -0.43500300      -0.10658300
P       11.50866000      11.84246000       5.67230000      -0.55062000       0.03618300       0.76119000
P       11.32961000      10.55544000       7.56835000       0.54844300       0.20629000       0.03348500
P       11.36653000      10.43519000       0.54418000       0.63822000       0.17747200      -0.04927000
P        8.41953000      10.30399000       2.34860000       0.24156600      -0.23870400      -0.06017800
P        9.47892000       9.35829000       4.07124000      -0.30216100       0.02412200       0.01996900
P        8.37528000      10.36833000       5.72777000       0.34832200      -0.24730800       0.14826600
P        9.52161000       9.27819000       7.32820000      -0.94765600      -0.19641200      -0.30536900
P        9.55102000       9.18788000       0.76564000      -0.98678000      -0.48256000       0.37151500
P        9.42757000      12.27072000       2.11207000       0.00933600       0.18130400       0.49026300
P        9.36073000      12.35953000       5.93696000      -0.06162900       0.08929200      -0.48582100
P        8.55582000      12.90350000       3.99024000      -0.71889100       0.06987500       0.07190100
P        1.67220000       1.41810000       2.34905000       0.55021900      -0.03040100      -0.76705100
P        1.66806000       2.97743000       3.90906000      -0.04592600       0.43064700       0.11305800
P        1.61706000       1.53883000       5.58569000       0.52278500      -0.14249300       0.69654300
P        1.81424000       2.82386000       7.47870000      -0.65353100      -0.18533400       0.03705100
P        1.84999000       2.70680000       0.45327000      -0.54932900      -0.19750800      -0.02578100
P        4.80419000       2.89448000       2.29303000      -0.34075100       0.24413300      -0.14530500
P        3.70225000       3.90173000       3.95210000       0.30475200      -0.02221200      -0.02193200
P        4.76254000       2.95520000       5.67444000      -0.24818500       0.23846900       0.05497600
P        3.62796000       4.07029000       7.25545000       1.00351100       0.49776000      -0.36286400
P        3.65850000       3.98484000       0.69258000       0.94061900       0.18850100       0.30540500
P        3.81996000       0.90254000       2.08223000       0.06064100      -0.09165300       0.49197300
P        3.75452000       0.98849000       5.90958000      -0.01216600      -0.17707600      -0.49343700
P        4.62487000       0.35887000       4.02936000       0.72379400      -0.07858300      -0.06444500
P       11.41600000       1.89460000      13.69041000      -0.08223100       0.62022900       0.68518000
P        9.95914000       2.00931000      12.04039000      -0.66758100      -0.09640900       0.09416400
P       11.45166000       2.02195000      10.44108000      -0.19977500       0.62265400      -0.75627600
P       10.03836000       2.21202000       8.63452000       0.42739400      -0.60673500      -0.11092800
P       10.04498000       2.01667000      15.52042000       0.17818600      -0.53718500       0.19949000
P        9.97948000       5.06385000      13.83963000      -0.29077500      -0.39625500       0.13151700
P        9.02188000       4.06409000      12.10844000      -0.08499400       0.04107000       0.00260400
P        9.95475000       5.17064000      10.43283000      -0.27431500      -0.32845800      -0.09625600
P        8.74879000       4.00422000       8.89693000       0.17260400       1.05814800       0.44365300
P        8.76321000       3.83317000      15.32729000       0.27826000       1.04322900      -0.42652800
P       11.95476000       4.03374000      14.03792000       0.30039600       0.09121500      -0.43911100
P       11.94706000       4.18053000      10.21152000       0.38264700       0.09461700       0.34399800
P       12.64760000       4.88573000      12.15138000       0.17792900       0.55396700       0.07872200
P        1.70872000      11.10480000      13.86087000       0.19492700      -0.62041200       0.76676500
P        3.20044000      11.11226000      12.26045000       0.66346300       0.08046700      -0.09013500
P        1.74096000      11.23315000      10.61258000       0.07544300      -0.62244800      -0.68455700
P        3.10908000      11.10916000       8.78138000      -0.17039200       0.53316200      -0.19781800
P        3.12012000      10.91159000      15.66957000      -0.42351700       0.62196400       0.10119400
P        3.19611000       7.95153000      13.87593000       0.27871800       0.33080300       0.07730500
P        4.12529000       9.05142000      12.19393000       0.10586000      -0.03567800      -0.01049800
P        3.16668000       8.05938000      10.45833000       0.30078700       0.39973100      -0.11821000
P        4.39014000       9.29231000       8.97700000      -0.28283300      -1.04110400       0.42830100
P        4.40873000       9.11986000      15.40567000      -0.17626000      -1.06374600      -0.44283400
P        1.20749000       8.94784000      14.09532000      -0.38964200      -0.08239700      -0.35146800
P        1.19460000       9.09534000      10.26306000      -0.28832100      -0.07949600       0.44938900
P        0.50942000       8.24536000      12.15346000      -0.17806300      -0.55754700      -0.08473500
P       10.84316000       2.22637000       2.48414000      -0.44779300       0.26972900      -0.12150200
P       11.28758000       3.80122000       3.98025000       0.36593800       0.02978100       0.05579600
P       10.81080000       2.29253000       5.54161000      -0.34374900       0.39791500      -0.09538700
P       11.30189000       3.53714000       7.27071000       0.29889400      -0.42732500       0.19135500
P       11.32385000       3.39828000       0.69130000       0.30079900      -0.26119700      -0.21420200