248
Lattice="19.207643 0.0 0.0 0.0 19.207643 0.0 0.0 0.0 19.207643" Properties=species:S:1:pos:R:3:forces:R:3 energy=-1310.85738039 hash=0a52d05be110f62b0b8ba1dd06f580af virial="0.494352900131 -7.65209813893 7.72109612803 -7.65209813893 14.1363610828 -13.2346104406 7.72109612803 -13.2346104406 19.6957855958" config_type=liq_12_03_01_liqP4 pressure=0.0016146784108647724 uploaded="2020-04-10 10:56:38.097000" hash_structure=7256de5227695c2198da4cf346617eea filename=liq_12_03_01_liqP4/liq_12_03_01_liqP4_mbd2.xyz username=gabor stress="-6.97613475e-05 0.00107983725236 -0.0010895740066 0.00107983725236 -0.00199487369776 0.0018676218097 -0.0010895740066 0.0018676218097 -0.00277940018734" volume=7086.343911736328 n_atoms=248 free_energy=-1310.85738039 modified="2020-04-10 10:56:38.097000" formula=P248 miguel_caro=T pbc="T T T"
P       19.07786000       1.83802000       2.14603000       0.92879300       0.41491500      -0.15393500
P        1.84009000       2.77358000       1.36927000      -0.88013100      -1.02367600       0.99752300
P        1.74336000       0.66243000       2.09671000      -0.19137700      -0.54106500      -0.96977400
P        1.56765000       2.19952000       3.55407000      -0.24477300       0.78903700      -0.27882600
P       17.28258000      18.89348000       5.16478000      -0.22962300       0.61210400       0.75024500
P       15.20283000      18.88955000       4.58162000      -0.69820900       0.36445400      -1.79305100
P       16.13352000       1.63244000       5.24472000      -0.02543400      -0.54441700      -0.64895300
P       15.56991000       0.04130000       6.60745000       0.93581300      -0.26187200       1.58327500
P        2.46893000       6.49209000       9.63336000      -0.59995800       0.77732200       0.38055100
P        0.67446000       6.85221000      11.06187000       1.01055300       1.05002400       0.47450500
P        1.57443000       4.92107000      10.78613000       1.07297800      -2.03107800       1.92831100
P        0.45238000       5.76483000       9.27418000      -1.63219400      -0.21091700      -2.96249400
P        2.46336000      18.93916000      13.69707000      -0.51052600       1.02606200       0.14899100
P        0.72883000       0.26124000      12.17388000       1.47864500      -1.42082200       1.44589800
P        1.05738000      17.37769000      13.20124000      -0.42868000       0.71008200      -0.94448100
P        2.49231000      18.17408000      11.69484000      -0.24779400      -0.39934100      -0.55580300
P        1.38800000       9.37700000       6.05427000       0.22192700      -0.23366100      -0.87180600
P        2.10276000       9.39052000       3.85828000      -1.64636300       0.04761500       1.22374200
P        1.78441000      11.24473000       4.98965000      -0.71931800      -0.02332500      -0.10066300
P       19.02665000      10.08705000       4.61127000       2.85100100      -0.21173500      -0.32801800
P       17.12988000       8.17216000       9.35508000      -1.13724600      -0.20468900      -0.61629400
P       16.12170000       6.39269000       8.45186000       0.09783000       0.55454600      -0.03229100
P       15.74389000       8.45077000       7.56637000       0.39667500      -1.11574000       0.77525900
P       14.90429000       7.89065000       9.53083000       0.53088700      -0.16551600       0.02737900
P        3.95699000       6.81330000      12.71951000      -1.08456800       0.52447900       0.35705100
P        5.58345000       8.01383000      12.12671000       1.79528800       0.84328900       0.56233500
P        4.26220000       8.76199000      13.83772000       0.29887200      -0.63465700      -2.07909500
P        3.67527000       8.78640000      11.58075000      -0.66373500      -0.47196000       1.30224900
P        1.01983000       8.93949000      14.88483000      -1.85658600      -0.43058000      -0.48293800
P        2.45900000       8.55236000      16.32550000       0.74397000      -1.38865500       1.26030300
P        1.53976000       6.79518000      15.20026000       0.23085100       0.94138700       0.64182200
P        0.39531000       7.81703000      16.83387000       0.55033400       0.67428800      -1.19515400
P        6.11089000      12.48537000       4.19445000       0.87726800      -2.39852500       1.57324200
P        5.05776000      13.62600000       2.84621000      -0.56732700       1.96357800      -0.81232300
P        6.35435000      14.57964000       4.48239000      -0.79544100       0.04710200      -0.51794200
P        4.35606000      13.64102000       4.95309000       0.70775100      -0.34918500      -0.30686200
P        9.90000000      12.31790000       7.53923000      -0.80544100       0.81097600       0.09906700
P        8.94634000      14.24892000       6.79370000      -0.00369400      -1.40175400       1.15037200
P        8.91260000      13.71602000       9.04242000      -0.69261200      -0.95748100      -2.54031700
P        7.66022000      12.40318000       7.32798000       1.63150800       1.56266600       1.21912900
P        2.69679000      14.27808000      15.94839000      -1.19786700      -0.38153000      -0.34503800
P        2.86109000      12.91954000      14.26064000       1.47839700      -0.04536100      -1.41109700
P        1.32900000      14.50106000      14.14683000       0.31869100      -0.49096700       0.49608100
P        1.11737000      12.66089000      15.38832000      -0.58976200       0.78912000       1.26156300
P        0.19580000      11.36124000      18.52324000      -0.75053900      -0.19061500      -1.14472100
P        0.73462000      13.00233000       0.61568000      -0.25469400       0.02750500       0.48485200
P        1.50957000      10.97325000       0.94404000       0.72388600      -0.22176100       0.73661700
P       18.60458000      11.35195000       1.36954000       0.09959300       0.40952500      -0.07818000
P        1.19715000      17.04527000       4.98874000       0.96909800      -0.15704600       0.63925000
P       18.42777000      16.21705000       5.00572000      -0.70759400      -0.93549900       0.87623800
P        0.94096000      14.88444000       4.38589000      -0.17567500       0.59055100       0.53271900
P        0.21693000      16.52856000       3.16165000      -0.09573300       0.36489200      -1.90923700
P        1.01236000       9.92171000       9.41814000      -0.45300100      -1.79220600       0.09641600
P        2.74727000      11.18371000       9.52578000       0.15091400       0.71340400       0.64282000
P        0.64855000      11.77436000      10.43653000       1.54503500       0.50664700       0.08642300
P        1.06560000      11.70892000       8.28212000      -0.47774100       1.13293500      -1.20769700
P        3.80117000      14.58010000       9.21055000       1.45397900       0.09578600       2.07306400
P        2.24618000      16.10580000       9.15115000       0.11389300      -0.53158000      -1.22882800
P        3.10839000      14.84849000       7.29066000      -1.45506900       1.71912900      -0.67894900
P        4.19877000      16.60672000       8.25185000      -0.34223800      -1.21731200       0.12567100
P       18.95602000      17.58850000      16.76564000       2.12061300      -0.15557300      -0.50829300
P        0.17738000      16.52856000      18.76414000      -1.35079800       1.38348300      -1.06694300
P       17.30463000      17.17667000      17.94221000      -0.75632100      -1.02843800       1.42024600
P       18.68312000      18.71819000      18.61599000       0.53827900      -0.54866700       0.41156500
P        3.75807000       6.26861000      18.83772000      -0.89550900       0.23450000       0.72723200
P        2.61018000       7.54484000       1.11055000       0.34316200       0.37599300      -0.49208600
P        3.24836000       5.54686000       1.67318000       0.13659300      -0.07041700      -0.15535900
P        1.62066000       5.81509000       0.21568000       0.37196200       0.05747700      -0.36544100
P        5.73652000       1.66169000       1.67546000      -0.15942400       1.07655800       0.89848800
P        6.35060000       3.33481000       0.45547000      -0.05900800       0.50761900      -1.96377700
P        7.57211000       2.81834000       2.13116000       1.65287000      -1.45176300      -0.32109400
P        5.87254000       3.90499000       2.45391000      -2.67510400       0.20660500       0.76100200
P        5.42576000       3.49020000      10.25292000       0.70089600       1.02195000       0.36105100
P        7.27570000       2.17394000      10.41615000      -1.70269200       0.20015400      -0.81498500
P        5.46932000       1.76824000       8.99459000       0.74431000      -0.90486900       0.33099000
P        5.29405000       1.57762000      11.22531000      -0.05978300      -0.63493200      -0.14680900
P        3.35427000       1.64202000      17.24673000      -0.20067000       1.54008400      -0.35096300
P        3.59075000       3.92502000      16.73871000      -0.87352900      -0.92295700       0.33997500
P        2.51259000       2.49734000      15.35809000       0.49406300       0.33168100       0.41653300
P        4.70537000       2.43007000      15.66162000      -0.22799900      -1.01364500       0.31036500
P        6.00329000       7.31035000       2.68615000       0.27519700       0.48089800       0.39726600
P        5.65367000       9.45857000       3.28249000       0.18235000      -0.60082700       0.12357100
P        5.80178000       8.87166000       1.18198000      -0.11003400       0.08603600      -0.68999800
P        7.62584000       8.86331000       2.39779000      -0.70543500      -0.26972400       0.53983900
P        4.12384000       5.69345000       5.02247000      -0.41196500      -0.54743300      -0.03000100
P        2.54302000       4.19741000       5.60064000      -0.37868800       0.51328300      -0.37249000
P        3.89429000       5.02163000       7.08019000       0.51835700      -0.25733300       0.39636500
P        4.63139000       3.59978000       5.52944000       0.17743900      -0.02667500       0.19781100
P        7.16902000       4.87340000      14.62399000       0.11947300      -0.08700200      -0.72977900
P        7.99426000       2.85086000      14.67026000      -0.86089500      -0.25461800       0.70671000
P        8.00457000       3.76558000      12.78294000       0.25505100       1.90178400      -1.06547900
P        6.05554000       3.22750000      13.59782000       0.74061300       0.15528600       0.21905300
P        5.93879000       7.92982000      16.15797000       0.71502200       0.22413400       0.14805700
P        7.04761000       9.53081000      17.26331000       0.39670100      -0.93118900      -1.50626200
P        7.50927000       9.02606000      14.99429000      -0.00617100      -0.90934000       2.49720600
P        8.04625000       7.56964000      16.84954000      -0.65441900       1.12304600      -1.26054600
P        4.94900000       8.97033000       8.68462000       0.07353300       2.84798300       2.69859100
P        4.30612000       8.13572000       6.96665000      -1.64940500      -1.81714400      -2.67717400
P        6.42211000       8.21559000       7.41553000       1.15809400      -0.26866500      -1.43416800
P        5.27188000      10.02001000       6.64058000       0.51386500      -0.09600200       1.30342300
P       12.80679000      14.04805000      13.05353000       0.36424300      -1.45564500      -1.34514100
P       10.75922000      14.57376000      12.07256000       0.58454600      -1.16855300      -0.48836700
P       12.40551000      15.95804000      12.13510000       0.65325800       1.47230000      -0.38436600
P       11.41981000      15.30227000      13.95082000      -0.98571400       1.83492500       1.99328400
P        8.03025000      13.40002000      12.30374000      -1.81519900      -1.08618400       0.02539000
P        6.64961000      11.78925000      13.22450000       0.70136500       0.39053500      -1.21156600
P        7.13134000      11.85532000      10.93656000       0.67973700      -0.80274900       0.93380200
P        5.78934000      13.24394000      11.81660000       0.04129900       0.97531400       0.55945900
P        4.09323000      13.02198000      18.91425000       1.21285800      -0.68650600      -0.88307700
P        5.98284000      11.70095000      18.94398000      -0.02091300       1.12898600       0.44700700
P        5.46713000      12.80773000      17.08314000       0.11077000       0.56408600       0.57670500
P        4.32896000      11.12687000      17.74827000      -1.52438700      -0.71020100      -0.13522000
P        5.05559000      16.96031000       4.90175000      -0.85297500       1.67037700      -1.67684500
P        5.77822000      17.89196000       2.94540000       0.58334400      -0.27200800       0.52799500
P        4.94873000      19.19351000       4.50598000      -0.33625900      -0.31998500      -0.24300700
P        3.61741000      17.96637000       3.18682000       0.77305500      -0.63180000       1.44471600
P        0.99805000       0.25706000       8.63286000       0.27648100       0.41068000      -0.39688400
P        1.84415000       2.32447000       8.51112000      -0.03014400      -0.92461200      -0.56234300
P        2.82366000       0.61126000       7.39644000      -0.40107200       0.34416300       0.43848100
P        0.88468000       1.38543000       6.71146000      -0.04303800       0.07211900       0.48205700
P        5.76379000      16.61532000      12.49207000       1.56333900       0.40853800      -0.39877200
P        6.89284000      18.36218000      13.30051000       0.10661400       0.14095900      -0.46719700
P        8.05816000      17.05147000      11.85371000      -2.01122500      -0.03019800       0.90620600
P        7.45823000      16.35327000      13.88960000       0.17812200      -0.13616400      -0.34947400
P        5.17089000      18.70417000      18.39844000      -0.03517100      -0.30992100      -0.22391600
P        4.29921000      17.60734000      16.68145000      -0.90356700       0.61179400      -0.24254400
P        3.66363000      17.11822000      18.77146000       0.64903000       0.07683200      -0.61925800
P        5.69981000      16.61851000      17.92467000       0.27416500      -0.68350000       1.18505100
P       11.22598000       4.75562000       0.52796000      -0.79602700      -0.44980000       1.01530800
P        9.93014000       6.37344000      19.08786000       0.44635600       0.68372200       0.55526400
P       11.47311000       6.67458000       1.53461000       0.08622000       0.61243000      -0.65646000
P        9.59330000       5.70135000       1.96221000       0.34865200      -1.09509700      -0.72322500
P       13.37881000       1.11059000       9.08733000       0.29443100      -0.30330800       0.40633200
P       11.75761000       0.80025000       7.67933000      -0.34201500      -0.81151400      -0.66897100
P       12.14276000       2.75668000       8.37330000      -0.03682100       1.21688600       0.49314000
P       11.29240000       1.22808000       9.80404000       0.34696900       0.59106400      -0.86849500
P       12.24635000       1.09512000      12.66199000      -0.74135100      -0.92171300      -0.20718600
P       11.42555000      18.95326000      14.18471000      -0.45762100      -0.24731800      -0.49058700
P       10.49367000      18.88655000      12.07665000       1.15024200       0.69638100       1.56790000
P       10.20658000       1.44516000      13.47368000       0.55833200      -0.90622800      -0.77147600
P        8.86675000       2.64612000      17.78822000       0.84814400      -1.62050400       0.34779100
P        8.52097000       0.89704000      16.51900000      -0.95089700      -0.47916400      -0.60785900
P        9.08289000       0.40184000      18.52637000       0.77845600       1.30504700       0.21158900
P       10.58322000       1.28693000      17.01063000      -0.83331600       0.38193700       0.96190000
P       11.96338000       8.97750000       5.44827000      -0.45861000       0.99156200       1.18052800
P       11.69152000       9.50398000       3.42885000      -0.58605300       0.29077500      -1.27230600
P       11.37769000      11.17190000       4.84640000      -0.11671400      -1.71376400       0.33569900
P        9.87307000       9.44157000       4.74175000       1.33073200       0.48559500      -0.07905000
P        7.55811000       3.09112000       7.15441000       0.25383100      -0.20708300      -0.93471300
P        9.65009000       3.68199000       6.76873000      -0.08315800       0.01149100      -0.18316600
P        8.06466000       5.18320000       6.92929000      -0.01939300       0.75230900      -0.12254000
P        8.19354000       3.92545000       5.11067000      -0.04192600      -0.20058200       1.09939400
P       10.81156000       6.90340000      10.11828000      -0.33122800       0.22419500      -1.22491300
P        9.33618000       7.97780000      11.22671000      -0.70925400       0.67848400       1.34576000
P        8.63184000       6.58352000       9.72151000      -0.22512000      -1.38614300       0.40769700
P        9.40589000       8.45430000       9.11547000       1.37147900       0.50116900      -0.35361100
P       13.15428000      10.56645000      14.22044000      -0.55254000       0.77735000       0.67213700
P       11.21571000      10.51292000      13.24626000      -0.45883400       0.03983200       0.35376600
P       11.48807000      12.07750000      14.81499000       0.73903500      -1.04417300      -0.37231800
P       11.39912000       9.96333000      15.40614000      -0.38467900      -0.27890400      -0.19414600
P        9.55008000       9.70564000       0.50564000      -0.15959200       0.17685000      -0.63061300
P       11.43249000      10.57081000      19.07062000       0.41054100       0.28962400      -0.51524000
P       10.21666000      11.61198000       1.32834000       0.32522100       0.28627900       1.73763200
P        9.55110000      11.64830000      18.54070000      -0.15270000      -0.84488400      -1.05142100
P       12.88308000      10.26326000       8.96941000      -1.87216600      -1.08347200      -0.46612400
P       13.99480000      12.01897000       9.03791000       0.80965800       1.28432000       0.66400800
P       13.95881000      10.62830000      10.80361000      -0.98534600       1.32816400      -0.30869300
P       12.06924000      11.99888000      10.20258000       1.61036100      -1.47960000      -0.10430000
P       16.11458000      17.37923000      12.66646000       0.32886800      -0.13032400      -0.09102100
P       16.28637000      15.86478000      14.30823000       0.97953100       0.54266200      -0.15456000
P       16.92145000      18.09185000      14.61581000      -0.59603500      -1.29128200      -0.47977500
P       14.82067000      17.41593000      14.39838000      -0.95327500       0.76038100       0.31793200
P       15.10673000      12.38953000      16.69332000       0.88828800       0.79272600      -0.64751900
P       15.92314000      13.81202000      18.29684000      -1.44538800      -0.54695300      -1.11658500
P       13.82737000      12.92986000      18.28495000      -0.12253300       0.91295600       0.73026500
P       14.33578000      14.52693000      16.79253000       0.62667300      -1.09237300       0.72335100
P        8.85910000      14.38026000       2.94845000      -0.53402000       0.03475600       0.65051800
P       10.02418000      16.07734000       3.91173000      -0.22921400      -1.26414800      -2.25474300
P        9.32493000      16.02121000       1.59164000      -0.13103000       0.69612500       1.29361700
P       10.85001000      14.66000000       2.24194000       1.07312700       0.33607800       0.67732300
P        7.35910000      17.10546000       8.34280000       0.75720600       0.06017700      -0.40822500
P        8.86465000      17.63154000       6.71042000       0.13249000      -0.94736500       0.05673600
P        8.81610000      18.82140000       8.52222000      -1.36640800       0.03120200      -0.55595000
P        7.05385000      18.75987000       6.95397000       0.32729300       0.83552300       0.85262400
P       15.89359000      10.95022000      12.93066000       1.27159100       0.62383600       0.08734900
P       17.86874000      10.90178000      11.83193000      -1.17992100      -0.50004100      -1.18033600
P       17.90694000      11.16431000      13.90770000      -0.30464500       0.28776400       1.57480600
P       17.15663000      12.81163000      12.64841000      -0.34400200      -0.36651600       0.12969200
P        9.02317000      16.54675000      17.69035000      -0.86704800      -1.28828900      -0.58708100
P       10.10480000      14.82033000      16.90386000       0.49096500      -0.51612500       0.67548700
P        8.02054000      14.93310000      16.35162000      -0.05582300       0.45852000       1.04931000
P        8.52372000      14.43449000      18.50218000       0.63988600       1.11766600      -1.29335000
P        9.98052000       0.91229000       4.78868000      -0.43021200      -0.20138100      -1.47915700
P        9.76943000      19.03733000       2.71946000       1.41348000       0.70331100       1.41094600
P       11.78431000       0.93543000       3.55416000      -1.11798700      -0.83849400      -0.78208800
P        9.91124000       1.98745000       2.78328000       1.48374900       0.33450800       1.03468900
P       16.41151000       3.71180000      11.35452000       0.09510900      -1.15545700      -0.21245500
P       16.02521000       1.47939000      11.39098000      -1.87807000      -0.35324700       1.40127000
P       17.96472000       2.11518000      11.00496000       1.00674600       1.30078100      -0.92872100
P       16.29290000       2.44114000       9.51842000       0.73447400       0.58268700      -0.44711200
P       17.78877000       1.72056000      14.44572000       0.33416200       0.30019000       0.11136000
P       18.37134000       1.89136000      16.57890000      -1.25812300       0.09456000      -0.30705300
P       16.38994000       2.88979000      15.70916000       1.98257700      -0.51910000       0.31573800
P       18.50470000       3.63685000      15.30711000      -0.62365100       0.27318400      -0.44494800
P       12.32407000       5.95145000      14.41021000       0.39644700       2.14178600      -1.41633000
P       11.59373000       4.69360000      15.89847000       0.33275400      -1.76446100       0.08017000
P       13.66084000       4.34281000      14.92716000      -0.39563800      -0.09674100       1.06808900
P       11.89696000       3.91373000      13.74073000      -0.69326800       0.45058200       0.50410000
P        0.22156000       6.28063000       3.02048000      -0.80559700       0.90149300       1.24254100
P       17.67966000       6.87054000       4.55448000       1.28581800      -0.13032100      -1.00677300
P       17.40846000       5.51499000       2.84815000      -0.56618300       0.52623900      -0.56345700
P       17.81947000       7.75472000       2.49021000      -0.09006500      -1.47192800       0.45684400
P       14.09780000       3.98284000       6.20048000      -0.01107200       0.17612200       0.42334700
P       12.36285000       4.29617000       4.90383000       0.96633300       1.36026600       0.44653100
P       14.42100000       5.29084000       4.47173000      -1.70037500       0.34264400       1.20092200
P       13.09669000       5.99980000       6.41213000       0.65001800      -1.81812700      -2.17288100
P       15.72891000       8.22235000      14.34060000      -0.57179200       1.54353300      -0.83677200
P       15.03467000       6.77304000      12.76465000       0.65653500       1.03663700      -0.26505000
P       16.11610000       6.19548000      14.51760000       1.67592000      -1.65098700      -0.11935500
P       17.25029000       7.45975000      12.87041000      -1.60352200      -0.91182200       1.12937600
P       15.87546000       1.93586000       0.19323000       0.72458500      -1.13998100      -0.16088200
P       16.16498000       4.02419000      18.94146000       0.16487200       0.63254600      -0.12180900
P       14.52177000       3.36155000       1.02344000      -0.76007600       0.60407300       0.57653700
P       14.46105000       2.92363000      18.07343000      -0.04287200       0.17466200       0.07646100
P       14.24185000      15.90057000       2.23156000      -0.19885800      -1.13409100       0.38398300
P       15.75255000      15.02278000       3.57084000       1.59792700      -0.10314700      -0.47452900
P       14.53652000      13.62016000       2.34641000       0.77621900       0.31484400      -1.16232700
P       13.74989000      14.61396000       4.00151000      -2.15718300       0.83061400       1.58305700
P       17.36657000      12.14807000       5.20848000       0.06572300       0.05782500      -0.14056300
P       16.67008000      11.03775000       7.02773000      -0.02594600       1.78080600       0.16376400
P       15.71051000      10.68473000       5.17485000      -0.59369200       0.99823100      -0.87255800
P       15.44099000      12.86230000       5.95187000       0.32225800      -1.82609700       0.69183100
P       16.63801000      14.76949000       9.99372000       0.40571000      -0.32300600      -0.91557800
P       17.62311000      16.67805000       9.67581000      -0.16096500       1.05457500      -0.58652600
P       18.22682000      15.03718000       8.30414000      -1.44167000       0.03772400      -0.83617000
P       18.79349000      15.01723000      10.30507000       1.02945700      -0.69295700       2.22227800
P       14.25793000       8.24436000       0.29885000       0.73057000      -0.32837300       0.24787200
P       15.29435000       9.56155000      18.04078000      -0.87870300      -1.18653200      -0.22972900
P       13.39339000       8.37584000      17.54196000       0.48662700       0.59252400      -0.48610300
P       15.31600000       7.31613000      17.73457000      -0.12605200       0.61514000       0.71998700
P       12.09672000      17.65250000      19.19712000       0.61233100      -1.87946700      -0.64195300
P       13.07278000       0.20349000      18.74188000       0.68733400       1.26097400      -1.32850100
P       13.11498000      17.77546000      17.07300000      -0.49907900       0.89671500       1.89612300
P       14.42997000      17.70393000      18.86940000      -1.18969300      -0.33671700       0.18482300
P       14.12663000      16.08888000       7.23556000       0.93076200      -0.41021700       0.72939900
P       12.52932000      15.00409000       8.35433000      -0.11446200       0.20625500      -0.90415500
P       12.14626000      16.78241000       6.97946000      -0.88671800      -0.13475300       0.81808900
P       13.10301000      16.99928000       9.01336000       0.13651100       0.16838500      -0.77895400
248
Lattice="19.577111 0.0 0.0 0.0 19.577111 0.0 0.0 0.0 19.577111" Properties=species:S:1:pos:R:3:forces:R:3 energy=-1310.13427812 hash=4bc068354c7e0ac46aabe6d5394a67ac virial="-22.3820422846 4.77856345205 -10.971851059 4.77856345205 -12.0118786678 -7.89218357075 -10.971851059 -7.89218357075 5.6096770135" config_type=liq_12_03_01_liqP4 pressure=-0.0012787562287043448 uploaded="2020-04-10 10:56:37.921000" hash_structure=43c6885f842ce4cccfd1f4be8a6457e1 filename=liq_12_03_01_liqP4/liq_12_03_01_liqP4_mbd2.xyz username=gabor stress="0.00298300445653 -0.000636871108187 0.00146229196556 -0.000636871108187 0.00160090340023 0.00105184408393 0.00146229196556 0.00105184408393 -0.000747639170644" volume=7503.187678979971 n_atoms=248 free_energy=-1310.13427812 modified="2020-04-10 10:56:37.921000" formula=P248 miguel_caro=T pbc="T T T"
P        1.20759000       0.46672000      19.22911000       1.76530700       0.39405500      -2.22531100
P        2.95215000       1.02081000       1.16347000      -0.31641100       0.11009100      -1.16864700
P        1.70616000      18.83212000       1.32034000      -0.70676300      -0.25753600       1.07183600
P        0.80677000       1.36470000       1.46699000      -0.38306500      -0.11815700       2.05917300
P       16.32430000       1.25370000       5.41599000      -0.85607100      -0.25289800      -0.26502000
P       16.26024000      19.27944000       3.74432000      -0.44873800       0.90393000      -0.14711100
P       17.64350000      19.10984000       5.35356000       0.71823400      -1.23686800       1.62300300
P       17.94761000       1.12911000       3.99258000       0.35798600       0.60651600      -1.08490400
P        2.99970000       6.46959000      11.85654000      -1.11030800       0.76612000      -0.74891100
P        1.08490000       5.55594000      12.88266000       0.33681800       1.06135700      -1.48532300
P        3.07441000       5.04087000      13.39948000       0.96186600      -1.71810300       0.45433000
P        2.32829000       4.44737000      11.32495000      -0.13138800       0.16984900       1.34175300
P       19.31787000      19.27645000      11.73511000       1.59616600       0.14387600       1.73353400
P        1.66981000       0.54017000      12.95568000      -2.15184000      -1.84792000      -0.64887700
P        1.44876000      17.98549000      12.15416000       0.38144900       0.22352200       0.96002800
P        0.11887000      18.61419000      13.89930000       1.34698900       0.54213200      -1.69263900
P        1.21946000       8.18785000       4.88441000      -0.27746500       0.55948300       0.04951500
P        2.56106000       9.74793000       4.12576000       0.72490400      -0.22939500      -0.55555600
P        0.56623000      10.34333000       4.65324000      -0.52863600      -0.67462200       0.12840400
P        0.86116000       9.03789000       2.87500000       0.16366400       0.13514100       0.21128700
P       18.49144000       8.11203000       9.91675000       0.43744000      -0.36005500      -0.11529500