248
Lattice="19.207643 0.0 0.0 0.0 19.207643 0.0 0.0 0.0 19.207643" Properties=species:S:1:pos:R:3:forces:R:3 energy=-1309.164910475593 hash=0a52d05be110f62b0b8ba1dd06f580af virial="0.494352900131 -7.65209813893 7.72109612803 -7.65209813893 14.1363610828 -13.2346104406 7.72109612803 -13.2346104406 19.6957855958" config_type=liq_12_03_01_liqP4 pressure=0.0016146784108647724 uploaded="2020-04-10 10:56:38.097000" hash_structure=7256de5227695c2198da4cf346617eea filename=liq_12_03_01_liqP4/liq_12_03_01_liqP4_mbd2.xyz username=gabor stress="0.0018294680813513388 0.0012417588123864991 -0.0010687556368040132 0.0012417588123864991 0.0006191909473562202 0.001671385152558582 -0.0010687556368040132 0.001671385152558582 -0.0003250957092534798" volume=7086.343911736328 n_atoms=248 free_energy=-1310.85738039 modified="2020-04-10 10:56:38.097000" formula=P248 miguel_caro=T pbc="T T T"
P       19.07786000       1.83802000       2.14603000       0.92800100       0.50877900      -0.14684600
P        1.84009000       2.77358000       1.36927000      -0.97287100      -0.98072700       1.00430300
P        1.74336000       0.66243000       2.09671000      -0.16833300      -0.53007200      -1.11051700
P        1.56765000       2.19952000       3.55407000      -0.27240400       0.64061600      -0.33754000
P       17.28258000      18.89348000       5.16478000      -0.08106500       0.68988700       0.70296800
P       15.20283000      18.88955000       4.58162000      -0.73777800       0.31320100      -1.62696300
P       16.13352000       1.63244000       5.24472000      -0.02394400      -0.53814500      -0.70492300
P       15.56991000       0.04130000       6.60745000       0.84551700      -0.24664000       1.55424400
P        2.46893000       6.49209000       9.63336000      -0.51893800       0.91188900       0.42694600
P        0.67446000       6.85221000      11.06187000       0.93620500       1.02650400       0.37898600
P        1.57443000       4.92107000      10.78613000       1.04955300      -1.99597700       1.96308000
P        0.45238000       5.76483000       9.27418000      -1.60179200      -0.11669000      -2.85275000
P        2.46336000      18.93916000      13.69707000      -0.42702300       1.01918200       0.16330900
P        0.72883000       0.26124000      12.17388000       1.59047400      -1.64656100       1.45753800
P        1.05738000      17.37769000      13.20124000      -0.43821400       0.82919900      -0.98951400
P        2.49231000      18.17408000      11.69484000      -0.26075700      -0.33870800      -0.58376700
P        1.38800000       9.37700000       6.05427000       0.09164800      -0.19300300      -0.77625000
P        2.10276000       9.39052000       3.85828000      -1.58960600       0.11543800       1.24982800
P        1.78441000      11.24473000       4.98965000      -0.65686100      -0.14144600      -0.26768900
P       19.02665000      10.08705000       4.61127000       2.64084200      -0.25492600      -0.35567700
P       17.12988000       8.17216000       9.35508000      -1.02522200      -0.13787400      -0.60265400
P       16.12170000       6.39269000       8.45186000       0.13980600       0.45385400      -0.02404900
P       15.74389000       8.45077000       7.56637000       0.37070400      -1.01038500       0.76694800
P       14.90429000       7.89065000       9.53083000       0.58045400      -0.12603400       0.02995300
P        3.95699000       6.81330000      12.71951000      -1.15697300       0.52831700       0.28225100
P        5.58345000       8.01383000      12.12671000       1.82321700       0.67874300       0.47417800
P        4.26220000       8.76199000      13.83772000       0.19890600      -0.55557900      -1.92788100
P        3.67527000       8.78640000      11.58075000      -0.74817700      -0.43654600       1.16370900
P        1.01983000       8.93949000      14.88483000      -1.84800700      -0.39406800      -0.40781400
P        2.45900000       8.55236000      16.32550000       0.69936900      -1.26060700       1.30351100
P        1.53976000       6.79518000      15.20026000       0.16959200       0.93886800       0.63577600
P        0.39531000       7.81703000      16.83387000       0.60120500       0.66944200      -1.37695600
P        6.11089000      12.48537000       4.19445000       0.84703800      -2.52099300       1.61797000
P        5.05776000      13.62600000       2.84621000      -0.70618100       1.91543700      -0.99651800
P        6.35435000      14.57964000       4.48239000      -0.73168100       0.33570400      -0.39541900
P        4.35606000      13.64102000       4.95309000       0.84297200      -0.47537900      -0.34980100
P        9.90000000      12.31790000       7.53923000      -0.89354900       0.94305200       0.22012100
P        8.94634000      14.24892000       6.79370000      -0.12123600      -1.62969700       1.16904000
P        8.91260000      13.71602000       9.04242000      -0.71551300      -1.11804500      -2.55500100
P        7.66022000      12.40318000       7.32798000       1.79629800       1.64232600       1.11847200
P        2.69679000      14.27808000      15.94839000      -1.37970000      -0.45103600      -0.39604100
P        2.86109000      12.91954000      14.26064000       1.44744200      -0.16095200      -1.31497100
P        1.32900000      14.50106000      14.14683000       0.40277600      -0.58034600       0.60699700
P        1.11737000      12.66089000      15.38832000      -0.53338700       0.79292100       1.24438300
P        0.19580000      11.36124000      18.52324000      -0.85105600      -0.26968600      -1.15766200
P        0.73462000      13.00233000       0.61568000      -0.16273000       0.04991800       0.48469400
P        1.50957000      10.97325000       0.94404000       0.84583500      -0.21630500       0.74068600
P       18.60458000      11.35195000       1.36954000       0.10354800       0.50375800      -0.19137900
P        1.19715000      17.04527000       4.98874000       0.94800200      -0.14781400       0.62152800
P       18.42777000      16.21705000       5.00572000      -0.76073000      -1.01533900       0.92440600
P        0.94096000      14.88444000       4.38589000      -0.12400100       0.58599200       0.51179600
P        0.21693000      16.52856000       3.16165000      -0.06092500       0.37028700      -1.89036500
P        1.01236000       9.92171000       9.41814000      -0.36155000      -1.76857100       0.07221300
P        2.74727000      11.18371000       9.52578000       0.10391800       0.55567900       0.70882700
P        0.64855000      11.77436000      10.43653000       1.29320300       0.61966500       0.28191400
P        1.06560000      11.70892000       8.28212000      -0.56680000       1.04830400      -1.21409400
P        3.80117000      14.58010000       9.21055000       1.43137200       0.07272200       1.99533100
P        2.24618000      16.10580000       9.15115000       0.03320000      -0.42749900      -1.16991800
P        3.10839000      14.84849000       7.29066000      -1.44244900       1.78029500      -0.47583000
P        4.19877000      16.60672000       8.25185000      -0.30695800      -1.15894700      -0.01992200
P       18.95602000      17.58850000      16.76564000       2.36546900      -0.14331500      -0.49454400
P        0.17738000      16.52856000      18.76414000      -1.39387300       1.46242700      -1.20699900
P       17.30463000      17.17667000      17.94221000      -0.76313500      -1.14366100       1.52946300
P       18.68312000      18.71819000      18.61599000       0.54081300      -0.53186700       0.41055700
P        3.75807000       6.26861000      18.83772000      -0.81920200       0.28474900       0.79874700
P        2.61018000       7.54484000       1.11055000       0.27328200       0.36057300      -0.58063500
P        3.24836000       5.54686000       1.67318000       0.19316000      -0.16858500      -0.11284900
P        1.62066000       5.81509000       0.21568000       0.37270600       0.06717400      -0.34998100
P        5.73652000       1.66169000       1.67546000      -0.12678200       1.02102700       0.89616300
P        6.35060000       3.33481000       0.45547000      -0.10499500       0.54781500      -1.94076500
P        7.57211000       2.81834000       2.13116000       1.76636000      -1.49581000      -0.12896500
P        5.87254000       3.90499000       2.45391000      -2.74419400       0.23358500       0.85099200
P        5.42576000       3.49020000      10.25292000       0.73777100       1.03938800       0.14881800
P        7.27570000       2.17394000      10.41615000      -1.62294500       0.13026300      -0.72612500
P        5.46932000       1.76824000       8.99459000       0.60525700      -0.85356900       0.44297100
P        5.29405000       1.57762000      11.22531000      -0.06826900      -0.76159500      -0.13817400
P        3.35427000       1.64202000      17.24673000      -0.42780200       1.46270800      -0.24656900
P        3.59075000       3.92502000      16.73871000      -0.74678100      -0.94720700       0.24264500
P        2.51259000       2.49734000      15.35809000       0.61576000       0.27401200       0.34956100
P        4.70537000       2.43007000      15.66162000      -0.12414000      -1.05421000       0.34169500
P        6.00329000       7.31035000       2.68615000       0.33795500       0.43770800       0.36666200
P        5.65367000       9.45857000       3.28249000       0.19220400      -0.52061800       0.00043700
P        5.80178000       8.87166000       1.18198000      -0.16058300       0.15338000      -0.50907000
P        7.62584000       8.86331000       2.39779000      -0.83896600      -0.39380000       0.54429100
P        4.12384000       5.69345000       5.02247000      -0.33560300      -0.50314500      -0.41628400
P        2.54302000       4.19741000       5.60064000      -0.30385600       0.68762700      -0.26049300
P        3.89429000       5.02163000       7.08019000       0.52801100      -0.44123400       0.56316500
P        4.63139000       3.59978000       5.52944000       0.15525900       0.07079400       0.28408900
P        7.16902000       4.87340000      14.62399000       0.00937000       0.03597300      -0.82724400
P        7.99426000       2.85086000      14.67026000      -0.76314000      -0.35016800       0.86045000
P        8.00457000       3.76558000      12.78294000       0.26324400       1.85785400      -1.08433700
P        6.05554000       3.22750000      13.59782000       0.26540000       0.47178800       0.31528900
P        5.93879000       7.92982000      16.15797000       0.70692300       0.15121900       0.14080800
P        7.04761000       9.53081000      17.26331000       0.38937400      -0.90844200      -1.64093000
P        7.50927000       9.02606000      14.99429000       0.05251500      -0.91821000       2.56091600
P        8.04625000       7.56964000      16.84954000      -0.62274500       1.09809300      -1.40192500
P        4.94900000       8.97033000       8.68462000       0.08267200       2.64201200       2.80805500
P        4.30612000       8.13572000       6.96665000      -1.53985100      -1.71074100      -2.57606800
P        6.42211000       8.21559000       7.41553000       1.15112800      -0.19940400      -1.51947100
P        5.27188000      10.02001000       6.64058000       0.50953400      -0.20132400       1.22130300
P       12.80679000      14.04805000      13.05353000       0.40623000      -1.40828100      -1.35266400
P       10.75922000      14.57376000      12.07256000       0.72625700      -1.19923900      -0.66302300
P       12.40551000      15.95804000      12.13510000       0.78830500       1.37872900      -0.42793300
P       11.41981000      15.30227000      13.95082000      -1.15014700       1.84733400       2.08719800
P        8.03025000      13.40002000      12.30374000      -1.94849800      -1.09813800      -0.01151000
P        6.64961000      11.78925000      13.22450000       0.80387300       0.36712700      -1.40897700
P        7.13134000      11.85532000      10.93656000       0.67420800      -0.80097400       1.03781400
P        5.78934000      13.24394000      11.81660000       0.06515400       1.10723800       0.58069800
P        4.09323000      13.02198000      18.91425000       1.24338300      -0.77795900      -0.88372700
P        5.98284000      11.70095000      18.94398000       0.00557800       1.32460500       0.73943300
P        5.46713000      12.80773000      17.08314000       0.01353800       0.61717400       0.65268500
P        4.32896000      11.12687000      17.74827000      -1.64718000      -0.67723200      -0.16350400
P        5.05559000      16.96031000       4.90175000      -0.94674100       1.74744600      -1.49594900
P        5.77822000      17.89196000       2.94540000       0.44928300      -0.30983300       0.47123900
P        4.94873000      19.19351000       4.50598000      -0.30898200      -0.23287800      -0.17566200
P        3.61741000      17.96637000       3.18682000       0.85431800      -0.70986600       1.35194000
P        0.99805000       0.25706000       8.63286000       0.27577000       0.35595400      -0.49710200
P        1.84415000       2.32447000       8.51112000       0.04498500      -1.02841100      -0.58152600
P        2.82366000       0.61126000       7.39644000      -0.51537100       0.37732600       0.53247800
P        0.88468000       1.38543000       6.71146000       0.01046400       0.07570500       0.55476900
P        5.76379000      16.61532000      12.49207000       1.56693700       0.63237500      -0.45659200
P        6.89284000      18.36218000      13.30051000       0.03829800      -0.03892600      -0.63990100
P        8.05816000      17.05147000      11.85371000      -2.08122800       0.08092900       1.00013700
P        7.45823000      16.35327000      13.88960000       0.19513400      -0.10894500      -0.38686500
P        5.17089000      18.70417000      18.39844000      -0.05994700      -0.27565500      -0.11021700
P        4.29921000      17.60734000      16.68145000      -0.91383500       0.64939200      -0.31848200
P        3.66363000      17.11822000      18.77146000       0.73162400       0.09724500      -0.65563000
P        5.69981000      16.61851000      17.92467000       0.30623500      -0.62062400       1.10055100
P       11.22598000       4.75562000       0.52796000      -0.75882200      -0.33592200       1.02898900
P        9.93014000       6.37344000      19.08786000       0.39916300       0.62317500       0.42956900
P       11.47311000       6.67458000       1.53461000       0.07921700       0.55724000      -0.59959600
P        9.59330000       5.70135000       1.96221000       0.42264900      -1.01490700      -0.66588100
P       13.37881000       1.11059000       9.08733000       0.26285300      -0.14046100       0.25399100
P       11.75761000       0.80025000       7.67933000      -0.31083500      -1.10199000      -0.66620900
P       12.14276000       2.75668000       8.37330000       0.14699100       1.14767500       0.77493600
P       11.29240000       1.22808000       9.80404000       0.22426900       0.65884500      -0.90391200
P       12.24635000       1.09512000      12.66199000      -0.35248100      -0.80837500      -0.28478600
P       11.42555000      18.95326000      14.18471000      -0.43286200      -0.29585600      -0.42219900
P       10.49367000      18.88655000      12.07665000       0.94271500       0.60400000       1.53543400
P       10.20658000       1.44516000      13.47368000       0.33450900      -1.00928400      -0.69311100
P        8.86675000       2.64612000      17.78822000       0.82173700      -1.64522400       0.36792700
P        8.52097000       0.89704000      16.51900000      -1.00425800      -0.77341100      -0.77560700
P        9.08289000       0.40184000      18.52637000       0.82060800       1.41132600       0.14499800
P       10.58322000       1.28693000      17.01063000      -0.75464700       0.37572000       0.98658800
P       11.96338000       8.97750000       5.44827000      -0.53605000       0.98746100       1.07469700
P       11.69152000       9.50398000       3.42885000      -0.66139500       0.39303600      -1.13396700
P       11.37769000      11.17190000       4.84640000      -0.06232300      -1.82307400       0.33082000
P        9.87307000       9.44157000       4.74175000       1.34315300       0.60440700      -0.12749700
P        7.55811000       3.09112000       7.15441000       0.30103100      -0.09981900      -0.96073100
P        9.65009000       3.68199000       6.76873000      -0.03310400       0.03855400      -0.08210600
P        8.06466000       5.18320000       6.92929000      -0.09747200       0.69867400      -0.13402900
P        8.19354000       3.92545000       5.11067000      -0.22541500      -0.21866000       0.95896600
P       10.81156000       6.90340000      10.11828000      -0.44165400       0.20879800      -1.24038300
P        9.33618000       7.97780000      11.22671000      -0.65527700       0.64045100       1.35353900
P        8.63184000       6.58352000       9.72151000      -0.25595500      -1.41633900       0.39171300
P        9.40589000       8.45430000       9.11547000       1.37382300       0.50752500      -0.30447600
P       13.15428000      10.56645000      14.22044000      -0.58603100       0.74637700       0.65477400
P       11.21571000      10.51292000      13.24626000      -0.56045000       0.03126600       0.36712500
P       11.48807000      12.07750000      14.81499000       0.70707300      -0.82395400      -0.31518600
P       11.39912000       9.96333000      15.40614000      -0.32568200      -0.37372100      -0.21031200
P        9.55008000       9.70564000       0.50564000      -0.33955300       0.14248000      -0.65697800
P       11.43249000      10.57081000      19.07062000       0.74860200       0.33957200      -0.54240400
P       10.21666000      11.61198000       1.32834000       0.34933800       0.19972100       1.68438500
P        9.55110000      11.64830000      18.54070000      -0.14741300      -0.81618600      -1.10703200
P       12.88308000      10.26326000       8.96941000      -1.90660400      -1.05016300      -0.48848800
P       13.99480000      12.01897000       9.03791000       0.75338000       1.33202700       0.64598200
P       13.95881000      10.62830000      10.80361000      -1.07273400       1.27175000      -0.37671800
P       12.06924000      11.99888000      10.20258000       1.74441400      -1.43015500      -0.20632600
P       16.11458000      17.37923000      12.66646000       0.37825000      -0.24311100      -0.15531500
P       16.28637000      15.86478000      14.30823000       1.02173900       0.62094300      -0.21322900
P       16.92145000      18.09185000      14.61581000      -0.65537400      -1.22267200      -0.39510100
P       14.82067000      17.41593000      14.39838000      -0.95600100       0.74460400       0.38394200
P       15.10673000      12.38953000      16.69332000       0.94960600       0.88696600      -0.56887300
P       15.92314000      13.81202000      18.29684000      -1.51203800      -0.61319700      -1.15422600
P       13.82737000      12.92986000      18.28495000      -0.16692200       0.93511600       0.77747200
P       14.33578000      14.52693000      16.79253000       0.65668500      -1.17748600       0.76423800
P        8.85910000      14.38026000       2.94845000      -0.52375900      -0.02648700       0.68809100
P       10.02418000      16.07734000       3.91173000      -0.26052600      -1.18939200      -2.38962000
P        9.32493000      16.02121000       1.59164000      -0.14783300       0.65008900       1.19327900
P       10.85001000      14.66000000       2.24194000       1.24406100       0.38226400       0.52712100
P        7.35910000      17.10546000       8.34280000       0.92188500       0.11334800      -0.38542700
P        8.86465000      17.63154000       6.71042000       0.02579800      -1.12703600      -0.01117500
P        8.81610000      18.82140000       8.52222000      -1.40570100       0.03279000      -0.46694100
P        7.05385000      18.75987000       6.95397000       0.34035500       0.81643800       0.81925500
P       15.89359000      10.95022000      12.93066000       1.32286300       0.70736000       0.16888800
P       17.86874000      10.90178000      11.83193000      -0.81695100      -0.43922700      -1.43401200
P       17.90694000      11.16431000      13.90770000      -0.18719700       0.29035000       1.52523800
P       17.15663000      12.81163000      12.64841000      -0.29694000      -0.51793500       0.12486600
P        9.02317000      16.54675000      17.69035000      -0.82013900      -1.10879100      -0.59274100
P       10.10480000      14.82033000      16.90386000       0.47438200      -0.42740800       0.70498300
P        8.02054000      14.93310000      16.35162000       0.10687100       0.28971000       1.15695000
P        8.52372000      14.43449000      18.50218000       0.49979700       1.11858900      -1.07454000
P        9.98052000       0.91229000       4.78868000      -0.42085500      -0.10158200      -1.44027800
P        9.76943000      19.03733000       2.71946000       1.50461200       0.82288800       1.45960700
P       11.78431000       0.93543000       3.55416000      -1.11450900      -0.89848900      -0.77828900
P        9.91124000       1.98745000       2.78328000       1.37241700      -0.03902400       0.93105500
P       16.41151000       3.71180000      11.35452000       0.17286400      -1.14691500      -0.18372100
P       16.02521000       1.47939000      11.39098000      -1.85033700      -0.35518000       1.49448600
P       17.96472000       2.11518000      11.00496000       0.79389400       1.41946300      -1.04204200
P       16.29290000       2.44114000       9.51842000       0.81221600       0.66231900      -0.51131400
P       17.78877000       1.72056000      14.44572000       0.27436700       0.20507000       0.05326300
P       18.37134000       1.89136000      16.57890000      -1.37011200       0.16235700      -0.23069500
P       16.38994000       2.88979000      15.70916000       1.97020100      -0.49737300       0.20748400
P       18.50470000       3.63685000      15.30711000      -0.52955700       0.40357600      -0.41432400
P       12.32407000       5.95145000      14.41021000       0.38000500       2.08894100      -1.46824100
P       11.59373000       4.69360000      15.89847000       0.29643700      -1.68290300       0.03425300
P       13.66084000       4.34281000      14.92716000      -0.26134900      -0.14955800       1.05111600
P       11.89696000       3.91373000      13.74073000      -0.68225400       0.56900100       0.58691700
P        0.22156000       6.28063000       3.02048000      -0.84460600       0.81244600       1.24616500
P       17.67966000       6.87054000       4.55448000       1.27129500      -0.08329100      -1.11848300
P       17.40846000       5.51499000       2.84815000      -0.50828200       0.53352600      -0.48115100
P       17.81947000       7.75472000       2.49021000      -0.06351900      -1.51770400       0.42008700
P       14.09780000       3.98284000       6.20048000      -0.13865000       0.17627300       0.39574900
P       12.36285000       4.29617000       4.90383000       1.19167100       1.52971800       0.48277100
P       14.42100000       5.29084000       4.47173000      -1.83875300       0.29932300       1.35733700
P       13.09669000       5.99980000       6.41213000       0.70102400      -1.96626000      -2.27077200
P       15.72891000       8.22235000      14.34060000      -0.42866900       1.61666100      -0.66251700
P       15.03467000       6.77304000      12.76465000       0.68711300       0.99853200      -0.39867700
P       16.11610000       6.19548000      14.51760000       1.74257900      -1.69549000      -0.00450400
P       17.25029000       7.45975000      12.87041000      -1.72379500      -0.98409000       1.15291700
P       15.87546000       1.93586000       0.19323000       0.73644500      -1.18847200      -0.14442100
P       16.16498000       4.02419000      18.94146000       0.11598400       0.57941500      -0.18467600
P       14.52177000       3.36155000       1.02344000      -0.73398100       0.68076800       0.60042100
P       14.46105000       2.92363000      18.07343000      -0.06314800       0.34553700       0.07652500
P       14.24185000      15.90057000       2.23156000      -0.13349300      -1.35384600       0.42525500
P       15.75255000      15.02278000       3.57084000       1.48895900       0.07313800      -0.51247000
P       14.53652000      13.62016000       2.34641000       0.77951400       0.22734700      -1.12656600
P       13.74989000      14.61396000       4.00151000      -2.21528600       0.88356600       1.39324700
P       17.36657000      12.14807000       5.20848000       0.27105700      -0.18325100      -0.00642500
P       16.67008000      11.03775000       7.02773000       0.04941400       2.00131100       0.42906500
P       15.71051000      10.68473000       5.17485000      -0.72527100       1.08949700      -1.07934500
P       15.44099000      12.86230000       5.95187000       0.21520500      -1.96517400       0.82740900
P       16.63801000      14.76949000       9.99372000       0.50813400      -0.33945900      -0.93721700
P       17.62311000      16.67805000       9.67581000      -0.16063100       1.01494800      -0.63076200
P       18.22682000      15.03718000       8.30414000      -1.61670200      -0.02088000      -0.75483100
P       18.79349000      15.01723000      10.30507000       0.97549400      -0.67143400       2.27584600
P       14.25793000       8.24436000       0.29885000       0.78439100      -0.38561700       0.12944800
P       15.29435000       9.56155000      18.04078000      -0.83057400      -1.17518100      -0.18437600
P       13.39339000       8.37584000      17.54196000       0.53897600       0.50036700      -0.48473600
P       15.31600000       7.31613000      17.73457000      -0.23368900       0.67327900       0.69971500
P       12.09672000      17.65250000      19.19712000       0.57563100      -2.08477000      -0.65625200
P       13.07278000       0.20349000      18.74188000       0.66602600       1.30500500      -1.25606000
P       13.11498000      17.77546000      17.07300000      -0.58554000       0.84720300       1.99647700
P       14.42997000      17.70393000      18.86940000      -1.28038400      -0.17901300       0.13035600
P       14.12663000      16.08888000       7.23556000       1.00023300      -0.41575900       0.78381100
P       12.52932000      15.00409000       8.35433000      -0.06841300       0.33194400      -0.79453000
P       12.14626000      16.78241000       6.97946000      -0.82367500      -0.06568200       0.79035900
P       13.10301000      16.99928000       9.01336000       0.17281800       0.14431700      -0.80561900
248
Lattice="19.577111 0.0 0.0 0.0 19.577111 0.0 0.0 0.0 19.577111" Properties=species:S:1:pos:R:3:forces:R:3 energy=-1307.173271182219 hash=4bc068354c7e0ac46aabe6d5394a67ac virial="-22.3820422846 4.77856345205 -10.971851059 4.77856345205 -12.0118786678 -7.89218357075 -10.971851059 -7.89218357075 5.6096770135" config_type=liq_12_03_01_liqP4 pressure=-0.0012787562287043448 uploaded="2020-04-10 10:56:37.921000" hash_structure=43c6885f842ce4cccfd1f4be8a6457e1 filename=liq_12_03_01_liqP4/liq_12_03_01_liqP4_mbd2.xyz username=gabor stress="0.005431652751293094 -0.0007979821718672463 0.0016199941305016698 -0.0007979821718672463 0.0038703603378274927 0.000759594487549165 0.0016199941305016698 0.000759594487549165 0.001286161350732989" volume=7503.187678979971 n_atoms=248 free_energy=-1310.13427812 modified="2020-04-10 10:56:37.921000" formula=P248 miguel_caro=T pbc="T T T"
P        1.20759000       0.46672000      19.22911000       1.83879000       0.42723400      -2.30111200
P        2.95215000       1.02081000       1.16347000      -0.54703800       0.05800200      -1.14456700
P        1.70616000      18.83212000       1.32034000      -0.69959000      -0.23056400       1.00273900
P        0.80677000       1.36470000       1.46699000      -0.51890200      -0.10595900       1.92172800
P       16.32430000       1.25370000       5.41599000      -0.81651000      -0.32319100      -0.21364100
P       16.26024000      19.27944000       3.74432000      -0.44088600       0.91652100      -0.14665400
P       17.64350000      19.10984000       5.35356000       0.68723700      -1.17462300       1.61796000
P       17.94761000       1.12911000       3.99258000       0.40038000       0.64478800      -1.12879300
P        2.99970000       6.46959000      11.85654000      -0.95754400       0.74036400      -0.74276300
P        1.08490000       5.55594000      12.88266000       0.35478300       1.09835600      -1.61708000
P        3.07441000       5.04087000      13.39948000       0.93876700      -1.72891900       0.50803800
P        2.32829000       4.44737000      11.32495000      -0.24738500       0.12014600       1.28843900
P       19.31787000      19.27645000      11.73511000       1.62871900      -0.07778800       1.68389400
P        1.66981000       0.54017000      12.95568000      -2.15396600      -2.00033900      -0.55125500
P        1.44876000      17.98549000      12.15416000       0.29197700       0.50330400       1.00753000
P        0.11887000      18.61419000      13.89930000       1.50371500       0.54834000      -1.54290900
P        1.21946000       8.18785000       4.88441000      -0.28412200       0.56533300      -0.01824800
P        2.56106000       9.74793000       4.12576000       0.68558200      -0.28523900      -0.45272900
P        0.56623000      10.34333000       4.65324000      -0.55288300      -0.64450000       0.11911300
P        0.86116000       9.03789000       2.87500000       0.18219800       0.11303700       0.27693000