104
Lattice="14.752975 0.0 0.0 0.0 12.828814 0.0 0.0 0.0 12.8717" Properties=species:S:1:pos:R:3:forces:R:3 energy=-569.65694925728 hash=65caec19db865b84795faa891699f15e virial="26.5960839552 0.0 0.0 0.0 -8.69836786862 0.0 0.0 0.0 9.45073549841" config_type=rss_3c pressure=0.0037420489448516097 uploaded="2020-04-10 10:56:53.323000" hash_structure=f5bb3ec5005e822dba26f0166ed6c15a filename=rss_3c/rss_3c_mbd2.xyz username=gabor stress="0.00015709285698434558 0.0 -0.0 0.0 0.007367133675794524 1.1904083753713148e-07 -0.0 1.1904083753713148e-07 0.0007102715241629288" volume=2436.138773885412 n_atoms=104 free_energy=-570.88456 modified="2020-04-10 10:56:53.323000" formula=P104 miguel_caro=T pbc="T T T"
P        5.55284000       1.54336000       4.79899000       0.04636100       0.16995600      -0.00272200
P        3.40593000       1.92310000       4.54218000       0.04117800       0.30229800      -0.27332700
P        2.83521000      12.72241000       5.14557000      -0.47317400       0.03382100      -0.08498600
P        0.61386000       0.19271000       4.91270000       0.02335200      -0.35741300       0.14508700
P        6.32144000       3.56955000       4.26074000      -0.08343600      -0.36696700      -0.41307600
P        4.67563000       3.69629000       7.41183000       0.05775000      -0.02469900      -0.07795100
P        2.84625000       3.29862000       6.23727000      -0.34296000      -0.27238600       0.02417200
P        1.91349000       1.94200000       7.76613000       0.05267500       0.26445700      -0.05333900
P        0.02843000       1.52844000       6.62131000       0.07663300       0.37968100       0.49353300
P        5.98915000       4.94149000       6.02491000      -0.15246200      -0.01823500       0.14483600
P        5.84247000       1.90315000       6.94732000       0.17227400      -0.33209800       0.50547300
P        2.80712000      12.81238000       7.35081000       0.07545200      -0.30443900       0.32925500
P        4.90134000       0.16568000       7.93271000       0.12275400       0.15245200       0.13332600
P        9.20015000       4.87104000       4.79899000      -0.04641700      -0.16998500      -0.00275400
P       11.34706000       4.49130000       4.54218000      -0.04120300      -0.30224600      -0.27335100
P       11.91778000       6.52081000       5.14557000       0.47307700      -0.03385600      -0.08500900
P       14.13912000       6.22169000       4.91270000      -0.02327000       0.35746000       0.14509600
P        8.43153000       2.84485000       4.26074000       0.08350200       0.36701800      -0.41306500
P       10.07734000       2.71812000       7.41183000      -0.05758500       0.02456800      -0.07793200
P       11.90673000       3.11579000       6.23727000       0.34294300       0.27230700       0.02423300
P       12.83948000       4.47241000       7.76613000      -0.05253500      -0.26447100      -0.05335500
P       14.72456000       4.88597000       6.62131000      -0.07679400      -0.37973100       0.49359900
P        8.76383000       1.47291000       6.02491000       0.15243100       0.01827500       0.14484000
P        8.91052000       4.51125000       6.94732000      -0.17242600       0.33220600       0.50540000
P       11.94585000       6.43084000       7.35081000      -0.07533100       0.30446400       0.32923800
P        9.85164000       6.24872000       7.93271000      -0.12281500      -0.15240300       0.13335600
P        5.55284000      11.28544000       1.63686000       0.04635700      -0.16984700       0.00272500
P        3.40593000      10.90571000       1.89367000       0.04115800      -0.30231500       0.27332800
P        2.83521000       0.10640000       1.29028000      -0.47316200      -0.03381700       0.08498400
P        0.61386000      12.63610000       1.52315000       0.02335700       0.35747900      -0.14508100
P        6.32144000       9.25926000       2.17511000      -0.08341800       0.36690200       0.41309100
P        4.67563000       9.13252000      11.89572000       0.05775100       0.02469600       0.07794300
P        2.84625000       9.53019000       0.19858000      -0.34296900       0.27238600      -0.02417200
P        1.91349000      10.88681000      11.54142000       0.05267000      -0.26444300       0.05334300
P        0.02843000      11.30038000      12.68624000       0.07663700      -0.37976300      -0.49354200
P        5.98915000       7.88732000       0.41094000      -0.15246400       0.01822700      -0.14484200
P        5.84247000      10.92566000      12.36023000       0.17227700       0.33208000      -0.50549300
P        2.80712000       0.01643000      11.95674000       0.07545900       0.30444200      -0.32925500
P        4.90134000      12.66313000      11.37484000       0.12275200      -0.15244800      -0.13331900
P        9.20015000       7.95776000       1.63686000      -0.04641300       0.17009800       0.00274100
P       11.34706000       8.33751000       1.89367000      -0.04122300       0.30225200       0.27333100
P       11.91778000       6.30800000       1.29028000       0.47308400       0.03386700       0.08499900
P       14.13912000       6.60712000       1.52315000      -0.02327800      -0.35745200      -0.14510100
P        8.43153000       9.98396000       2.17511000       0.08352200      -0.36708700       0.41305200
P       10.07734000      10.11070000      11.89572000      -0.05761100      -0.02465600       0.07794600
P       11.90673000       9.71303000       0.19858000       0.34293400      -0.27236800      -0.02420700
P       12.83948000       8.35641000      11.54142000      -0.05254900       0.26437700       0.05338100
P       14.72456000       7.94284000      12.68624000      -0.07680100       0.37974800      -0.49360200
P        8.76383000      11.35590000       0.41094000       0.15241100      -0.01825900      -0.14482100
P        8.91052000       8.31756000      12.36023000      -0.17238700      -0.33216200      -0.50539500
P       11.94585000       6.39797000      11.95674000      -0.07530700      -0.30437900      -0.32925400
P        9.85164000       6.58009000      11.37484000      -0.12281100       0.15240700      -0.13335500
P        9.20015000      11.28544000       8.07271000      -0.04640600      -0.16988100       0.00274700
P       11.34706000      10.90571000       8.32952000      -0.04119300      -0.30233700       0.27334800
P       11.91778000       0.10640000       7.72613000       0.47307300      -0.03379900       0.08498700
P       14.13912000      12.63610000       7.95900000      -0.02327100       0.35746400      -0.14510500
P        8.43153000       9.25926000       8.61096000       0.08348700       0.36695300       0.41307900
P       10.07734000       9.13252000       5.45987000      -0.05761100       0.02465000       0.07793500
P       11.90673000       9.53019000       6.63443000       0.34294100       0.27235300      -0.02420800
P       12.83948000      10.88681000       5.10557000      -0.05253900      -0.26442400       0.05336800
P       14.72456000      11.30038000       6.25039000      -0.07679800      -0.37976400      -0.49358400
P        8.76383000       7.88732000       6.84679000       0.15242500       0.01822600      -0.14482000
P        8.91052000      10.92566000       5.92438000      -0.17239200       0.33212500      -0.50543300
P       11.94585000       0.01643000       5.52089000      -0.07531400       0.30444500      -0.32924400
P        9.85164000      12.66313000       4.93899000      -0.12280500      -0.15243400      -0.13335600
P        5.55284000       7.95776000       8.07271000       0.04636400       0.17006400       0.00271800
P        3.40593000       8.33751000       8.32952000       0.04118800       0.30223000       0.27331100
P        2.83521000       6.30800000       7.72613000      -0.47317300       0.03388500       0.08499600
P        0.61386000       6.60712000       7.95900000       0.02336400      -0.35746600      -0.14507700
P        6.32144000       9.98396000       8.61096000      -0.08345300      -0.36703600       0.41306500
P        4.67563000      10.11070000       5.45987000       0.05775000      -0.02470100       0.07795500
P        2.84625000       9.71303000       6.63443000      -0.34296200      -0.27240000      -0.02417100
P        1.91349000       8.35641000       5.10557000       0.05268000       0.26439600       0.05335600
P        0.02843000       7.94284000       6.25039000       0.07664000       0.37974800      -0.49356000
P        5.98915000      11.35590000       6.84679000      -0.15245000      -0.01826000      -0.14484400
P        5.84247000       8.31756000       5.92438000       0.17227100      -0.33211700      -0.50545400
P        2.80712000       6.39797000       5.52089000       0.07545100      -0.30437700      -0.32926600
P        4.90134000       6.58009000       4.93899000       0.12275900       0.15242100      -0.13331900
P        9.20015000       1.54336000      11.23484000      -0.04641100       0.16998900      -0.00274400
P       11.34706000       1.92310000      10.97803000      -0.04121300       0.30232000      -0.27334700
P       11.91778000      12.72241000      11.58142000       0.47308500       0.03380400      -0.08498900
P       14.13912000       0.19271000      11.34855000      -0.02326600      -0.35739800       0.14511100
P        8.43153000       3.56955000      10.69659000       0.08350500      -0.36701800      -0.41306400
P       10.07734000       3.69629000       0.97598000      -0.05761100      -0.02465400      -0.07794200
P       11.90673000       3.29862000      12.67312000       0.34293200      -0.27235300       0.02420900
P       12.83948000       1.94200000       1.33028000      -0.05254400       0.26443800      -0.05336400
P       14.72456000       1.52844000       0.18546000      -0.07679400       0.37968100       0.49357500
P        8.76383000       4.94149000      12.46076000       0.15242300      -0.01823400       0.14481400
P        8.91052000       1.90315000       0.51147000      -0.17239000      -0.33214400       0.50541300
P       11.94585000      12.81238000       0.91496000      -0.07530800      -0.30444100       0.32924400
P        9.85164000       0.16568000       1.49686000      -0.12280600       0.15243900       0.13336300
P        5.55284000       4.87104000      11.23484000       0.04636700      -0.16995200      -0.00273100
P        3.40593000       4.49130000      10.97803000       0.04116800      -0.30222400      -0.27333100
P        2.83521000       6.52081000      11.58142000      -0.47316600      -0.03387300      -0.08500600
P        0.61386000       6.22169000      11.34855000       0.02335700       0.35747400       0.14507200
P        6.32144000       2.84485000      10.69659000      -0.08343300       0.36696700      -0.41307700
P        4.67563000       2.71812000       0.97598000       0.05772400       0.02461300      -0.07794000
P        2.84625000       3.11579000      12.67312000      -0.34297100       0.27233900       0.02419600
P        1.91349000       4.47241000       1.33028000       0.05266600      -0.26449000      -0.05333000
P        0.02843000       4.88597000       0.18546000       0.07663300      -0.37973100       0.49355700
P        5.98915000       1.47291000      12.46076000      -0.15247000       0.01827600       0.14486300
P        5.84247000       4.51125000       0.51147000       0.17231100       0.33216000       0.50545900
P        2.80712000       6.43084000       0.91496000       0.07547500       0.30446200       0.32924900
P        4.90134000       6.24872000       1.49686000       0.12276200      -0.15241600       0.13331900
104
Lattice="14.889483 0.0 0.0 0.0 12.391801 -1e-06 0.0 -2e-06 13.347013" Properties=species:S:1:pos:R:3:forces:R:3 energy=-568.986200527656 hash=2a03cfe65dbe78e74669f4a756e0817d virial="26.3757318784 0.0 0.0 0.0 11.6352465281 -0.0 0.0 -0.0 5.35105200861" config_type=rss_3c pressure=0.005869352902749718 uploaded="2020-04-10 10:56:53.293000" hash_structure=389247ae759652655bed27dccf1a710e filename=rss_3c/rss_3c_mbd2.xyz username=gabor stress="0.0011817272290818599 1.6242835992397094e-08 -8.121417996198547e-09 1.6242835992397094e-08 0.00327952198317193 -7.71534709638862e-08 -8.121417996198547e-09 -7.71534709638862e-08 0.00423993651114838" volume=2462.6241389572056 n_atoms=104 free_energy=-569.77517532 modified="2020-04-10 10:56:53.293000" formula=P104 miguel_caro=T pbc="T T T"
P       13.33855000       1.06165000      11.95313000      -0.32655200       0.31779400       0.22146600
P       11.16165000       1.34697000      11.59177000      -0.01526300       0.20374000       0.05912900
P       10.27593000      11.89413000      12.35433000      -0.18284300       0.40224000      -0.22115000
P        8.16584000       0.09854000      11.85261000      -0.08301000      -0.26406600       0.20727000
P       13.77690000       3.12620000      11.20159000       0.16034300       0.08136700      -0.42570800
P       12.15737000       3.40535000       0.98354000       0.29865800      -0.37093000       0.07925200
P       10.45252000       2.90202000      13.05469000      -0.34660600      -0.08150400      -0.16504500
P        9.40458000       1.86157000       1.37042000       0.11488600       0.03579900      -0.20809300
P        7.55619000       1.51609000       0.15572000       0.17670400       0.20811000       0.33164300
P       13.37872000       4.56250000      12.87660000       0.17010200       0.06759400      -0.09582800
P       13.41294000       1.59319000       0.76070000       0.13858900      -0.06741200       0.31537300
P       10.24094000      12.20672000       1.19632000      -0.27365600      -0.26687500       0.20056700
P       12.35360000      12.32120000       1.74348000       0.23360300       0.09179100       0.04865300
P        1.55096000       5.13427000      11.95313000       0.32675000      -0.31780000       0.22144900
P        3.72788000       4.84895000      11.59177000       0.01513900      -0.20365800       0.05916500
P        4.61360000       6.69360000      12.35433000       0.18283000      -0.40233700      -0.22118500
P        6.72369000       6.09738000      11.85261000       0.08300100       0.26411000       0.20728100
P        1.11262000       3.06972000      11.20159000      -0.16034000      -0.08137200      -0.42570300
P        2.73215000       2.79057000       0.98354000      -0.29856000       0.37100500       0.07923200
P        4.43701000       3.29390000      13.05469000       0.34650900       0.08151200      -0.16503200
P        5.48494000       4.33435000       1.37042000      -0.11481200      -0.03563300      -0.20810700
P        7.33334000       4.67984000       0.15572000      -0.17676100      -0.20814800       0.33169100
P        1.51081000       1.63342000      12.87660000      -0.17017500      -0.06759100      -0.09584600
P        1.47659000       4.60274000       0.76070000      -0.13862100       0.06736600       0.31538300
P        4.64859000       6.38102000       1.19632000       0.27366600       0.26671500       0.20058000
P        2.53593000       6.26653000       1.74348000      -0.23358200      -0.09177600       0.04864100
P        5.89381000       5.13427000       8.06739000      -0.32657700      -0.31777400      -0.22143600
P        3.71691000       4.84895000       8.42875000      -0.01528900      -0.20367600      -0.05915200
P        2.83119000       6.69360000       7.66619000      -0.18282300      -0.40231800       0.22119800
P        0.72110000       6.09738000       8.16790000      -0.08300600       0.26413200      -0.20714900
P        6.33215000       3.06972000       8.81893000       0.16042500      -0.08136700       0.42571300
P        4.71263000       2.79057000       5.68996000       0.29868600       0.37100100      -0.07917600
P        3.00778000       3.29390000       6.96583000      -0.34657300       0.08151400       0.16502100
P        1.95984000       4.33435000       5.30309000       0.11490200      -0.03564000       0.20808900
P        0.11145000       4.67984000       6.51779000       0.17668800      -0.20817900      -0.33171600
P        5.93398000       1.63342000       7.14392000       0.17007300      -0.06756700       0.09579600
P        5.96820000       4.60274000       5.91281000       0.13853400       0.06734400      -0.31544200
P        2.79620000       6.38102000       5.47719000      -0.27376500       0.26670400      -0.20058800
P        4.90885000       6.26653000       4.93003000       0.23368700      -0.09183700      -0.04868500
P        8.99570000       1.06165000       8.06739000       0.32676200       0.31783100      -0.22143400
P       11.17262000       1.34698000       8.42875000       0.01513600       0.20361300      -0.05913700
P       12.05834000      11.89413000       7.66619000       0.18280200       0.40230700       0.22118700
P       14.16843000       0.09854000       8.16790000       0.08301000      -0.26405900      -0.20714200
P        8.55736000       3.12620000       8.81893000      -0.16038700       0.08137900       0.42571200
P       10.17689000       3.40535000       5.68996000      -0.29853500      -0.37094200      -0.07915600
P       11.88175000       2.90202000       6.96583000       0.34648600      -0.08141900       0.16499400
P       12.92968000       1.86157000       5.30309000      -0.11477800       0.03578100       0.20806400
P       14.77808000       1.51609000       6.51779000      -0.17673400       0.20814000      -0.33170700
P        8.95555000       4.56250000       7.14392000      -0.17012900       0.06759800       0.09583600
P        8.92133000       1.59319000       5.91281000      -0.13865300      -0.06743300      -0.31541300
P       12.09333000      12.20672000       5.47719000       0.27363400      -0.26690200      -0.20059500
P        9.98067000      12.32120000       4.93003000      -0.23359000       0.09179500      -0.04868800
P        1.55096000      11.33017000       1.39388000       0.32674700      -0.31780700      -0.22146100
P        3.72788000      11.04485000       1.75524000       0.01513400      -0.20362100      -0.05912800
P        4.61360000       0.49770000       0.99268000       0.18280900      -0.40232300       0.22119200
P        6.72369000      12.29329000       1.49440000       0.08299600       0.26405500      -0.20727800
P        1.11262000       9.26562000       2.14542000      -0.16033300      -0.08134000       0.42573300
P        2.73215000       8.98647000      12.36347000      -0.29849100       0.37097600      -0.07920700
P        4.43701000       9.48980000       0.29233000       0.34652500       0.08153600       0.16490900
P        5.48494000      10.53025000      11.97659000      -0.11483500      -0.03565900       0.20816800
P        7.33334000      10.87574000      13.19129000      -0.17676600      -0.20813100      -0.33168500
P        1.51081000       7.82933000       0.47041000      -0.17016900      -0.06767900       0.09584700
P        1.47659000      10.79863000      12.58631000      -0.13861900       0.06749200      -0.31540200
P        4.64859000       0.18512000      12.15069000       0.27367100       0.26669300      -0.20057300
P        2.53593000       0.07063000      11.60353000      -0.23359600      -0.09186100      -0.04862800
P       13.33855000       7.25756000       1.39388000      -0.32656100       0.31771600      -0.22147100
P       11.16165000       7.54288000       1.75524000      -0.01527100       0.20362000      -0.05908900
P       10.27593000       5.69823000       0.99268000      -0.18281700       0.40229700       0.22117600
P        8.16584000       6.29444000       1.49440000      -0.08300700      -0.26404600      -0.20727500
P       13.77690000       9.32210000       2.14542000       0.16034800       0.08142600       0.42572900
P       12.15737000       9.60125000      12.36347000       0.29860900      -0.37095000      -0.07921300
P       10.45252000       9.09792000       0.29233000      -0.34660700      -0.08144200       0.16490300
P        9.40458000       8.05747000      11.97659000       0.11491400       0.03573600       0.20815200
P        7.55619000       7.71199000      13.19129000       0.17670300       0.20806000      -0.33166200
P       13.37872000      10.75840000       0.47041000       0.17010600       0.06761400       0.09582500
P       13.41294000       7.78909000      12.58631000       0.13859200      -0.06739100      -0.31538500
P       10.24094000       6.01081000      12.15069000      -0.27367300      -0.26677900      -0.20057300
P       12.35360000       6.12530000      11.60353000       0.23359200       0.09176600      -0.04864500
P        8.99570000       7.25755000       5.27962000       0.32675200       0.31784300       0.22153300
P       11.17262000       7.54288000       4.91827000       0.01512000       0.20361200       0.05904600
P       12.05834000       5.69823000       5.68082000       0.18281700       0.40228600      -0.22107800
P       14.16843000       6.29444000       5.17911000       0.08301900      -0.26404900       0.20722000
P        8.55736000       9.32210000       4.52808000      -0.16038000       0.08137500      -0.42570900
P       10.17689000       9.60125000       7.65705000      -0.29853100      -0.37093100       0.07917900
P       11.88175000       9.09792000       6.38118000       0.34649500      -0.08141300      -0.16497200
P       12.92968000       8.05747000       8.04392000      -0.11479500       0.03580100      -0.20800600
P       14.77808000       7.71199000       6.82923000      -0.17672400       0.20809500       0.33163900
P        8.95555000      10.75840000       6.20309000      -0.17015000       0.06757600      -0.09580900
P        8.92133000       7.78909000       7.43421000      -0.13865800      -0.06743900       0.31531600
P       12.09333000       6.01082000       7.86983000       0.27363200      -0.26692300       0.20049100
P        9.98067000       6.12530000       8.41699000      -0.23359600       0.09178100       0.04864400
P        5.89381000      11.33017000       5.27962000      -0.32656800      -0.31778700       0.22153500
P        3.71691000      11.04485000       4.91827000      -0.01527900      -0.20367200       0.05905700
P        2.83119000       0.49770000       5.68082000      -0.18282200      -0.40230100      -0.22108200
P        0.72110000      12.29329000       5.17911000      -0.08301500       0.26406000       0.20721600
P        6.33215000       9.26562000       4.52808000       0.16041700      -0.08136200      -0.42571000
P        4.71263000       8.98647000       7.65705000       0.29868200       0.37099000       0.07919900
P        3.00778000       9.48980000       6.38118000      -0.34658200       0.08151300      -0.16499700
P        1.95984000      10.53025000       8.04392000       0.11492500      -0.03563900      -0.20804000
P        0.11145000      10.87574000       6.82923000       0.17669600      -0.20814000       0.33158900
P        5.93398000       7.82932000       6.20309000       0.17009300      -0.06754400      -0.09577100
P        5.96820000      10.79864000       7.43421000       0.13853700       0.06735800       0.31534600
P        2.79620000       0.18512000       7.86983000      -0.27376700       0.26671000       0.20048900
P        4.90885000       0.07063000       8.41699000       0.23369200      -0.09182600       0.04864200
104
Lattice="12.943911 0.24864 -0.016578 0.24758 13.078507 -0.10008 -0.023239 -0.133746 16.279084" Properties=species:S:1:pos:R:3:forces:R:3 energy=-565.05706880489 hash=e4724269cb8291177014383e86479694 virial="9.43688046502 -2.29643045408 -1.48755793306 -2.29643045408 17.2412984863 -0.689551531013 -1.48755793306 -0.689551531013 -1.39997563866" config_type=rss_3c pressure=0.0030588429534144515 uploaded="2020-04-10 10:56:53.299000" hash_structure=2f85a93544bd858272d2942ccbbe2898 filename=rss_3c/rss_3c_mbd2.xyz username=gabor stress="0.0010883091278454417 0.0002558611158392305 0.00047359409360352666 0.0002558611158392305 -0.0011802733401516693 0.00024650968446904764 0.00047359409360352666 0.00024650968446904764 0.0012914849473044455" volume=2754.658509512892 n_atoms=104 free_energy=-568.50559371 modified="2020-04-10 10:56:53.299000" formula=P104 miguel_caro=T pbc="T T T"
P       11.56466000      11.71978000       2.43582000      -0.25466800       0.05436200      -0.40451400
P       11.51399000      10.28244000       4.11301000       0.09804800      -0.20563600      -0.14744400
P       11.50866000      11.84246000       5.67230000      -0.29345700      -0.10241200       0.53093200
P       11.32961000      10.55544000       7.56835000       0.25767400       0.26451900      -0.00768100
P       11.36653000      10.43519000       0.54418000       0.33454600       0.20264600      -0.00177600
P        8.41953000      10.30399000       2.34860000       0.27391100      -0.34483700       0.05163100
P        9.47892000       9.35829000       4.07124000      -0.30196400      -0.00782400       0.01210600
P        8.37528000      10.36833000       5.72777000       0.40450500      -0.40355700       0.05819800
P        9.52161000       9.27819000       7.32820000      -0.64967600      -0.39386300      -0.23843100
P        9.55102000       9.18788000       0.76564000      -0.65500600      -0.69520800       0.32598000
P        9.42757000      12.27072000       2.11207000      -0.11815300       0.41757000       0.25699900
P        9.36073000      12.35953000       5.93696000      -0.18712100       0.32881000      -0.23780500
P        8.55582000      12.90350000       3.99024000      -0.45585000       0.47531400       0.08818400
P        1.67220000       1.41810000       2.34905000       0.29422300       0.10655700      -0.53531100
P        1.66806000       2.97743000       3.90906000      -0.10634400       0.20125700       0.15346900
P        1.61706000       1.53883000       5.58569000       0.25698500      -0.04615200       0.40847500
P        1.81424000       2.82386000       7.47870000      -0.35084000      -0.21074100      -0.01015500
P        1.84999000       2.70680000       0.45327000      -0.26030700      -0.25690400       0.01297700
P        4.80419000       2.89448000       2.29303000      -0.39743900       0.40032800      -0.05454000
P        3.70225000       3.90173000       3.95210000       0.30449200       0.00968000      -0.01603800
P        4.76254000       2.95520000       5.67444000      -0.28058800       0.34372900      -0.05840700
P        3.62796000       4.07029000       7.25545000       0.66733800       0.71005400      -0.31450200
P        3.65850000       3.98484000       0.69258000       0.64572100       0.38312500       0.23943000
P        3.81996000       0.90254000       2.08223000       0.18874800      -0.32811400       0.24058100
P        3.75452000       0.98849000       5.90958000       0.11593900      -0.41912800      -0.25870300
P        4.62487000       0.35887000       4.02936000       0.45709400      -0.48129900      -0.08197900
P       11.41600000       1.89460000      13.69041000      -0.11044900       0.37728600       0.42605300
P        9.95914000       2.00931000      12.04039000      -0.44822800      -0.09562300       0.10723800
P       11.45166000       2.02195000      10.44108000      -0.20879400       0.34855700      -0.54439100
P       10.03836000       2.21202000       8.63452000       0.44469900      -0.24436300      -0.05114400
P       10.04498000       2.01667000      15.52042000       0.21278300      -0.23311200       0.18369600
P        9.97948000       5.06385000      13.83963000      -0.33960300      -0.37192000       0.02921300
P        9.02188000       4.06409000      12.10844000      -0.16517200       0.01828800       0.03925600
P        9.95475000       5.17064000      10.43283000      -0.32060800      -0.36046700      -0.01101400
P        8.74879000       4.00422000       8.89693000      -0.12652600       0.71106000       0.32411900
P        8.76321000       3.83317000      15.32729000      -0.04737600       0.72225900      -0.32730800
P       11.95476000       4.03374000      14.03792000       0.31218100       0.16270300      -0.15777600
P       11.94706000       4.18053000      10.21152000       0.35928800       0.18542000       0.09861100
P       12.64760000       4.88573000      12.15138000       0.42090500       0.34826700       0.04241400
P        1.70872000      11.10480000      13.86087000       0.20728600      -0.34699000       0.55218500
P        3.20044000      11.11226000      12.26045000       0.44187500       0.08049600      -0.09883200
P        1.74096000      11.23315000      10.61258000       0.10834100      -0.38190600      -0.42691800
P        3.10908000      11.10916000       8.78138000      -0.20872100       0.23326700      -0.18306500
P        3.12012000      10.91159000      15.66957000      -0.44223900       0.25922900       0.04076700
P        3.19611000       7.95153000      13.87593000       0.32195400       0.36129200      -0.00454400
P        4.12529000       9.05142000      12.19393000       0.19243900      -0.00632900      -0.04793200
P        3.16668000       8.05938000      10.45833000       0.34898100       0.37473500      -0.01701300
P        4.39014000       9.29231000       8.97700000       0.04073500      -0.72094500       0.32502500
P        4.40873000       9.11986000      15.40567000       0.12270500      -0.71564400      -0.32167100
P        1.20749000       8.94784000      14.09532000      -0.37126500      -0.17933600      -0.10193900
P        1.19460000       9.09534000      10.26306000      -0.31320500      -0.15441400       0.16252800
P        0.50942000       8.24536000      12.15346000      -0.42684200      -0.35270400      -0.04593100
P       10.84316000       2.22637000       2.48414000      -0.17516800       0.22139500       0.18056200
P       11.28758000       3.80122000       3.98025000       0.41594800      -0.31173400       0.09949700
P       10.81080000       2.29253000       5.54161000      -0.12436100       0.31837800      -0.43690100