2
Lattice="20.0 0.0 0.0 0.0 20.0 0.0 0.0 0.0 20.0" Properties=species:S:1:pos:R:3:forces:R:3 energy=-6.50769959 cutoff=-1.0 nneightol=1.2 pbc="T T T"
P       10.80000000      10.00000000      10.00000000      21.36937567       0.00000000      -0.00000000
P        9.20000000      10.00000000      10.00000000     -21.36937567      -0.00000000       0.00000000
2
Lattice="20.0 0.0 0.0 0.0 20.0 0.0 0.0 0.0 20.0" Properties=species:S:1:pos:R:3:forces:R:3 energy=-8.09821012 cutoff=-1.0 nneightol=1.2 pbc="T T T"
P       10.85000000      10.00000000      10.00000000      11.14611120      -0.00000000      -0.00000000
P        9.15000000      10.00000000      10.00000000     -11.14611120       0.00000000       0.00000000
2
Lattice="20.0 0.0 0.0 0.0 20.0 0.0 0.0 0.0 20.0" Properties=species:S:1:pos:R:3:forces:R:3 energy=-8.8517662 cutoff=-1.0 nneightol=1.2 pbc="T T T"
P       10.90000000      10.00000000      10.00000000       4.40041363       0.00000000      -0.00000000
P        9.10000000      10.00000000      10.00000000      -4.40041363       0.00000000       0.00000000
2
Lattice="20.0 0.0 0.0 0.0 20.0 0.0 0.0 0.0 20.0" Properties=species:S:1:pos:R:3:forces:R:3 energy=-9.05640881 cutoff=-1.0 nneightol=1.2 pbc="T T T"
P       10.95000000      10.00000000      10.00000000       0.01958046       0.00000000       0.00000000
P        9.05000000      10.00000000      10.00000000      -0.01958046      -0.00000000      -0.00000000
2
Lattice="20.0 0.0 0.0 0.0 20.0 0.0 0.0 0.0 20.0" Properties=species:S:1:pos:R:3:forces:R:3 energy=-8.90907537 cutoff=-1.0 nneightol=1.2 pbc="T T T"
P       11.00000000      10.00000000      10.00000000      -2.74304883      -0.00000000       0.00000000
P        9.00000000      10.00000000      10.00000000       2.74304883       0.00000000      -0.00000000
2
Lattice="20.0 0.0 0.0 0.0 20.0 0.0 0.0 0.0 20.0" Properties=species:S:1:pos:R:3:forces:R:3 energy=-8.54395269 cutoff=-1.0 nneightol=1.2 pbc="T T T"
P       11.05000000      10.00000000      10.00000000      -4.40913591       0.00000000      -0.00000000
P        8.95000000      10.00000000      10.00000000       4.40913591      -0.00000000       0.00000000
2
Lattice="20.0 0.0 0.0 0.0 20.0 0.0 0.0 0.0 20.0" Properties=species:S:1:pos:R:3:forces:R:3 energy=-8.05161854 cutoff=-1.0 nneightol=1.2 pbc="T T T"
P       11.10000000      10.00000000      10.00000000      -5.33640037       0.00000000      -0.00000000
P        8.90000000      10.00000000      10.00000000       5.33640037      -0.00000000       0.00000000
2
Lattice="20.0 0.0 0.0 0.0 20.0 0.0 0.0 0.0 20.0" Properties=species:S:1:pos:R:3:forces:R:3 energy=-7.4929198 cutoff=-1.0 nneightol=1.2 pbc="T T T"
P       11.15000000      10.00000000      10.00000000      -5.76933349       0.00000000      -0.00000000
P        8.85000000      10.00000000      10.00000000       5.76933349      -0.00000000       0.00000000
2
Lattice="20.0 0.0 0.0 0.0 20.0 0.0 0.0 0.0 20.0" Properties=species:S:1:pos:R:3:forces:R:3 energy=-6.90838682 cutoff=-1.0 nneightol=1.2 pbc="T T T"
P       11.20000000      10.00000000      10.00000000      -5.87615798      -0.00000000       0.00000000
P        8.80000000      10.00000000      10.00000000       5.87615798       0.00000000      -0.00000000
2
Lattice="20.0 0.0 0.0 0.0 20.0 0.0 0.0 0.0 20.0" Properties=species:S:1:pos:R:3:forces:R:3 energy=-6.32454228 cutoff=-1.0 nneightol=1.2 pbc="T T T"
P       11.25000000      10.00000000      10.00000000      -5.77225537       0.00000000       0.00000000
P        8.75000000      10.00000000      10.00000000       5.77225537      -0.00000000      -0.00000000
2
Lattice="20.0 0.0 0.0 0.0 20.0 0.0 0.0 0.0 20.0" Properties=species:S:1:pos:R:3:forces:R:3 energy=-5.75822392 cutoff=-1.0 nneightol=1.2 pbc="T T T"
P       11.30000000      10.00000000      10.00000000      -5.53665152      -0.00000000      -0.00000000
P        8.70000000      10.00000000      10.00000000       5.53665152       0.00000000       0.00000000
2
Lattice="20.0 0.0 0.0 0.0 20.0 0.0 0.0 0.0 20.0" Properties=species:S:1:pos:R:3:forces:R:3 energy=-5.2196797 cutoff=-1.0 nneightol=1.2 pbc="T T T"
P       11.35000000      10.00000000      10.00000000      -5.22351669       0.00000000       0.00000000
P        8.65000000      10.00000000      10.00000000       5.22351669      -0.00000000      -0.00000000
2
Lattice="20.0 0.0 0.0 0.0 20.0 0.0 0.0 0.0 20.0" Properties=species:S:1:pos:R:3:forces:R:3 energy=-4.71474366 cutoff=-1.0 nneightol=1.2 pbc="T T T"
P       11.40000000      10.00000000      10.00000000      -4.86934299       0.00000000       0.00000000
P        8.60000000      10.00000000      10.00000000       4.86934299       0.00000000      -0.00000000
2
Lattice="20.0 0.0 0.0 0.0 20.0 0.0 0.0 0.0 20.0" Properties=species:S:1:pos:R:3:forces:R:3 energy=-4.24629717 cutoff=-1.0 nneightol=1.2 pbc="T T T"
P       11.45000000      10.00000000      10.00000000      -4.49777499      -0.00000000      -0.00000000
P        8.55000000      10.00000000      10.00000000       4.49777499       0.00000000       0.00000000
2
Lattice="20.0 0.0 0.0 0.0 20.0 0.0 0.0 0.0 20.0" Properties=species:S:1:pos:R:3:forces:R:3 energy=-3.8152092 cutoff=-1.0 nneightol=1.2 pbc="T T T"
P       11.50000000      10.00000000      10.00000000      -4.12458305      -0.00000000      -0.00000000
P        8.50000000      10.00000000      10.00000000       4.12458305       0.00000000       0.00000000
4
Lattice="20.0 0.0 0.0 0.0 20.0 0.0 0.0 0.0 20.0" Properties=species:S:1:pos:R:3:forces:R:3 energy=-16.75202848 cutoff=-1.0 nneightol=1.2 pbc="T T T"
P       10.95000000      10.00000000       9.32824860      11.69583552       0.00000000      -8.27011405
P        9.05000000      10.00000000       9.32824860     -11.69583552       0.00000000      -8.27011405
P       10.00000000      10.95000000      10.67175140      -0.00000000      11.69583552       8.27011405
P       10.00000000       9.05000000      10.67175140       0.00000000     -11.69583552       8.27011405
4
Lattice="20.0 0.0 0.0 0.0 20.0 0.0 0.0 0.0 20.0" Properties=species:S:1:pos:R:3:forces:R:3 energy=-20.69437813 cutoff=-1.0 nneightol=1.2 pbc="T T T"
P       11.05000000      10.00000000       9.25753780       2.57325233       0.00000000      -1.81984791
P        8.95000000      10.00000000       9.25753780      -2.57325233       0.00000000      -1.81984791
P       10.00000000      11.05000000      10.74246220      -0.00000000       2.57325233       1.81984791
P       10.00000000       8.95000000      10.74246220       0.00000000      -2.57325233       1.81984791
4
Lattice="20.0 0.0 0.0 0.0 20.0 0.0 0.0 0.0 20.0" Properties=species:S:1:pos:R:3:forces:R:3 energy=-20.79612543 cutoff=-1.0 nneightol=1.2 pbc="T T T"
P       11.15000000      10.00000000       9.18682720      -1.67624935       0.00000000       1.18527603
P        8.85000000      10.00000000       9.18682720       1.67624935       0.00000000       1.18527603
P       10.00000000      11.15000000      10.81317280      -0.00000000      -1.67624935      -1.18527603
P       10.00000000       8.85000000      10.81317280       0.00000000       1.67624935      -1.18527603
4
Lattice="20.0 0.0 0.0 0.0 20.0 0.0 0.0 0.0 20.0" Properties=species:S:1:pos:R:3:forces:R:3 energy=-19.16037893 cutoff=-1.0 nneightol=1.2 pbc="T T T"
P       11.25000000      10.00000000       9.11611660      -3.49409551       0.00000000       2.47045959
P        8.75000000      10.00000000       9.11611660       3.49409551      -0.00000000       2.47045959
P       10.00000000      11.25000000      10.88388340       0.00000000      -3.49409551      -2.47045959
P       10.00000000       8.75000000      10.88388340      -0.00000000       3.49409551      -2.47045959
4
Lattice="20.0 0.0 0.0 0.0 20.0 0.0 0.0 0.0 20.0" Properties=species:S:1:pos:R:3:forces:R:3 energy=-16.84309842 cutoff=-1.0 nneightol=1.2 pbc="T T T"
P       11.35000000      10.00000000       9.04540580      -4.08668679       0.00000000       2.88969865
P        8.65000000      10.00000000       9.04540580       4.08668679      -0.00000000       2.88969865
P       10.00000000      11.35000000      10.95459420      -0.00000000      -4.08668679      -2.88969865
P       10.00000000       8.65000000      10.95459420       0.00000000       4.08668679      -2.88969865
4
Lattice="20.0 0.0 0.0 0.0 20.0 0.0 0.0 0.0 20.0" Properties=species:S:1:pos:R:3:forces:R:3 energy=-14.37649505 cutoff=-1.0 nneightol=1.2 pbc="T T T"
P       11.45000000      10.00000000       8.97469520      -4.06184984      -0.00000000       2.87199202
P        8.55000000      10.00000000       8.97469520       4.06184984      -0.00000000       2.87199202
P       10.00000000      11.45000000      11.02530480       0.00000000      -4.06184984      -2.87199202
P       10.00000000       8.55000000      11.02530480       0.00000000       4.06184984      -2.87199202
4
Lattice="20.0 0.0 0.0 0.0 20.0 0.0 0.0 0.0 20.0" Properties=species:S:1:pos:R:3:forces:R:3 energy=-12.02697679 cutoff=-1.0 nneightol=1.2 pbc="T T T"
P       11.55000000      10.00000000       8.90398440      -3.73551744      -0.00000000       2.64149103
P        8.45000000      10.00000000       8.90398440       3.73551744      -0.00000000       2.64149103
P       10.00000000      11.55000000      11.09601560       0.00000000      -3.73551744      -2.64149103
P       10.00000000       8.45000000      11.09601560       0.00000000       3.73551744      -2.64149103
4
Lattice="20.0 0.0 0.0 0.0 20.0 0.0 0.0 0.0 20.0" Properties=species:S:1:pos:R:3:forces:R:3 energy=-9.916754 cutoff=-1.0 nneightol=1.2 pbc="T T T"
P       11.65000000      10.00000000       8.83327380      -3.28639195       0.00000000       2.32374724
P        8.35000000      10.00000000       8.83327380       3.28639195       0.00000000       2.32374724
P       10.00000000      11.65000000      11.16672620       0.00000000      -3.28639195      -2.32374724
P       10.00000000       8.35000000      11.16672620      -0.00000000       3.28639195      -2.32374724
4
Lattice="20.0 0.0 0.0 0.0 20.0 0.0 0.0 0.0 20.0" Properties=species:S:1:pos:R:3:forces:R:3 energy=-8.08838494 cutoff=-1.0 nneightol=1.2 pbc="T T T"
P       11.75000000      10.00000000       8.76256320      -2.80795910       0.00000000       1.98569618
P        8.25000000      10.00000000       8.76256320       2.80795910       0.00000000       1.98569618
P       10.00000000      11.75000000      11.23743680      -0.00000000      -2.80795910      -1.98569618
P       10.00000000       8.25000000      11.23743680      -0.00000000       2.80795910      -1.98569618
4
Lattice="20.0 0.0 0.0 0.0 20.0 0.0 0.0 0.0 20.0" Properties=species:S:1:pos:R:3:forces:R:3 energy=-2.07505244 cutoff=-1.0 nneightol=1.2 pbc="T T T"
P       11.10000000      10.00000000       9.72218260      30.82435744       0.00000000     -12.43426088
P        8.90000000      10.00000000       9.72218260     -30.82435744       0.00000000     -12.43426088
P       10.00000000      11.10000000      10.27781740       0.00000000      30.82435744      12.43426088
P       10.00000000       8.90000000      10.27781740       0.00000000     -30.82435744      12.43426088
4
Lattice="20.0 0.0 0.0 0.0 20.0 0.0 0.0 0.0 20.0" Properties=species:S:1:pos:R:3:forces:R:3 energy=-11.53096112 cutoff=-1.0 nneightol=1.2 pbc="T T T"
P       11.10000000      10.00000000       9.57218260      13.78275063      -0.00000000     -15.50878374
P        8.90000000      10.00000000       9.57218260     -13.78275063       0.00000000     -15.50878374
P       10.00000000      11.10000000      10.42781740      -0.00000000      13.78275063      15.50878374
P       10.00000000       8.90000000      10.42781740       0.00000000     -13.78275063      15.50878374
4
Lattice="20.0 0.0 0.0 0.0 20.0 0.0 0.0 0.0 20.0" Properties=species:S:1:pos:R:3:forces:R:3 energy=-18.40218818 cutoff=-1.0 nneightol=1.2 pbc="T T T"
P       11.10000000      10.00000000       9.42218260       4.96125521       0.00000000      -7.48111364
P        8.90000000      10.00000000       9.42218260      -4.96125521       0.00000000      -7.48111364
P       10.00000000      11.10000000      10.57781740      -0.00000000       4.96125521       7.48111364
P       10.00000000       8.90000000      10.57781740      -0.00000000      -4.96125521       7.48111364
4
Lattice="20.0 0.0 0.0 0.0 20.0 0.0 0.0 0.0 20.0" Properties=species:S:1:pos:R:3:forces:R:3 energy=-20.92326984 cutoff=-1.0 nneightol=1.2 pbc="T T T"
P       11.10000000      10.00000000       9.27218260       0.75597348       0.00000000      -1.40238943
P        8.90000000      10.00000000       9.27218260      -0.75597348       0.00000000      -1.40238943
P       10.00000000      11.10000000      10.72781740       0.00000000       0.75597348       1.40238943
P       10.00000000       8.90000000      10.72781740       0.00000000      -0.75597348       1.40238943
4
Lattice="20.0 0.0 0.0 0.0 20.0 0.0 0.0 0.0 20.0" Properties=species:S:1:pos:R:3:forces:R:3 energy=-20.6556337 cutoff=-1.0 nneightol=1.2 pbc="T T T"
P       11.10000000      10.00000000       9.12218260      -0.81144483       0.00000000       1.86693721
P        8.90000000      10.00000000       9.12218260       0.81144483       0.00000000       1.86693721
P       10.00000000      11.10000000      10.87781740       0.00000000      -0.81144483      -1.86693721
P       10.00000000       8.90000000      10.87781740       0.00000000       0.81144483      -1.86693721
4
Lattice="20.0 0.0 0.0 0.0 20.0 0.0 0.0 0.0 20.0" Properties=species:S:1:pos:R:3:forces:R:3 energy=-19.09725799 cutoff=-1.0 nneightol=1.2 pbc="T T T"
P       11.10000000      10.00000000       8.97218260      -1.26562246       0.00000000       3.06182844
P        8.90000000      10.00000000       8.97218260       1.26562246       0.00000000       3.06182844
P       10.00000000      11.10000000      11.02781740      -0.00000000      -1.26562246      -3.06182844
P       10.00000000       8.90000000      11.02781740      -0.00000000       1.26562246      -3.06182844
4
Lattice="20.0 0.0 0.0 0.0 20.0 0.0 0.0 0.0 20.0" Properties=species:S:1:pos:R:3:forces:R:3 energy=-17.21191806 cutoff=-1.0 nneightol=1.2 pbc="T T T"
P       11.10000000      10.00000000       8.82218260      -1.38964100      -0.00000000       3.08947432
P        8.90000000      10.00000000       8.82218260       1.38964100      -0.00000000       3.08947432
P       10.00000000      11.10000000      11.17781740      -0.00000000      -1.38964100      -3.08947432
P       10.00000000       8.90000000      11.17781740      -0.00000000       1.38964100      -3.08947432
4
Lattice="20.0 0.0 0.0 0.0 20.0 0.0 0.0 0.0 20.0" Properties=species:S:1:pos:R:3:forces:R:3 energy=-15.81801301 cutoff=-1.0 nneightol=1.2 pbc="T T T"
P       11.10000000      10.00000000       8.67218260      -3.34341405       0.00000000       0.68964195
P        8.90000000      10.00000000       8.67218260       3.34341405      -0.00000000       0.68964195
P       10.00000000      11.10000000      11.32781740      -0.00000000      -3.34341405      -0.68964195
P       10.00000000       8.90000000      11.32781740      -0.00000000       3.34341405      -0.68964195
4
Lattice="20.0 0.0 0.0 0.0 20.0 0.0 0.0 0.0 20.0" Properties=species:S:1:pos:R:3:forces:R:3 energy=-15.93307339 cutoff=-1.0 nneightol=1.2 pbc="T T T"
P       11.10000000      10.00000000       8.52218260      -4.87173504       0.00000000      -0.27252525
P        8.90000000      10.00000000       8.52218260       4.87173504       0.00000000      -0.27252525
P       10.00000000      11.10000000      11.47781740       0.00000000      -4.87173504       0.27252525
P       10.00000000       8.90000000      11.47781740       0.00000000       4.87173504       0.27252525
4
Lattice="20.0 0.0 0.0 0.0 20.0 0.0 0.0 0.0 20.0" Properties=species:S:1:pos:R:3:forces:R:3 energy=-16.05193651 cutoff=-1.0 nneightol=1.2 pbc="T T T"
P       11.10000000      10.00000000       8.37218260      -5.11053109      -0.00000000      -0.13865529
P        8.90000000      10.00000000       8.37218260       5.11053109      -0.00000000      -0.13865529
P       10.00000000      11.10000000      11.62781740      -0.00000000      -5.11053109       0.13865529
P       10.00000000       8.90000000      11.62781740       0.00000000       5.11053109       0.13865529
4
Lattice="20.0 0.0 0.0 0.0 20.0 0.0 0.0 0.0 20.0" Properties=species:S:1:pos:R:3:forces:R:3 energy=-16.11107523 cutoff=-1.0 nneightol=1.2 pbc="T T T"
P       11.10000000      10.00000000       8.22218260      -5.23694722       0.00000000      -0.06528202
P        8.90000000      10.00000000       8.22218260       5.23694722       0.00000000      -0.06528202
P       10.00000000      11.10000000      11.77781740       0.00000000      -5.23694722       0.06528202
P       10.00000000       8.90000000      11.77781740      -0.00000000       5.23694722       0.06528202
248
Lattice="19.207643 0.0 0.0 0.0 19.207643 0.0 0.0 0.0 19.207643" Properties=species:S:1:pos:R:3:forces:R:3 energy=-1310.85738039 hash=0a52d05be110f62b0b8ba1dd06f580af virial="0.494352900131 -7.65209813893 7.72109612803 -7.65209813893 14.1363610828 -13.2346104406 7.72109612803 -13.2346104406 19.6957855958" config_type=liq_12_03_01_liqP4 pressure=0.0016146784108647724 uploaded="2020-04-10 10:56:38.097000" hash_structure=7256de5227695c2198da4cf346617eea filename=liq_12_03_01_liqP4/liq_12_03_01_liqP4_mbd2.xyz username=gabor stress="-6.97613475e-05 0.00107983725236 -0.0010895740066 0.00107983725236 -0.00199487369776 0.0018676218097 -0.0010895740066 0.0018676218097 -0.00277940018734" volume=7086.343911736328 n_atoms=248 free_energy=-1310.85738039 modified="2020-04-10 10:56:38.097000" formula=P248 miguel_caro=T pbc="T T T"
P       19.07786000       1.83802000       2.14603000       0.92879300       0.41491500      -0.15393500
P        1.84009000       2.77358000       1.36927000      -0.88013100      -1.02367600       0.99752300
P        1.74336000       0.66243000       2.09671000      -0.19137700      -0.54106500      -0.96977400
P        1.56765000       2.19952000       3.55407000      -0.24477300       0.78903700      -0.27882600
P       17.28258000      18.89348000       5.16478000      -0.22962300       0.61210400       0.75024500
P       15.20283000      18.88955000       4.58162000      -0.69820900       0.36445400      -1.79305100
P       16.13352000       1.63244000       5.24472000      -0.02543400      -0.54441700      -0.64895300
P       15.56991000       0.04130000       6.60745000       0.93581300      -0.26187200       1.58327500
P        2.46893000       6.49209000       9.63336000      -0.59995800       0.77732200       0.38055100
P        0.67446000       6.85221000      11.06187000       1.01055300       1.05002400       0.47450500
P        1.57443000       4.92107000      10.78613000       1.07297800      -2.03107800       1.92831100
P        0.45238000       5.76483000       9.27418000      -1.63219400      -0.21091700      -2.96249400
P        2.46336000      18.93916000      13.69707000      -0.51052600       1.02606200       0.14899100
P        0.72883000       0.26124000      12.17388000       1.47864500      -1.42082200       1.44589800
P        1.05738000      17.37769000      13.20124000      -0.42868000       0.71008200      -0.94448100
P        2.49231000      18.17408000      11.69484000      -0.24779400      -0.39934100      -0.55580300
P        1.38800000       9.37700000       6.05427000       0.22192700      -0.23366100      -0.87180600
P        2.10276000       9.39052000       3.85828000      -1.64636300       0.04761500       1.22374200
P        1.78441000      11.24473000       4.98965000      -0.71931800      -0.02332500      -0.10066300
P       19.02665000      10.08705000       4.61127000       2.85100100      -0.21173500      -0.32801800
P       17.12988000       8.17216000       9.35508000      -1.13724600      -0.20468900      -0.61629400
P       16.12170000       6.39269000       8.45186000       0.09783000       0.55454600      -0.03229100
P       15.74389000       8.45077000       7.56637000       0.39667500      -1.11574000       0.77525900
P       14.90429000       7.89065000       9.53083000       0.53088700      -0.16551600       0.02737900
P        3.95699000       6.81330000      12.71951000      -1.08456800       0.52447900       0.35705100
P        5.58345000       8.01383000      12.12671000       1.79528800       0.84328900       0.56233500
P        4.26220000       8.76199000      13.83772000       0.29887200      -0.63465700      -2.07909500
P        3.67527000       8.78640000      11.58075000      -0.66373500      -0.47196000       1.30224900
P        1.01983000       8.93949000      14.88483000      -1.85658600      -0.43058000      -0.48293800
P        2.45900000       8.55236000      16.32550000       0.74397000      -1.38865500       1.26030300
P        1.53976000       6.79518000      15.20026000       0.23085100       0.94138700       0.64182200
P        0.39531000       7.81703000      16.83387000       0.55033400       0.67428800      -1.19515400
P        6.11089000      12.48537000       4.19445000       0.87726800      -2.39852500       1.57324200
P        5.05776000      13.62600000       2.84621000      -0.56732700       1.96357800      -0.81232300
P        6.35435000      14.57964000       4.48239000      -0.79544100       0.04710200      -0.51794200
P        4.35606000      13.64102000       4.95309000       0.70775100      -0.34918500      -0.30686200
P        9.90000000      12.31790000       7.53923000      -0.80544100       0.81097600       0.09906700
P        8.94634000      14.24892000       6.79370000      -0.00369400      -1.40175400       1.15037200
P        8.91260000      13.71602000       9.04242000      -0.69261200      -0.95748100      -2.54031700
P        7.66022000      12.40318000       7.32798000       1.63150800       1.56266600       1.21912900
P        2.69679000      14.27808000      15.94839000      -1.19786700      -0.38153000      -0.34503800
P        2.86109000      12.91954000      14.26064000       1.47839700      -0.04536100      -1.41109700
P        1.32900000      14.50106000      14.14683000       0.31869100      -0.49096700       0.49608100
P        1.11737000      12.66089000      15.38832000      -0.58976200       0.78912000       1.26156300
P        0.19580000      11.36124000      18.52324000      -0.75053900      -0.19061500      -1.14472100
P        0.73462000      13.00233000       0.61568000      -0.25469400       0.02750500       0.48485200
P        1.50957000      10.97325000       0.94404000       0.72388600      -0.22176100       0.73661700
P       18.60458000      11.35195000       1.36954000       0.09959300       0.40952500      -0.07818000
P        1.19715000      17.04527000       4.98874000       0.96909800      -0.15704600       0.63925000
P       18.42777000      16.21705000       5.00572000      -0.70759400      -0.93549900       0.87623800
P        0.94096000      14.88444000       4.38589000      -0.17567500       0.59055100       0.53271900
P        0.21693000      16.52856000       3.16165000      -0.09573300       0.36489200      -1.90923700
P        1.01236000       9.92171000       9.41814000      -0.45300100      -1.79220600       0.09641600
P        2.74727000      11.18371000       9.52578000       0.15091400       0.71340400       0.64282000
P        0.64855000      11.77436000      10.43653000       1.54503500       0.50664700       0.08642300
P        1.06560000      11.70892000       8.28212000      -0.47774100       1.13293500      -1.20769700
P        3.80117000      14.58010000       9.21055000       1.45397900       0.09578600       2.07306400
P        2.24618000      16.10580000       9.15115000       0.11389300      -0.53158000      -1.22882800
P        3.10839000      14.84849000       7.29066000      -1.45506900       1.71912900      -0.67894900
P        4.19877000      16.60672000       8.25185000      -0.34223800      -1.21731200       0.12567100
P       18.95602000      17.58850000      16.76564000       2.12061300      -0.15557300      -0.50829300
P        0.17738000      16.52856000      18.76414000      -1.35079800       1.38348300      -1.06694300
P       17.30463000      17.17667000      17.94221000      -0.75632100      -1.02843800       1.42024600
P       18.68312000      18.71819000      18.61599000       0.53827900      -0.54866700       0.41156500
P        3.75807000       6.26861000      18.83772000      -0.89550900       0.23450000       0.72723200
P        2.61018000       7.54484000       1.11055000       0.34316200       0.37599300      -0.49208600
P        3.24836000       5.54686000       1.67318000       0.13659300      -0.07041700      -0.15535900
P        1.62066000       5.81509000       0.21568000       0.37196200       0.05747700      -0.36544100
P        5.73652000       1.66169000       1.67546000      -0.15942400       1.07655800       0.89848800
P        6.35060000       3.33481000       0.45547000      -0.05900800       0.50761900      -1.96377700
P        7.57211000       2.81834000       2.13116000       1.65287000      -1.45176300      -0.32109400
P        5.87254000       3.90499000       2.45391000      -2.67510400       0.20660500       0.76100200
P        5.42576000       3.49020000      10.25292000       0.70089600       1.02195000       0.36105100
P        7.27570000       2.17394000      10.41615000      -1.70269200       0.20015400      -0.81498500
P        5.46932000       1.76824000       8.99459000       0.74431000      -0.90486900       0.33099000
P        5.29405000       1.57762000      11.22531000      -0.05978300      -0.63493200      -0.14680900
P        3.35427000       1.64202000      17.24673000      -0.20067000       1.54008400      -0.35096300
P        3.59075000       3.92502000      16.73871000      -0.87352900      -0.92295700       0.33997500
P        2.51259000       2.49734000      15.35809000       0.49406300       0.33168100       0.41653300
P        4.70537000       2.43007000      15.66162000      -0.22799900      -1.01364500       0.31036500
P        6.00329000       7.31035000       2.68615000       0.27519700       0.48089800       0.39726600
P        5.65367000       9.45857000       3.28249000       0.18235000      -0.60082700       0.12357100
P        5.80178000       8.87166000       1.18198000      -0.11003400       0.08603600      -0.68999800
P        7.62584000       8.86331000       2.39779000      -0.70543500      -0.26972400       0.53983900
P        4.12384000       5.69345000       5.02247000      -0.41196500      -0.54743300      -0.03000100
P        2.54302000       4.19741000       5.60064000      -0.37868800       0.51328300      -0.37249000
P        3.89429000       5.02163000       7.08019000       0.51835700      -0.25733300       0.39636500
P        4.63139000       3.59978000       5.52944000       0.17743900      -0.02667500       0.19781100
P        7.16902000       4.87340000      14.62399000       0.11947300      -0.08700200      -0.72977900
P        7.99426000       2.85086000      14.67026000      -0.86089500      -0.25461800       0.70671000
P        8.00457000       3.76558000      12.78294000       0.25505100       1.90178400      -1.06547900
P        6.05554000       3.22750000      13.59782000       0.74061300       0.15528600       0.21905300
P        5.93879000       7.92982000      16.15797000       0.71502200       0.22413400       0.14805700
P        7.04761000       9.53081000      17.26331000       0.39670100      -0.93118900      -1.50626200
P        7.50927000       9.02606000      14.99429000      -0.00617100      -0.90934000       2.49720600
P        8.04625000       7.56964000      16.84954000      -0.65441900       1.12304600      -1.26054600
P        4.94900000       8.97033000       8.68462000       0.07353300       2.84798300       2.69859100
P        4.30612000       8.13572000       6.96665000      -1.64940500      -1.81714400      -2.67717400
P        6.42211000       8.21559000       7.41553000       1.15809400      -0.26866500      -1.43416800
P        5.27188000      10.02001000       6.64058000       0.51386500      -0.09600200       1.30342300
P       12.80679000      14.04805000      13.05353000       0.36424300      -1.45564500      -1.34514100
P       10.75922000      14.57376000      12.07256000       0.58454600      -1.16855300      -0.48836700
P       12.40551000      15.95804000      12.13510000       0.65325800       1.47230000      -0.38436600
P       11.41981000      15.30227000      13.95082000      -0.98571400       1.83492500       1.99328400
P        8.03025000      13.40002000      12.30374000      -1.81519900      -1.08618400       0.02539000
P        6.64961000      11.78925000      13.22450000       0.70136500       0.39053500      -1.21156600
P        7.13134000      11.85532000      10.93656000       0.67973700      -0.80274900       0.93380200
P        5.78934000      13.24394000      11.81660000       0.04129900       0.97531400       0.55945900
P        4.09323000      13.02198000      18.91425000       1.21285800      -0.68650600      -0.88307700
P        5.98284000      11.70095000      18.94398000      -0.02091300       1.12898600       0.44700700
P        5.46713000      12.80773000      17.08314000       0.11077000       0.56408600       0.57670500
P        4.32896000      11.12687000      17.74827000      -1.52438700      -0.71020100      -0.13522000
P        5.05559000      16.96031000       4.90175000      -0.85297500       1.67037700      -1.67684500
P        5.77822000      17.89196000       2.94540000       0.58334400      -0.27200800       0.52799500
P        4.94873000      19.19351000       4.50598000      -0.33625900      -0.31998500      -0.24300700
P        3.61741000      17.96637000       3.18682000       0.77305500      -0.63180000       1.44471600
P        0.99805000       0.25706000       8.63286000       0.27648100       0.41068000      -0.39688400