6
Lattice="3.1827 0.0 0.0 0.0 3.87492 0.0 -0.3630056808511777 -1.9374582158750104 3.653358318247499" Properties=species:S:1:pos:R:3:initial_magmoms:R:1:castep_labels:S:1 pbc="T T T"
Si       2.02065198      -0.77597329       2.33784609       0.00000000 NULL
Si       0.79904234       1.16148621       1.31551222       0.00000000 NULL
O        0.96849749       2.92572386       0.79598129       0.00000000 NULL
O        1.85119683       0.98826487       2.85737703       0.00000000 NULL
O        2.56614288       1.72217269       1.08733150       0.00000000 NULL
O        0.25355144      -0.21528698       2.56602682       0.00000000 NULL
12
Lattice="3.10205 0.0 0.0 0.0 5.52369 0.0 0.0 0.0 5.52369" Properties=species:S:1:pos:R:3:initial_magmoms:R:1:castep_labels:S:1 pbc="T T T"
Si       1.81443527       1.11614718       3.41407790       0.00000000 NULL
Si       1.81443527       4.40754282       2.10961210       0.00000000 NULL
Si       1.81443527       3.41407790       4.40754282       0.00000000 NULL
Si       1.81443527       2.10961210       1.11614718       0.00000000 NULL
O        0.07103601       1.71982740       3.72077305       0.00000000 NULL
O        0.07103601       3.80386260       1.80291695       0.00000000 NULL
O        0.07103601       3.72077305       3.80386260       0.00000000 NULL
O        0.07103601       1.80291695       1.71982740       0.00000000 NULL
O        1.03287005       0.04050798       1.49407308       0.00000000 NULL
O        1.03287005       5.48318202       4.02961692       0.00000000 NULL
O        1.03287005       1.49407308       5.48318202       0.00000000 NULL
O        1.03287005       4.02961692       0.04050798       0.00000000 NULL
18
Lattice="5.516 0.0 0.0 -1.6209952022055774 5.272440663907609 0.0 -1.6209952022055774 -2.1942465962936426 4.794153984706818" Properties=species:S:1:pos:R:3:initial_magmoms:R:1:castep_labels:S:1 pbc="T T T"
Si       0.27028785       2.58068571       3.84490095       0.00000000 NULL
Si       2.38730547       3.07297186       2.52465327       0.00000000 NULL
Si       2.23572354       0.97013987       3.94672351       0.00000000 NULL
Si      -0.47807479       2.21257538       1.20083106       0.00000000 NULL
Si       2.25537153       1.01147395       0.67547041       0.00000000 NULL
Si       0.30402283      -0.40668850       2.51161604       0.00000000 NULL
O       -1.31558460      -1.50026633       3.87910196       0.00000000 NULL
O       -1.04740915       4.23403106       0.07006416       0.00000000 NULL
O        4.35488085      -0.03746343       0.25020642       0.00000000 NULL
O        1.13242254       2.63876295       1.81077929       0.00000000 NULL
O        2.18946149       0.87331721       2.44293835       0.00000000 NULL
O        0.19133550       1.24356007       3.15298611       0.00000000 NULL
O        4.05719764       0.13372514       2.69773613       0.00000000 NULL
O       -1.06447427       0.82271782       4.68471400       0.00000000 NULL
O        1.09920931       4.58256749       1.24431883       0.00000000 NULL
O        2.69456852       3.14776314       0.15747310       0.00000000 NULL
O        2.21691655      -1.31367810       3.24860599       0.00000000 NULL
O       -1.90716115       2.23269291       2.92775149       0.00000000 NULL
18
Lattice="2.92453 0.0 0.0 0.1536624714357679 6.08872130093604 0.0 0.6664599373636632 0.9075831799437654 7.639049420672207" Properties=species:S:1:pos:R:3:initial_magmoms:R:1:castep_labels:S:1 pbc="T T T"
Si       2.58258073       2.93505712       3.02066348       0.00000000 NULL
Si       0.39336109       0.47986955       2.84716080       0.00000000 NULL
Si       2.70823996       5.40089683       7.18214489       0.00000000 NULL
Si       0.80064223       1.87350846       0.80488768       0.00000000 NULL
Si       1.99989545       6.19220679       4.89460480       0.00000000 NULL
Si       1.03314797       3.82167742       4.93207587       0.00000000 NULL
O        3.19782526       5.38380177       1.74134652       0.00000000 NULL
O        3.69006470       6.52417610       7.35552534       0.00000000 NULL
O        1.99114164       3.92815760       0.94271294       0.00000000 NULL
O        1.92555381       4.29565388       2.93724277       0.00000000 NULL
O        0.72950736       0.97825062       5.42845060       0.00000000 NULL
O        2.29139211       4.84531080       5.76897498       0.00000000 NULL
O        1.48806835       0.47066376       0.87357343       0.00000000 NULL
O        1.72994886       2.19106835       1.94629535       0.00000000 NULL
O        1.03459424       2.68781498       3.79799787       0.00000000 NULL
O        1.96270510       0.85866862       3.54530728       0.00000000 NULL
O        1.31360989       2.79813045       6.02176182       0.00000000 NULL
O        3.36989739       5.11537966       4.05485938       0.00000000 NULL
6
Lattice="3.83207 0.0 0.0 1.9160350000000004 3.3186699690802333 0.0 1.9160341107223073 1.1062228096020295 3.4043945723967974" Properties=species:S:1:pos:R:3:initial_magmoms:R:1:castep_labels:S:1 pbc="T T T"
Si       5.74810421       3.31866951       2.28228978       0.00000000 NULL
Si       1.91603453       1.10622305       1.07331369       0.00000000 NULL
O        5.30109794       2.22492622       3.36956353       0.00000000 NULL
O        5.02439777       4.25265979       3.36956353       0.00000000 NULL
O        6.91881664       3.47842238       3.36956353       0.00000000 NULL
O        3.83206933       2.21244626       1.81678070       0.00000000 NULL
6
Lattice="2.53647 0.0 0.0 0.0 4.27637 0.0 -0.8337670094872139 0.0 4.2989125060055295" Properties=species:S:1:pos:R:3:initial_magmoms:R:1:castep_labels:S:1 pbc="T T T"
Si      -0.41688350       4.27637000       2.14945625       0.00000000 NULL
Si       1.26823500       2.13818500       0.00000000       0.00000000 NULL
O        1.06252892       3.49790474       4.20940485       0.00000000 NULL
O        1.49152557       1.35971974       2.23896391       0.00000000 NULL
O        0.64017407       0.77846526       0.08950766       0.00000000 NULL
O        0.21117742       2.91665026       2.05994860       0.00000000 NULL
6
Lattice="3.12484 0.0 0.0 1.246011705160876 3.571804479615603 0.0 1.4333880424590448 -0.3593243834926562 3.907166864310129" Properties=species:S:1:pos:R:3:initial_magmoms:R:1:castep_labels:S:1 pbc="T T T"
Si       2.94652784       3.17762156       1.36509338       0.00000000 NULL
Si       4.67487840       1.65544502       2.81469449       0.00000000 NULL
O        3.63288177       0.09864475       3.50136773       0.00000000 NULL
O        3.56675509       1.99575078       0.63896752       0.00000000 NULL
O        3.38851198       0.06815794       1.19997065       0.00000000 NULL
O        3.42291667       2.28272544       3.41086095       0.00000000 NULL
6
Lattice="2.63954 0.0 0.0 -0.5437943871700389 3.7952295035455186 0.0 0.0 0.0 4.42469" Properties=species:S:1:pos:R:3:initial_magmoms:R:1:castep_labels:S:1 pbc="T T T"
Si       1.75627231       1.96361797       1.65201553       0.00000000 NULL
Si       0.33947330       1.83161154       3.86436053       0.00000000 NULL
O        1.65192635       1.71990655       0.17459340       0.00000000 NULL
O        0.44381926       2.07532296       2.38693840       0.00000000 NULL
O        1.90778175       0.30506207       2.28843684       0.00000000 NULL
O        0.18796386       3.49016744       0.07609184       0.00000000 NULL
12
Lattice="4.84828 0.0 0.0 2.4241400000000004 4.198733644660018 0.0 2.424139982553078 1.399577871480354 4.5579868781129775" Properties=species:S:1:pos:R:3:initial_magmoms:R:1:castep_labels:S:1 pbc="T T T"
Si       6.36602533       2.81084588       0.09439226       0.00000000 NULL
Si       4.07928340       4.10771672       0.09439226       0.00000000 NULL
Si       4.09953127       1.47890470       0.09439226       0.00000000 NULL
Si       7.27241999       4.19873364       2.55162259       0.00000000 NULL
O        3.72201291       0.99895850       2.64474363       0.00000000 NULL
O        6.97043008       2.72387848       2.64474363       0.00000000 NULL
O        3.85239698       4.67463029       2.64474363       0.00000000 NULL
O        5.20443343       3.94659395       1.33150784       0.00000000 NULL
O        3.67649217       2.53387459       1.33150784       0.00000000 NULL
O        5.66391365       1.91699832       1.33150784       0.00000000 NULL
O        7.27242024       4.19873378       1.03412381       0.00000000 NULL
O        4.84828023       2.79915590       3.22652416       0.00000000 NULL
15
Lattice="4.32559 0.0 0.0 1.6181930848747064 4.2662048385144 0.0 1.2196167434530483 0.9289715196770026 5.951783208385365" Properties=species:S:1:pos:R:3:initial_magmoms:R:1:castep_labels:S:1 pbc="T T T"
Si       3.56897293       1.84240624       0.35884075       0.00000000 NULL
Si       3.75427410       4.07958011       1.96546808       0.00000000 NULL
Si       5.37235938       3.49807981       3.98080020       0.00000000 NULL
Si       1.49897949       2.44853493       1.71759119       0.00000000 NULL
Si       3.69176670       1.58322347       2.98371522       0.00000000 NULL
O        2.45805020       3.14638487       3.55833608       0.00000000 NULL
O        3.01149699       2.79146066       1.64019301       0.00000000 NULL
O        5.06372093       2.17007638       3.21660671       0.00000000 NULL
O        2.02589121       0.04614726       0.14555979       0.00000000 NULL
O        4.81424889       2.68665305       0.53414516       0.00000000 NULL
O        3.23313978       2.88683657       5.40671771       0.00000000 NULL
O        0.97755442       0.87680874       1.68901727       0.00000000 NULL
O        4.10348496       4.32044099       3.90439002       0.00000000 NULL
O        6.01925858       4.77590227       4.51311639       0.00000000 NULL
O        1.72539550       1.61495537       4.92119921       0.00000000 NULL
12
Lattice="4.53843 0.0 0.0 0.682427336538909 4.4868295928466475 0.0 0.682427336538909 0.5864812943883582 4.448334462085441" Properties=species:S:1:pos:R:3:initial_magmoms:R:1:castep_labels:S:1 pbc="T T T"
Si       2.20843268       2.61060411       4.15398817       0.00000000 NULL
Si       2.91299648       4.35242418       1.23243731       0.00000000 NULL
Si       4.74095536       1.51275181       2.04523120       0.00000000 NULL
Si       5.73764205       4.93095683       4.32351687       0.00000000 NULL
O        5.25939356       2.80725494       3.99365018       0.00000000 NULL
O        3.56617343       4.58385894       4.21447351       0.00000000 NULL
O        5.06797465       4.54906179       2.26115291       0.00000000 NULL
O        3.50304617       2.02464543       3.35615181       0.00000000 NULL
O        2.52836631       3.74024693       2.69298966       0.00000000 NULL
O        4.07790290       2.92310130       1.56858638       0.00000000 NULL
O        0.83261875       0.71555651       0.62740777       0.00000000 NULL
O        2.15959155       1.85596323       1.62732886       0.00000000 NULL
9
Lattice="2.86701 0.0 0.0 0.0 5.42656 0.0 -1.1813290870185527 -2.713277286231014 4.567003021433944" Properties=species:S:1:pos:R:3:initial_magmoms:R:1:castep_labels:S:1 pbc="T T T"
Si       2.15644968       4.07474741       1.73261773       0.00000000 NULL
Si       2.15644968       1.35181410       1.73261773       0.00000000 NULL
Si       0.72489381       0.00000168       3.28066049       0.00000000 NULL
O        0.72792314       1.69835537       1.37617456       0.00000000 NULL
O        0.72792314       3.72820681       1.37617456       0.00000000 NULL
O        2.17755763       1.01610255       0.13141688       0.00000000 NULL
O        2.17755763       4.41045761       0.13141688       0.00000000 NULL
O       -0.44891599       1.65455114       3.27968955       0.00000000 NULL
O       -0.44891599      -1.65454724       3.27968955       0.00000000 NULL
12
Lattice="3.72864 0.0 0.0 0.7774329412300536 4.4371173306540355 0.0 1.8643190320281968 -5.048511233482221e-07 5.524235608879946" Properties=species:S:1:pos:R:3:initial_magmoms:R:1:castep_labels:S:1 pbc="T T T"
Si       3.41960937       2.96628423       1.54176057       0.00000000 NULL
Si       5.28392932       2.96628401       3.98247504       0.00000000 NULL
Si       1.21889841       0.92720205       1.92485968       0.00000000 NULL
Si       3.08321811       0.92720189       3.59937593       0.00000000 NULL
O        2.71614577       4.20820857       1.00459827       0.00000000 NULL
O        4.58046515       4.20820825       4.51963734       0.00000000 NULL
O        4.54580241       1.67821942       4.49937887       0.00000000 NULL
O        2.68148302       1.67821973       1.02485674       0.00000000 NULL
O        1.13437759       2.96959526       1.02563069       0.00000000 NULL
O        2.99869661       2.96959494       4.49860492       0.00000000 NULL
O        1.76586227       0.19075269       3.46944148       0.00000000 NULL
O        3.63018252       0.19075282       2.05479412       0.00000000 NULL
6
Lattice="3.13535 0.0 0.0 0.0 4.10619 0.0 0.0 -2.0530949999999986 3.5560648527656245" Properties=species:S:1:pos:R:3:initial_magmoms:R:1:castep_labels:S:1 pbc="T T T"
Si       0.50035169       0.00000000       0.00000000       0.00000000 NULL
Si       1.52726191       2.05309521       1.18535483       0.00000000 NULL
O        0.65342983      -1.16554901       2.34154495       0.00000000 NULL
O        0.65342983       0.60803230       1.37589697       0.00000000 NULL
O        0.65342983       0.55751733       3.39468743       0.00000000 NULL
O        2.11766367       0.00000000       0.00000000       0.00000000 NULL
3
Lattice="2.65688 0.0 0.0 0.0 2.68097 0.0 0.0 -0.2786293824369828 3.3235209190920982" Properties=species:S:1:pos:R:3:initial_magmoms:R:1:castep_labels:S:1 pbc="T T T"
Si       0.00000000      -0.13931469       1.66176046       0.00000000 NULL
O        1.32844000       0.66347165       0.78142424       0.00000000 NULL
O        1.32844000       1.73886897       2.54209667       0.00000000 NULL
18
Lattice="5.309 0.0 0.0 2.6545000000000005 4.5977288686915845 0.0 2.654497224169203 1.5325746869372037 5.57276693625683" Properties=species:S:1:pos:R:3:initial_magmoms:R:1:castep_labels:S:1 pbc="T T T"
Si       6.51061108       1.68447737       5.55259686       0.00000000 NULL
Si       3.51249189       2.71485968       5.55259686       0.00000000 NULL
Si       5.90388873       4.79611590       5.55259686       0.00000000 NULL
Si       4.16104315       1.33540712       2.68972828       0.00000000 NULL
Si       4.38497332       4.92418232       2.68972828       0.00000000 NULL
Si       7.38097872       2.93586551       2.68972828       0.00000000 NULL
O        4.15697576       3.27694763       1.41402552       0.00000000 NULL
O        6.06843104       3.95693563       1.41402552       0.00000000 NULL
O        5.70159029       1.96157280       1.41402552       0.00000000 NULL
O        2.26364582       2.64742943       1.11489165       0.00000000 NULL
O        3.81541768       1.31363840       1.11489165       0.00000000 NULL
O        1.88443483       0.63666007       1.11489165       0.00000000 NULL
O        6.83531992       1.79384312       3.84768962       0.00000000 NULL
O        3.44485183       2.37897216       3.84768962       0.00000000 NULL
O        5.64682250       5.02263914       3.84768962       0.00000000 NULL
O        5.06743810       1.68059388       4.81188252       0.00000000 NULL
O        4.23071581       3.96662698       4.81188252       0.00000000 NULL
O        6.62883969       3.54823319       4.81188252       0.00000000 NULL
6
Lattice="3.36128 0.0 0.0 -1.0975257452385612 3.1770490202290773 0.0 -1.1318784831907767 -1.5885264129160488 4.2800597669142215" Properties=species:S:1:pos:R:3:initial_magmoms:R:1:castep_labels:S:1 pbc="T T T"
Si       1.68063975      -0.00000036       0.80033694       0.00000000 NULL
Si       1.68063890      -0.00000155       3.47972283       0.00000000 NULL
O        1.91452414       2.21685917       1.10025100       0.00000000 NULL
O       -0.33834710      -0.94491616       3.17980877       0.00000000 NULL
O        0.34922942       0.96018887       1.10025100       0.00000000 NULL
O        0.33834508       0.94491333       3.17980877       0.00000000 NULL
9
Lattice="2.98061 0.0 0.0 1.1526966661204423 3.3023439408266997 0.0 0.8271374862444759 1.0989530777562166 6.634625550981706" Properties=species:S:1:pos:R:3:initial_magmoms:R:1:castep_labels:S:1 pbc="T T T"
Si       0.89297348       2.12540285       1.01911365       0.00000000 NULL
Si       2.27823761       0.74032424       2.60320945       0.00000000 NULL
Si       2.63240826       2.17429768       4.63476430       0.00000000 NULL
O        1.68163401       3.22191089       1.68239773       0.00000000 NULL
O        2.98414363       2.30106848       2.93268429       0.00000000 NULL
O        1.40287250       2.24435660       6.42189424       0.00000000 NULL
O        1.48391514       3.44893722       3.69181947       0.00000000 NULL
O        3.22165983       3.11832412       0.06553484       0.00000000 NULL
O        1.71982187       0.97617510       4.89419342       0.00000000 NULL
3
Lattice="2.8196 0.0 0.0 0.0829120267456629 2.8478032895410683 0.0 0.4361658480661314 0.49345474187217125 2.8110929110942995" Properties=species:S:1:pos:R:3:initial_magmoms:R:1:castep_labels:S:1 pbc="T T T"
Si       1.94228475       1.80610845       0.71855527       0.00000000 NULL
O        2.32983473       0.57242955       2.23044874       0.00000000 NULL
O        0.95746945       1.99579750       1.87280548       0.00000000 NULL
3
Lattice="2.65447 0.0 0.0 1.256762184981205 2.750565152255308 0.0 0.22189056508603763 0.32709243759625567 3.2175035618462244" Properties=species:S:1:pos:R:3:initial_magmoms:R:1:castep_labels:S:1 pbc="T T T"
Si       1.95561609       1.37528258       0.00000000       0.00000000 NULL
O        0.64295550       0.54886844       0.60957632       0.00000000 NULL
O        3.49016725       2.52878915       2.60792724       0.00000000 NULL
15
Lattice="5.26921 0.0 0.0 -2.382892484214889 4.699616732540239 0.0 -2.0876841360898912 -1.953966258120427 4.425851876661199" Properties=species:S:1:pos:R:3:initial_magmoms:R:1:castep_labels:S:1 pbc="T T T"
Si      -0.11836269      -0.08886368       1.89523696       0.00000000 NULL
Si       1.65387365      -0.85418565       4.16016268       0.00000000 NULL
Si       0.77290273       2.59989565       2.53061491       0.00000000 NULL
Si      -0.71114693       3.83445462       0.26568920       0.00000000 NULL
Si       3.03392169       1.37282524       2.21292594       0.00000000 NULL
O       -3.08453204       2.96286038       2.96500696       0.00000000 NULL
O        1.70240429       1.12212691       3.61978918       0.00000000 NULL
O       -0.43308038       1.33444422       1.46084491       0.00000000 NULL
O        3.41247490       0.07186944       0.80606270       0.00000000 NULL
O       -1.92074338      -0.17001334       3.24121420       0.00000000 NULL
O        2.92647465       2.78847285       0.97961142       0.00000000 NULL
O        1.51561495       0.95565106       1.18463768       0.00000000 NULL
O       -0.92407946       1.91719038       3.44624046       0.00000000 NULL
O       -0.13131976       3.31679050       1.55872705       0.00000000 NULL
O        0.92995314      -0.57114002       2.86712482       0.00000000 NULL
3
Lattice="3.02995 0.0 0.0 1.5149750000000004 2.6240136721966594 0.0 1.5149743504435822 0.8746708490439805 2.742699066873857" Properties=species:S:1:pos:R:3:initial_magmoms:R:1:castep_labels:S:1 pbc="T T T"
Si       4.54492474       2.62401352       0.46462803       0.00000000 NULL
O        4.54492453       2.62401340       1.98147227       0.00000000 NULL
O        1.51497493       0.87467118       0.94339715       0.00000000 NULL
3
Lattice="2.99167 0.0 0.0 -0.24444865993741413 2.981666353158046 0.0 -1.373610937285918 -1.49083346664088 2.5061112884730474" Properties=species:S:1:pos:R:3:initial_magmoms:R:1:castep_labels:S:1 pbc="T T T"
Si       1.49583487      -0.00000015       1.25305564       0.00000000 NULL
O        1.37361042       1.49083291       1.01363104       0.00000000 NULL
O       -0.00000002      -0.00000002       1.49248024       0.00000000 NULL
18
Lattice="3.17359 0.0 0.0 0.0 5.71711 0.0 -0.6933314413558708 0.0 7.632554025542655" Properties=species:S:1:pos:R:3:initial_magmoms:R:1:castep_labels:S:1 pbc="T T T"
Si      -0.22589936       4.12559235       7.02175813       0.00000000 NULL
Si      -0.22589936       1.59151765       7.02175813       0.00000000 NULL
Si       2.67457297       4.11782852       1.72043034       0.00000000 NULL
Si       2.67457297       1.59928148       1.72043034       0.00000000 NULL
Si       1.57524046       4.40692104       4.45068880       0.00000000 NULL
Si       1.57524046       1.31018896       4.45068880       0.00000000 NULL
O        0.28677870       1.83481670       3.78869831       0.00000000 NULL
O        0.28677870       3.88229330       3.78869831       0.00000000 NULL
O        1.02237238       3.87085737       1.24244394       0.00000000 NULL
O        1.02237238       1.84625263       1.24244394       0.00000000 NULL
O        2.61583289       1.02261318       0.32650921       0.00000000 NULL
O        2.61583289       4.69449682       0.32650921       0.00000000 NULL
O       -0.48532861       4.71646139       5.43523789       0.00000000 NULL
O       -0.48532861       1.00064861       5.43523789       0.00000000 NULL
O        1.87294157       1.00501763       2.89581084       0.00000000 NULL
O        1.87294157       4.71209237       2.89581084       0.00000000 NULL
O        1.09241362       1.85031807       6.33152184       0.00000000 NULL
O        1.09241362       3.86679193       6.33152184       0.00000000 NULL
3
Lattice="2.82956 0.0 0.0 0.0 2.97121 0.0 0.0 -1.4856049999999992 2.5731433399783628" Properties=species:S:1:pos:R:3:initial_magmoms:R:1:castep_labels:S:1 pbc="T T T"
Si       1.45596736      -0.00000015       1.71542898       0.00000000 NULL
O        0.56903159       0.00000000       0.00000000       0.00000000 NULL
O        2.22932827       1.48560515       0.85771436       0.00000000 NULL
18
Lattice="3.83021 0.0 0.0 -1.915104999999999 3.317059161829195 0.0 0.0 0.0 10.67872" Properties=species:S:1:pos:R:3:initial_magmoms:R:1:castep_labels:S:1 pbc="T T T"
Si       0.30076169       2.60340284       4.00292887       0.00000000 NULL
Si       0.18912715       1.75489048       0.44335589       0.00000000 NULL
Si      -0.48988884       2.27582500       7.56250292       0.00000000 NULL
Si       1.51568687       1.50771020       5.94806199       0.00000000 NULL
Si       2.46297651       1.25058073       2.38848794       0.00000000 NULL
Si       1.76665104       0.55876857       9.50763497       0.00000000 NULL
O        2.25812386       2.43048720       0.95364814       0.00000000 NULL
O        2.89090673       0.14622293       8.07279516       0.00000000 NULL
O        0.59628441       0.74034903       4.51322218       0.00000000 NULL
O        0.30100069       2.37223102       5.64436240       0.00000000 NULL
O       -0.01119302       1.87026941       2.08478942       0.00000000 NULL
O       -0.28980767       2.39161790       9.20393644       0.00000000 NULL
O        2.53533339       1.28673203       3.91663734       0.00000000 NULL
O        1.76178131       0.47803002       0.35706329       0.00000000 NULL
O        1.44820087       1.55229678       7.47621032       0.00000000 NULL
O        1.60426852       2.04920352       9.77121888       0.00000000 NULL
O        2.88763266       0.90312011       6.21164484       0.00000000 NULL
O        1.25341324       0.36473586       2.65207186       0.00000000 NULL
15
Lattice="5.03646 0.0 0.0 1.2293314543535288 4.884124640806891 0.0 1.2293314543535288 0.9582521364887212 4.789198925692254" Properties=species:S:1:pos:R:3:initial_magmoms:R:1:castep_labels:S:1 pbc="T T T"
Si       3.93231688       1.20360106       2.01488591       0.00000000 NULL
Si       2.12702144       2.66626062       3.05587481       0.00000000 NULL
Si       3.10479256       3.27349089       0.78489319       0.00000000 NULL
Si       1.47167713       1.14715828       0.94036544       0.00000000 NULL
Si       4.52627250       3.52818621       2.89217664       0.00000000 NULL
O        1.87988264       1.40497145       3.88075542       0.00000000 NULL
O        1.82132977       4.09572010       0.68992817       0.00000000 NULL
O        4.41640069       0.82691040       0.61627124       0.00000000 NULL
O        4.18577481       5.00279124       2.77719707       0.00000000 NULL
O        5.87316500       3.28003971       2.23801852       0.00000000 NULL
O        4.61438972       3.15488939       4.36068056       0.00000000 NULL
O        2.70055960       3.69926500       4.01434677       0.00000000 NULL
O        4.24654503       4.27298786       0.89498251       0.00000000 NULL
O        5.18026882       1.48091900       2.83976364       0.00000000 NULL
O        5.96569061       4.65019890       3.81192936       0.00000000 NULL
12
Lattice="4.64966 0.0 0.0 -0.2506912469081567 4.644929897729743 0.0 -0.7083233252370821 -1.8529120177351985 4.366291438951087" Properties=species:S:1:pos:R:3:initial_magmoms:R:1:castep_labels:S:1 pbc="T T T"
Si       3.53607378       4.16555651       0.80885200       0.00000000 NULL
Si       0.82695126       1.51039555       3.60965985       0.00000000 NULL
Si       0.28418141      -0.84322710       4.35078979       0.00000000 NULL
Si       3.73821278       1.87616057       1.81818401       0.00000000 NULL
O        2.30970722      -0.11080373       0.97683633       0.00000000 NULL
O        1.53672682       1.18511298       2.32577674       0.00000000 NULL
O        1.12056782       2.97546267       3.26658723       0.00000000 NULL
O        0.29201066       3.63023002       0.70849934       0.00000000 NULL
O       -0.34179296       0.46782509       1.88377662       0.00000000 NULL
O        3.13182232      -1.18419850       4.12119753       0.00000000 NULL
O        3.29736333       1.68242621       3.23995766       0.00000000 NULL
O        2.62165791       2.75336267       0.15713715       0.00000000 NULL
9
Lattice="3.69571 0.0 0.0 1.0147670200304992 4.181427475762127 0.0 0.5307721128383351 0.20798294812026663 4.5685104335137865" Properties=species:S:1:pos:R:3:initial_magmoms:R:1:castep_labels:S:1 pbc="T T T"
Si       1.93902858       4.01307291       3.55093504       0.00000000 NULL
Si       2.88008837       2.18820784       2.08811627       0.00000000 NULL
Si       0.94172391       1.70474499       0.32220425       0.00000000 NULL
O        1.80728639       0.54955098       1.05307318       0.00000000 NULL
O        2.36815567       0.72931931       3.26151168       0.00000000 NULL
O        1.52855103       2.49938336       1.49575773       0.00000000 NULL
O        4.14763779       3.14607271       4.45020337       0.00000000 NULL
O        4.22286152       1.55790736       2.98570340       0.00000000 NULL
O        3.68179463       0.43462805       0.22884994       0.00000000 NULL
12
Lattice="4.80313 0.0 0.0 -1.028921558456306 4.691628525730043 0.0 -1.8626772707271972 -2.315449703673057 4.087640835161111" Properties=species:S:1:pos:R:3:initial_magmoms:R:1:castep_labels:S:1 pbc="T T T"
Si       0.01138361       2.05555811       2.68108076       0.00000000 NULL
Si       2.00540111       0.45145889       2.68108076       0.00000000 NULL
Si       0.38445572       3.44884485       0.62578511       0.00000000 NULL
Si       3.28642450       1.11433882       0.62578511       0.00000000 NULL
O        0.26573951       1.94012550       0.77581829       0.00000000 NULL
O        1.83816034       0.67518223       0.77581829       0.00000000 NULL
O       -0.62045506       3.56486138       1.74230213       0.00000000 NULL
O        3.61501873       0.15760932       1.74230213       0.00000000 NULL
O        1.43897582       0.17874575       4.07188175       0.00000000 NULL
O       -0.13365963       1.44386168       4.07188175       0.00000000 NULL
O        2.22738538      -1.05470972       2.57429973       0.00000000 NULL
O       -1.50737354       1.94973928       2.57429973       0.00000000 NULL
18
Lattice="4.69836 0.0 0.0 0.0 5.79377 0.0 0.0 -2.8968849999999984 5.017552003684169" Properties=species:S:1:pos:R:3:initial_magmoms:R:1:castep_labels:S:1 pbc="T T T"
Si       3.04099566       0.60769144       1.80898053       0.00000000 NULL
Si       1.47487581      -1.63410763       3.58678551       0.00000000 NULL
Si       4.60711597       1.02641618       4.63933797       0.00000000 NULL
Si       3.72169123       3.96488133       2.03724352       0.00000000 NULL
Si       2.15557139       2.67874898       0.56524229       0.00000000 NULL
Si       0.58945108       2.04702469       2.41506619       0.00000000 NULL
O        2.60036090      -0.82287177       4.23110291       0.00000000 NULL
O        1.03424059       1.17879349       3.61462841       0.00000000 NULL
O        4.16648075      -0.35592172       2.18937269       0.00000000 NULL
O        0.97289034       1.31632456       0.62815185       0.00000000 NULL
O        4.10513003       2.78271818       3.56350557       0.00000000 NULL
O        2.53901019       4.59161226       0.82589458       0.00000000 NULL
O        0.36787689      -0.68081838       3.95949780       0.00000000 NULL
O        3.50011658       0.87254987       3.62740912       0.00000000 NULL
O        1.93399673      -0.19173149       2.44819709       0.00000000 NULL
O        2.00893839       3.31438667       2.33333077       0.00000000 NULL
O        0.44281855       3.26041539       0.98054356       0.00000000 NULL
O        3.57505871       2.11585294       1.70367767       0.00000000 NULL
12
Lattice="2.51415 0.0 0.0 1.0959591635400274 5.342557161879753 0.0 1.1580342557244405 2.0974034762134433 7.071107647422468" Properties=species:S:1:pos:R:3:initial_magmoms:R:1:castep_labels:S:1 pbc="T T T"
Si       2.38513787       3.63410130       6.85283811       0.00000000 NULL