3
Lattice="2.87001 0.0 0.0 1.139839539187527 2.782839933917286 0.0 0.13271273194719285 0.5087799052803689 2.978007673539813" Properties=species:S:1:pos:R:3:initial_magmoms:R:1:castep_labels:S:1 pbc="T T T"
Si       0.77965734       0.11847231       0.17050672       0.00000000 NULL
O        2.74977756       0.75083527       1.25138086       0.00000000 NULL
O        1.50737396       1.98997201       2.85321218       0.00000000 NULL
6
Lattice="3.31693 0.0 0.0 -1.434749577233469 3.4693532989634224 0.0 -0.47152770884871004 -0.28112230046743786 3.9783627028675737" Properties=species:S:1:pos:R:3:initial_magmoms:R:1:castep_labels:S:1 pbc="T T T"
Si      -0.44188991       1.51810812       2.46091929       0.00000000 NULL
Si       2.11417990       0.29091991       0.38220687       0.00000000 NULL
O        0.57816163      -0.18178241       3.28943202       0.00000000 NULL
O        0.79356152       2.10683847       3.56787922       0.00000000 NULL
O        2.01368678       0.19844137       1.91484007       0.00000000 NULL
O       -1.09278833       2.58031744       1.41096094       0.00000000 NULL
3
Lattice="2.7485 0.0 0.0 0.0 3.21883 0.0 -1.3742489076721351 -1.6094140564029926 2.5517794700393703" Properties=species:S:1:pos:R:3:initial_magmoms:R:1:castep_labels:S:1 pbc="T T T"
Si       0.00000000       1.60941500       0.00000000       0.00000000 NULL
O        0.00000051       1.60941540       1.51164328       0.00000000 NULL
O        1.37425058       0.00000055       1.04013619       0.00000000 NULL
6
Lattice="3.56852 0.0 0.0 0.0 3.56888 0.0 0.0 0.0 3.56888" Properties=species:S:1:pos:R:3:initial_magmoms:R:1:castep_labels:S:1 pbc="T T T"
Si       0.00314708       1.78444000       0.00000000       0.00000000 NULL
Si       1.78740708       0.00000000       1.78444000       0.00000000 NULL
O        0.52334558       2.58702437       1.17457051       0.00000000 NULL
O        0.52334558       0.98185563       2.39430949       0.00000000 NULL
O        2.30760558       2.39430949       2.58702437       0.00000000 NULL
O        2.30760558       1.17457051       0.98185563       0.00000000 NULL
3
Lattice="2.88583 0.0 0.0 0.6406149801667894 2.8138278618433477 0.0 0.6406149801667894 0.5111607553911925 2.7670095623676128" Properties=species:S:1:pos:R:3:initial_magmoms:R:1:castep_labels:S:1 pbc="T T T"
Si       3.83895733       3.06318832       2.54914298       0.00000000 NULL
O        1.40483884       1.12095175       0.93284055       0.00000000 NULL
O        2.79267191       2.22833422       1.85438893       0.00000000 NULL
3
Lattice="2.59067 0.0 0.0 1.2112285387014996 2.665344245971808 0.0 1.1893383041483874 0.7795996201325942 3.31183405504783" Properties=species:S:1:pos:R:3:initial_magmoms:R:1:castep_labels:S:1 pbc="T T T"
Si       3.10123269       3.05514406       1.65591703       0.00000000 NULL
O        2.54799538       1.83194059       0.59076297       0.00000000 NULL
O        2.44324146       1.61300328       2.72107108       0.00000000 NULL
12
Lattice="3.14847 0.0 0.0 0.5729872180796299 4.848953215284446 0.0 0.5632413040156091 1.401797630112296 5.685047419341579" Properties=species:S:1:pos:R:3:initial_magmoms:R:1:castep_labels:S:1 pbc="T T T"
Si       2.15607882       2.37370427       1.60475927       0.00000000 NULL
Si       2.85838736       4.56332944       4.86826131       0.00000000 NULL
Si       2.83573347       0.43588324       0.12782204       0.00000000 NULL
Si       3.50498465       4.30722998       2.44452036       0.00000000 NULL
O        1.43773759       4.45513734       4.32166390       0.00000000 NULL
O        2.97806270       0.99918578       3.19524224       0.00000000 NULL
O        1.41532959       2.27464392       2.99118372       0.00000000 NULL
O        0.64412831       2.09414126       1.11601006       0.00000000 NULL
O        2.80180451       3.21222671       5.56589110       0.00000000 NULL
O        3.00115801       3.40496702       3.55845424       0.00000000 NULL
O        3.12084598       3.80772242       0.28385612       0.00000000 NULL
O        1.43449347       1.48248645       4.83241197       0.00000000 NULL
6
Lattice="2.57368 0.0 0.0 1.2757129410501669 3.322461854353957 0.0 0.8209075168588733 0.6875544662933724 5.306876197307097" Properties=species:S:1:pos:R:3:initial_magmoms:R:1:castep_labels:S:1 pbc="T T T"
Si       1.36572066       1.78842337       1.68629069       0.00000000 NULL
Si       1.51989744       0.81731350       5.21548701       0.00000000 NULL
O        2.67248732       2.45995277       2.12767420       0.00000000 NULL
O        2.83367534       1.40227953       4.63730497       0.00000000 NULL
O        1.69580896       0.91793241       3.01699467       0.00000000 NULL
O        1.53420299       2.79776447       3.91695597       0.00000000 NULL
12
Lattice="4.4861 0.0 0.0 -2.243049999999999 3.8850765639173708 0.0 0.0 0.0 5.013" Properties=species:S:1:pos:R:3:initial_magmoms:R:1:castep_labels:S:1 pbc="T T T"
Si       2.96032535       0.00329843       2.40105104       0.00000000 NULL
Si       3.00308102       2.56206735       2.40105104       0.00000000 NULL
Si       0.76574430       1.31971039       2.40105104       0.00000000 NULL
Si       0.00000000       0.00000000       0.34174423       0.00000000 NULL
O        0.99713868       1.96113964       3.77214013       0.00000000 NULL
O        0.04608391       3.76805417       3.77214013       0.00000000 NULL
O       -1.04322259       2.04095932       3.77214013       0.00000000 NULL
O       -0.96823272       3.87083931       1.85804188       0.00000000 NULL
O       -0.62507882       1.11114278       1.85804188       0.00000000 NULL
O        1.59331154       2.78817104       1.85804188       0.00000000 NULL
O        2.24305022       1.29502539       0.67287243       0.00000000 NULL
O        4.48610000       0.00000000       3.85410870       0.00000000 NULL
12
Lattice="2.73804 0.0 0.0 -0.4949521630815779 4.212039054503277 0.0 -0.7442532043348695 -1.5164568132581169 7.677087940681695" Properties=species:S:1:pos:R:3:initial_magmoms:R:1:castep_labels:S:1 pbc="T T T"
Si       0.53469507      -0.17925852       6.02422242       0.00000000 NULL
Si       2.13978235       1.63002385       2.21932559       0.00000000 NULL
Si       1.32270832      -0.68713519       3.68070995       0.00000000 NULL
Si       1.50173378       4.14367139       0.32673149       0.00000000 NULL
O        0.85981597       2.30794288       5.75290876       0.00000000 NULL
O        0.86045336       0.80118242       2.30297438       0.00000000 NULL
O        0.14356277       2.81693036       1.53428291       0.00000000 NULL
O        0.02618721       2.22658591       3.45399556       0.00000000 NULL
O       -0.71591260       0.65777806       6.22274885       0.00000000 NULL
O        1.51146404       2.30406225       0.16383597       0.00000000 NULL
O        1.17254646       0.84242386       4.39868120       0.00000000 NULL
O       -0.20066398      -0.58783108       4.73152749       0.00000000 NULL
