104
Lattice="14.752975 0.0 0.0 0.0 12.828814 0.0 0.0 0.0 12.8717" Properties=species:S:1:pos:R:3:forces:R:3 energy=-571.7744892486108 hash=65caec19db865b84795faa891699f15e virial="26.5960839552 0.0 0.0 0.0 -8.69836786862 0.0 0.0 0.0 9.45073549841" config_type=rss_3c pressure=0.0037420489448516097 uploaded="2020-04-10 10:56:53.323000" hash_structure=f5bb3ec5005e822dba26f0166ed6c15a filename=rss_3c/rss_3c_mbd2.xyz username=gabor stress="-0.009439779880314577 2.2346002228909636e-12 -1.102048261073949e-12 2.2346002228909636e-12 0.005475066955256756 1.1788363142326841e-07 -1.102048261073949e-12 1.1788363142326841e-07 -0.004919082925550032" volume=2436.138773885412 n_atoms=104 free_energy=-570.88456 modified="2020-04-10 10:56:53.323000" formula=P104 miguel_caro=T pbc="T T T"
P        5.55284000       1.54336000       4.79899000      -0.02720391       0.31292484      -0.14659915
P        3.40593000       1.92310000       4.54218000       0.05907041       0.39820994      -0.45975247
P        2.83521000      12.72241000       5.14557000      -0.62130863      -0.17664208      -0.04473476
P        0.61386000       0.19271000       4.91270000      -0.27049124      -0.42482573      -0.01062619
P        6.32144000       3.56955000       4.26074000      -0.09522898      -0.38241830      -0.36794191
P        4.67563000       3.69629000       7.41183000       0.09757354       0.28226882      -0.02148060
P        2.84625000       3.29862000       6.23727000      -0.48493151      -0.34379031      -0.01494985
P        1.91349000       1.94200000       7.76613000      -0.09611956       0.14926372      -0.04998546
P        0.02843000       1.52844000       6.62131000      -0.03001365       0.09143677       0.37309549
P        5.98915000       4.94149000       6.02491000       0.04906817      -0.37761041       0.23367169
P        5.84247000       1.90315000       6.94732000       0.43496851      -0.36028787       0.29310570
P        2.80712000      12.81238000       7.35081000       0.01098461      -0.13885041       0.27813350
P        4.90134000       0.16568000       7.93271000       0.37955592      -0.22902481       0.54201059
P        9.20015000       4.87104000       4.79899000       0.02713394      -0.31295274      -0.14663210
P       11.34706000       4.49130000       4.54218000      -0.05909324      -0.39815026      -0.45979304
P       11.91778000       6.52081000       5.14557000       0.62120409       0.17660972      -0.04475787
P       14.13912000       6.22169000       4.91270000       0.27057749       0.42488909      -0.01060150
P        8.43153000       2.84485000       4.26074000       0.09529916       0.38247447      -0.36791931
P       10.07734000       2.71812000       7.41183000      -0.09739277      -0.28242289      -0.02147670
P       11.90673000       3.11579000       6.23727000       0.48490608       0.34369527      -0.01488114
P       12.83948000       4.47241000       7.76613000       0.09628481      -0.14927928      -0.04998876
P       14.72456000       4.88597000       6.62131000       0.02982102      -0.09150300       0.37316317
P        8.76383000       1.47291000       6.02491000      -0.04911233       0.37765956       0.23367683
P        8.91052000       4.51125000       6.94732000      -0.43510853       0.36040722       0.29302633
P       11.94585000       6.43084000       7.35081000      -0.01085335       0.13887287       0.27810348
P        9.85164000       6.24872000       7.93271000      -0.37962132       0.22908726       0.54203375
P        5.55284000      11.28544000       1.63686000      -0.02720743      -0.31280379       0.14660625
P        3.40593000      10.90571000       1.89367000       0.05905358      -0.39822499       0.45975070
P        2.83521000       0.10640000       1.29028000      -0.62129815       0.17665128       0.04472864
P        0.61386000      12.63610000       1.52315000      -0.27048588       0.42490323       0.01062934
P        6.32144000       9.25926000       2.17511000      -0.09521285       0.38234951       0.36794767
P        4.67563000       9.13252000      11.89572000       0.09757405      -0.28227535       0.02147460
P        2.84625000       9.53019000       0.19858000      -0.48494177       0.34378798       0.01494727
P        1.91349000      10.88681000      11.54142000      -0.09612630      -0.14924462       0.04999461
P        0.02843000      11.30038000      12.68624000      -0.03000696      -0.09152608      -0.37310401
P        5.98915000       7.88732000       0.41094000       0.04906453       0.37760774      -0.23367510
P        5.84247000      10.92566000      12.36023000       0.43496774       0.36027018      -0.29312308
P        2.80712000       0.01643000      11.95674000       0.01099046       0.13885388      -0.27813289
P        4.90134000      12.66313000      11.37484000       0.37955545       0.22902823      -0.54199966
P        9.20015000       7.95776000       1.63686000       0.02713894       0.31307783       0.14661825
P       11.34706000       8.33751000       1.89367000      -0.05910890       0.39815756       0.45977192
P       11.91778000       6.30800000       1.29028000       0.62121505      -0.17659104       0.04474777
P       14.13912000       6.60712000       1.52315000       0.27057035      -0.42488239       0.01059490
P        8.43153000       9.98396000       2.17511000       0.09531500      -0.38254536       0.36791721
P       10.07734000      10.11070000      11.89572000      -0.09741713       0.28230981       0.02148010
P       11.90673000       9.71303000       0.19858000       0.48489803      -0.34377111       0.01491467
P       12.83948000       8.35641000      11.54142000       0.09626720       0.14917869       0.05002019
P       14.72456000       7.94284000      12.68624000       0.02981201       0.09151662      -0.37316436
P        8.76383000      11.35590000       0.41094000      -0.04913565      -0.37763776      -0.23365637
P        8.91052000       8.31756000      12.36023000      -0.43507078      -0.36036348      -0.29302653
P       11.94585000       6.39797000      11.95674000      -0.01082885      -0.13878877      -0.27812540
P        9.85164000       6.58009000      11.37484000      -0.37961672      -0.22907927      -0.54203639
P        9.20015000      11.28544000       8.07271000       0.02714590      -0.31283250       0.14663438
P       11.34706000      10.90571000       8.32952000      -0.05908490      -0.39824664       0.45977745
P       11.91778000       0.10640000       7.72613000       0.62120431       0.17667163       0.04473048
P       14.13912000      12.63610000       7.95900000       0.27057736       0.42489442       0.01059048
P        8.43153000       9.25926000       8.61096000       0.09528366       0.38240581       0.36792927
P       10.07734000       9.13252000       5.45987000      -0.09741787      -0.28232094       0.02147203
P       11.90673000       9.53019000       6.63443000       0.48490652       0.34374831       0.01490947
P       12.83948000      10.88681000       5.10557000       0.09627869      -0.14922602       0.05001054
P       14.72456000      11.30038000       6.25039000       0.02981286      -0.09153588      -0.37314635
P        8.76383000       7.88732000       6.84679000      -0.04911665       0.37760149      -0.23364742
P        8.91052000      10.92566000       5.92438000      -0.43507404       0.36032371      -0.29306446
P       11.94585000       0.01643000       5.52089000      -0.01083556       0.13885293      -0.27811195
P        9.85164000      12.66313000       4.93899000      -0.37960675       0.22904164      -0.54203167
P        5.55284000       7.95776000       8.07271000      -0.02720046       0.31304913       0.14659011
P        3.40593000       8.33751000       8.32952000       0.05907758       0.39813591       0.45974517
P        2.83521000       6.30800000       7.72613000      -0.62130890      -0.17657069       0.04474592
P        0.61386000       6.60712000       7.95900000      -0.27047886      -0.42489120       0.01063376
P        6.32144000       9.98396000       8.61096000      -0.09524419      -0.38248906       0.36793561
P        4.67563000      10.11070000       5.45987000       0.09757331       0.28226423       0.02148267
P        2.84625000       9.71303000       6.63443000      -0.48493328      -0.34381079       0.01495247
P        1.91349000       8.35641000       5.10557000      -0.09611482       0.14919730       0.05000426
P        0.02843000       7.94284000       6.25039000      -0.03000611       0.09150682      -0.37312201
P        5.98915000      11.35590000       6.84679000       0.04908353      -0.37764401      -0.23368404
P        5.84247000       8.31756000       5.92438000       0.43496449      -0.36030996      -0.29308514
P        2.80712000       6.39797000       5.52089000       0.01098376      -0.13878972      -0.27814635
P        4.90134000       6.58009000       4.93899000       0.37956542      -0.22906587      -0.54200437
P        9.20015000       1.54336000      11.23484000       0.02714238       0.31295355      -0.14662728
P       11.34706000       1.92310000      10.97803000      -0.05910174       0.39823159      -0.45977922
P       11.91778000      12.72241000      11.58142000       0.62121478      -0.17666243      -0.04473661
P       14.13912000       0.19271000      11.34855000       0.27058272      -0.42481693      -0.01058734
P        8.43153000       3.56955000      10.69659000       0.09529979      -0.38247460      -0.36792351
P       10.07734000       3.69629000       0.97598000      -0.09741736       0.28231441      -0.02147803
P       11.90673000       3.29862000      12.67312000       0.48489625      -0.34375063      -0.01491205
P       12.83948000       1.94200000       1.33028000       0.09627195       0.14924511      -0.05000139
P       14.72456000       1.52844000       0.18546000       0.02981954       0.09144657       0.37313783
P        8.76383000       4.94149000      12.46076000      -0.04912029      -0.37760416       0.23364401
P        8.91052000       1.90315000       0.51147000      -0.43507480      -0.36034139       0.29304708
P       11.94585000      12.81238000       0.91496000      -0.01082970      -0.13884946       0.27811256
P        9.85164000       0.16568000       1.49686000      -0.37960722      -0.22903822       0.54204260
P        5.55284000       4.87104000      11.23484000      -0.02719547      -0.31292403      -0.14660397
P        3.40593000       4.49130000      10.97803000       0.05906191      -0.39812861      -0.45976629
P        2.83521000       6.52081000      11.58142000      -0.62129793       0.17658937      -0.04475602
P        0.61386000       6.22169000      11.34855000      -0.27048600       0.42489790      -0.01064035
P        6.32144000       2.84485000      10.69659000      -0.09522835       0.38241817      -0.36793772
P        4.67563000       2.71812000       0.97598000       0.09754895      -0.28237729      -0.02147927
P        2.84625000       3.11579000      12.67312000      -0.48494134       0.34373495      -0.01491894
P        1.91349000       4.47241000       1.33028000      -0.09613242      -0.14929788      -0.04997283
P        0.02843000       4.88597000       0.18546000      -0.03001513      -0.09149320       0.37312082
P        5.98915000       1.47291000      12.46076000       0.04906021       0.37766580       0.23370451
P        5.84247000       4.51125000       0.51147000       0.43500224       0.36035370       0.29308495
P        2.80712000       6.43084000       0.91496000       0.01100825       0.13887381       0.27812442
P        4.90134000       6.24872000       1.49686000       0.37957002       0.22907385       0.54200173
104
Lattice="14.889483 0.0 0.0 0.0 12.391801 -1e-06 0.0 -2e-06 13.347013" Properties=species:S:1:pos:R:3:forces:R:3 energy=-571.5259481880485 hash=2a03cfe65dbe78e74669f4a756e0817d virial="26.3757318784 0.0 0.0 0.0 11.6352465281 -0.0 0.0 -0.0 5.35105200861" config_type=rss_3c pressure=0.005869352902749718 uploaded="2020-04-10 10:56:53.293000" hash_structure=389247ae759652655bed27dccf1a710e filename=rss_3c/rss_3c_mbd2.xyz username=gabor stress="-0.005956123499490968 2.586067979520552e-08 -4.262749537605157e-09 2.586067979520552e-08 -0.0063736571684284244 -8.65574069633063e-08 -4.262749537605157e-09 -8.65574069633063e-08 0.0015816738123372227" volume=2462.6241389572056 n_atoms=104 free_energy=-569.77517532 modified="2020-04-10 10:56:53.293000" formula=P104 miguel_caro=T pbc="T T T"
P       13.33855000       1.06165000      11.95313000      -0.35739095       0.31281877       0.18650677
P       11.16165000       1.34697000      11.59177000      -0.25577599       0.23733553      -0.12242093
P       10.27593000      11.89413000      12.35433000      -0.17575135       0.36756781      -0.32586160
P        8.16584000       0.09854000      11.85261000      -0.12932971      -0.16031508       0.26789564
P       13.77690000       3.12620000      11.20159000       0.04799888       0.12048273      -0.46396266
P       12.15737000       3.40535000       0.98354000       0.17516076      -0.05873133       0.15810388
P       10.45252000       2.90202000      13.05469000      -0.11802528      -0.31441552      -0.27104277
P        9.40458000       1.86157000       1.37042000      -0.01187042      -0.13980083      -0.08217740
P        7.55619000       1.51609000       0.15572000       0.04500284       0.08616112       0.31570201
P       13.37872000       4.56250000      12.87660000       0.12695885      -0.04673481      -0.14219150
P       13.41294000       1.59319000       0.76070000       0.55572574       0.08159969       0.06334902
P       10.24094000      12.20672000       1.19632000      -0.16466598      -0.00882020       0.18755674
P       12.35360000      12.32120000       1.74348000       0.35164321      -0.31410892       0.35647308
P        1.55096000       5.13427000      11.95313000       0.35759480      -0.31281932       0.18648750
P        3.72788000       4.84895000      11.59177000       0.25564540      -0.23725518      -0.12239234
P        4.61360000       6.69360000      12.35433000       0.17573645      -0.36766404      -0.32589002
P        6.72369000       6.09738000      11.85261000       0.12931845       0.16037769       0.26790606
P        1.11262000       3.06972000      11.20159000      -0.04799645      -0.12049672      -0.46395719
P        2.73215000       2.79057000       0.98354000      -0.17506338       0.05880856       0.15807671
P        4.43701000       3.29390000      13.05469000       0.11793397       0.31442301      -0.27102437
P        5.48494000       4.33435000       1.37042000       0.01195324       0.13997524      -0.08219103
P        7.33334000       4.67984000       0.15572000      -0.04507111      -0.08621028       0.31575524
P        1.51081000       1.63342000      12.87660000      -0.12704441       0.04674737      -0.14221224
P        1.47659000       4.60274000       0.76070000      -0.55575171      -0.08164415       0.06335895
P        4.64859000       6.38102000       1.19632000       0.16467853       0.00865753       0.18757248
P        2.53593000       6.26653000       1.74348000      -0.35162802       0.31412393       0.35645756
P        5.89381000       5.13427000       8.06739000      -0.35741111      -0.31279828      -0.18647771
P        3.71691000       4.84895000       8.42875000      -0.25580336      -0.23726666       0.12239130
P        2.83119000       6.69360000       7.66619000      -0.17574202      -0.36765431       0.32591066
P        0.72110000       6.09738000       8.16790000      -0.12933478       0.16040238      -0.26775096
P        6.33215000       3.06972000       8.81893000       0.04809608      -0.12047807       0.46396915
P        4.71263000       2.79057000       5.68996000       0.17519235       0.05880015      -0.15801625
P        3.00778000       3.29390000       6.96583000      -0.11798707       0.31443710       0.27102126
P        1.95984000       4.33435000       5.30309000      -0.01185239       0.13996828       0.08216684
P        0.11145000       4.67984000       6.51779000       0.04498430      -0.08623799      -0.31577991
P        5.93398000       1.63342000       7.14392000       0.12692378       0.04677498       0.14215244
P        5.96820000       4.60274000       5.91281000       0.55566157      -0.08167971      -0.06342633
P        2.79620000       6.38102000       5.47719000      -0.16476939       0.00863780      -0.18758866
P        4.90885000       6.26653000       4.93003000       0.35173038       0.31404712      -0.35650748
P        8.99570000       1.06165000       8.06739000       0.35761197       0.31285498      -0.18648541
P       11.17262000       1.34698000       8.42875000       0.25564820       0.23719831       0.12243565
P       12.05834000      11.89413000       7.66619000       0.17570638       0.36762469       0.32588348
P       14.16843000       0.09854000       8.16790000       0.12933285      -0.16029976      -0.26774672
P        8.55736000       3.12620000       8.81893000      -0.04804653       0.12051415       0.46396673
P       10.17689000       3.40535000       5.68996000      -0.17502558      -0.05874134      -0.15799267
P       11.88175000       2.90202000       6.96583000       0.11790532      -0.31432198       0.27098888
P       12.92968000       1.86157000       5.30309000       0.01198752      -0.13982523       0.08213690
P       14.77808000       1.51609000       6.51779000      -0.04504151       0.08619138      -0.31578140
P        8.95555000       4.56250000       7.14392000      -0.12699667      -0.04672600       0.14220705
P        8.92133000       1.59319000       5.91281000      -0.55578815       0.08156543      -0.06338657
P       12.09333000      12.20672000       5.47719000       0.16464087      -0.00884835      -0.18758327
P        9.98067000      12.32120000       4.93003000      -0.35163379      -0.31410653      -0.35651188
P        1.55096000      11.33017000       1.39388000       0.35759200      -0.31283046      -0.18649915
P        3.72788000      11.04485000       1.75524000       0.25564193      -0.23721274       0.12242327
P        4.61360000       0.49770000       0.99268000       0.17571333      -0.36765146       0.32590147
P        6.72369000      12.29329000       1.49440000       0.12931558       0.16030141      -0.26789963
P        1.11262000       9.26562000       2.14542000      -0.04798540      -0.12046019       0.46399320
P        2.73215000       8.98647000      12.36347000      -0.17498260       0.05877909      -0.15805052
P        4.43701000       9.48980000       0.29233000       0.11795572       0.31444591       0.27089996
P        5.48494000      10.53025000      11.97659000       0.01192571       0.13994420       0.08224877
P        7.33334000      10.87574000      13.19129000      -0.04507586      -0.08620193      -0.31574836
P        1.51081000       7.82933000       0.47041000      -0.12702984       0.04662660       0.14221882
P        1.47659000      10.79863000      12.58631000      -0.55574729      -0.08149461      -0.06338785
P        4.64859000       0.18512000      12.15069000       0.16468249       0.00863234      -0.18756726
P        2.53593000       0.07063000      11.60353000      -0.35163609       0.31402708      -0.35645093
P       13.33855000       7.25756000       1.39388000      -0.35740103       0.31274044      -0.18651765
P       11.16165000       7.54288000       1.75524000      -0.25578346       0.23719974       0.12245653
P       10.27593000       5.69823000       0.99268000      -0.17572402       0.36762953       0.32589940
P        8.16584000       6.29444000       1.49440000      -0.12932492      -0.16028620      -0.26789940
P       13.77690000       9.32210000       2.14542000       0.04799834       0.12054664       0.46398217
P       12.15737000       9.60125000      12.36347000       0.17510932      -0.05874957      -0.15806050
P       10.45252000       9.09792000       0.29233000      -0.11802351      -0.31434777       0.27090223
P        9.40458000       8.05747000      11.97659000      -0.01183427      -0.13985982       0.08222800
P        7.55619000       7.71199000      13.19129000       0.04499574       0.08610875      -0.31572200
P       13.37872000      10.75840000       0.47041000       0.12695770      -0.04670654       0.14219567
P       13.41294000       7.78909000      12.58631000       0.55572276       0.08161317      -0.06335742
P       10.24094000       6.01081000      12.15069000      -0.16468217      -0.00872061      -0.18757183
P       12.35360000       6.12530000      11.60353000       0.35163207      -0.31413217      -0.35647193
P        8.99570000       7.25755000       5.27962000       0.35760561       0.31286622       0.18658182
P       11.17262000       7.54288000       4.91827000       0.25563045       0.23719371      -0.12252934
P       12.05834000       5.69823000       5.68082000       0.17571596       0.36760985      -0.32577863
P       14.16843000       6.29444000       5.17911000       0.12934706      -0.16028777       0.26783522
P        8.55736000       9.32210000       4.52808000      -0.04803952       0.12051169      -0.46395924
P       10.17689000       9.60125000       7.65705000      -0.17502542      -0.05872397       0.15802203
P       11.88175000       9.09792000       6.38118000       0.11791502      -0.31431481      -0.27096688
P       12.92968000       8.05747000       8.04392000       0.01196440      -0.13979516      -0.08207473
P       14.77808000       7.71199000       6.82923000      -0.04502047       0.08614997       0.31570778
P        8.95555000      10.75840000       6.20309000      -0.12701106      -0.04675232      -0.14217301
P        8.92133000       7.78909000       7.43421000      -0.55579811       0.08156111       0.06328061
P       12.09333000       6.01082000       7.86983000       0.16464426      -0.00887496       0.18747616
P        9.98067000       6.12530000       8.41699000      -0.35163971      -0.31412502       0.35647454
P        5.89381000      11.33017000       5.27962000      -0.35740511      -0.31281088       0.18657227
P        3.71691000      11.04485000       4.91827000      -0.25579389      -0.23725691      -0.12248904
P        2.83119000       0.49770000       5.68082000      -0.17572952      -0.36764113      -0.32579699
P        0.72110000      12.29329000       5.17911000      -0.12935659       0.16030242       0.26782307
P        6.33215000       9.26562000       4.52808000       0.04808877      -0.12047705      -0.46396234
P        4.71263000       8.98647000       7.65705000       0.17518933       0.05878335       0.15804547
P        3.00778000       9.48980000       6.38118000      -0.11799896       0.31443449      -0.27099682
P        1.95984000      10.53025000       8.04392000      -0.01183006       0.13995937      -0.08211270
P        0.11145000      10.87574000       6.82923000       0.04498970      -0.08620137       0.31564277
P        5.93398000       7.82932000       6.20309000       0.12693826       0.04680764      -0.14211999
P        5.96820000      10.79864000       7.43421000       0.55567005      -0.08166568       0.06332217
P        2.79620000       0.18512000       7.86983000      -0.16477543       0.00864986       0.18748846
P        4.90885000       0.07063000       8.41699000       0.35173716       0.31406139       0.35646953
104
Lattice="12.943911 0.24864 -0.016578 0.24758 13.078507 -0.10008 -0.023239 -0.133746 16.279084" Properties=species:S:1:pos:R:3:forces:R:3 energy=-565.0806284116246 hash=e4724269cb8291177014383e86479694 virial="9.43688046502 -2.29643045408 -1.48755793306 -2.29643045408 17.2412984863 -0.689551531013 -1.48755793306 -0.689551531013 -1.39997563866" config_type=rss_3c pressure=0.0030588429534144515 uploaded="2020-04-10 10:56:53.299000" hash_structure=2f85a93544bd858272d2942ccbbe2898 filename=rss_3c/rss_3c_mbd2.xyz username=gabor stress="-0.0009979126709429922 0.00037722403853513386 0.00036081292495658486 0.00037722403853513386 -0.003765887130812311 0.0007300712678094269 0.00036081292495658486 0.0007300712678094269 -0.0056873936463459" volume=2754.658509512892 n_atoms=104 free_energy=-568.50559371 modified="2020-04-10 10:56:53.299000" formula=P104 miguel_caro=T pbc="T T T"
P       11.56466000      11.71978000       2.43582000      -0.25085179       0.20010729      -0.50273657
P       11.51399000      10.28244000       4.11301000      -0.02355259      -0.41679367      -0.10333794
P       11.50866000      11.84246000       5.67230000      -0.16087058       0.01730499       0.58814170
P       11.32961000      10.55544000       7.56835000      -0.03511897       0.18631813       0.14573561
P       11.36653000      10.43519000       0.54418000       0.10111193       0.12066812      -0.14613501
P        8.41953000      10.30399000       2.34860000       0.52504930      -0.36283998       0.05868202
P        9.47892000       9.35829000       4.07124000      -0.37684018      -0.09414503      -0.01549166
P        8.37528000      10.36833000       5.72777000       0.55776115      -0.42165017       0.10642989
P        9.52161000       9.27819000       7.32820000      -0.52087109      -0.51436753      -0.06000620
P        9.55102000       9.18788000       0.76564000      -0.52119820      -0.84276703       0.13093858
P        9.42757000      12.27072000       2.11207000       0.08373571       0.41913044       0.18019742
P        9.36073000      12.35953000       5.93696000       0.00470235       0.36843233      -0.26268922
P        8.55582000      12.90350000       3.99024000      -0.41986630       0.51768971       0.03677735
P        1.67220000       1.41810000       2.34905000       0.16089394      -0.01082364      -0.59389425
P        1.66806000       2.97743000       3.90906000       0.01468950       0.41127341       0.10981953
P        1.61706000       1.53883000       5.58569000       0.25071157      -0.19266149       0.50599248
P        1.81424000       2.82386000       7.47870000      -0.12346126      -0.13012037       0.13299332
P        1.84999000       2.70680000       0.45327000       0.03019769      -0.18262868      -0.13830858
P        4.80419000       2.89448000       2.29303000      -0.55137121       0.41833433      -0.10154189
P        3.70225000       3.90173000       3.95210000       0.38040534       0.09687106       0.01214104
P        4.76254000       2.95520000       5.67444000      -0.53030776       0.36625639      -0.06478339
P        3.62796000       4.07029000       7.25545000       0.53833263       0.86559350      -0.11834996
P        3.65850000       3.98484000       0.69258000       0.51626604       0.49906759       0.06391086
P        3.81996000       0.90254000       2.08223000      -0.00266166      -0.36985162       0.26721921
P        3.75452000       0.98849000       5.90958000      -0.08778240      -0.42165394      -0.18690042
P        4.62487000       0.35887000       4.02936000       0.42366196      -0.52791726      -0.02764467
P       11.41600000       1.89460000      13.69041000      -0.02426750       0.44539785       0.47599359
P        9.95914000       2.00931000      12.04039000      -0.55982681      -0.00794001       0.00828236
P       11.45166000       2.02195000      10.44108000      -0.09638076       0.33257494      -0.61722025
P       10.03836000       2.21202000       8.63452000       0.39980344       0.02367381      -0.22451489
P       10.04498000       2.01667000      15.52042000       0.13591769      -0.07630000       0.43186500
P        9.97948000       5.06385000      13.83963000      -0.32062233      -0.55542201       0.03023546
P        9.02188000       4.06409000      12.10844000      -0.30777165       0.02001406       0.05866234
P        9.95475000       5.17064000      10.43283000      -0.31053047      -0.43001299      -0.05036953
P        8.74879000       4.00422000       8.89693000      -0.02539443       0.59276160       0.24419967
P        8.76321000       3.83317000      15.32729000      -0.07878581       0.64945020      -0.24859064
P       11.95476000       4.03374000      14.03792000       0.36887711      -0.01751984      -0.15389503
P       11.94706000       4.18053000      10.21152000       0.38038835      -0.07027863       0.07843397
P       12.64760000       4.88573000      12.15138000       0.53222291       0.27985523       0.05840070
P        1.70872000      11.10480000      13.86087000       0.09865593      -0.32659905       0.62769791
P        3.20044000      11.11226000      12.26045000       0.55337081      -0.00970549      -0.00066568
P        1.74096000      11.23315000      10.61258000       0.02336435      -0.44719692      -0.47070982
P        3.10908000      11.10916000       8.78138000      -0.12858964       0.07510555      -0.43208075
P        3.12012000      10.91159000      15.66957000      -0.39772657      -0.01153230       0.20999374
P        3.19611000       7.95153000      13.87593000       0.31860228       0.42975293       0.02581038
P        4.12529000       9.05142000      12.19393000       0.32958848      -0.00566073      -0.06833703
P        3.16668000       8.05938000      10.45833000       0.33920680       0.55568801      -0.00958384
P        4.39014000       9.29231000       8.97700000       0.08090510      -0.64838290       0.24968666
P        4.40873000       9.11986000      15.40567000       0.01969345      -0.59617458      -0.24617926
P        1.20749000       8.94784000      14.09532000      -0.39353148       0.07848872      -0.08363344
P        1.19460000       9.09534000      10.26306000      -0.37227810       0.02460525       0.16392037
P        0.50942000       8.24536000      12.15346000      -0.54026798      -0.28576563      -0.06419859
P       10.84316000       2.22637000       2.48414000      -0.33027230      -0.00050694       0.17086728
P       11.28758000       3.80122000       3.98025000       0.51293029      -0.54770622       0.08273610