2
Lattice="20.0 0.0 0.0 0.0 20.0 0.0 0.0 0.0 20.0" Properties=species:S:1:pos:R:3:forces:R:3 energy=-8.064320374868503 cutoff=-1.0 nneightol=1.2 stress="-0.0024555567758506353 -0.0 -0.0 -0.0 -0.0 -0.0 -0.0 -0.0 -0.0" pbc="T T T"
P       10.85000000      10.00000000      10.00000000      11.55556921       0.00000000       0.00000000
P        9.15000000      10.00000000      10.00000000     -11.55556921       0.00000000       0.00000000
2
Lattice="20.0 0.0 0.0 0.0 20.0 0.0 0.0 0.0 20.0" Properties=species:S:1:pos:R:3:forces:R:3 energy=-8.864817952930135 cutoff=-1.0 nneightol=1.2 stress="-0.0010663756716968503 -0.0 -0.0 -0.0 -0.0 -0.0 -0.0 -0.0 -0.0" pbc="T T T"
P       10.90000000      10.00000000      10.00000000       4.73945518       0.00000000       0.00000000
P        9.10000000      10.00000000      10.00000000      -4.73945518       0.00000000       0.00000000
4
Lattice="20.0 0.0 0.0 0.0 20.0 0.0 0.0 0.0 20.0" Properties=species:S:1:pos:R:3:forces:R:3 energy=-11.595503631056909 cutoff=-1.0 nneightol=1.2 stress="-0.003932728123537343 -0.0 -0.0 -0.0 -0.003932728123537421 6.88338275267597e-17 -0.0 6.88338275267597e-17 -0.003156997809227025" pbc="T T T"
P       11.10000000      10.00000000       9.57218260      14.30085543       0.00000000     -14.75864387
P        8.90000000      10.00000000       9.57218260     -14.30085543       0.00000000     -14.75864387
P       10.00000000      11.10000000      10.42781740       0.00000000      14.30085543      14.75864387
P       10.00000000       8.90000000      10.42781740       0.00000000     -14.30085543      14.75864387
4
Lattice="20.0 0.0 0.0 0.0 20.0 0.0 0.0 0.0 20.0" Properties=species:S:1:pos:R:3:forces:R:3 energy=-17.180925673805945 cutoff=-1.0 nneightol=1.2 stress="0.0005585675850216442 -0.0 -0.0 -0.0 0.0005585675850216916 4.352074256530614e-17 -0.0 4.352074256530614e-17 0.001822717960718294" pbc="T T T"
P       11.10000000      10.00000000       8.82218260      -2.03113057       0.00000000       3.09506301
P        8.90000000      10.00000000       8.82218260       2.03113057       0.00000000       3.09506301
P       10.00000000      11.10000000      11.17781740       0.00000000      -2.03113057      -3.09506301
P       10.00000000       8.90000000      11.17781740       0.00000000       2.03113057      -3.09506301
4
Lattice="20.0 0.0 0.0 0.0 20.0 0.0 0.0 0.0 20.0" Properties=species:S:1:pos:R:3:forces:R:3 energy=-16.078223926305377 cutoff=-1.0 nneightol=1.2 stress="0.0014312331413554816 -2.168404344971009e-22 -0.0 -2.168404344971009e-22 0.0014312331413554754 1.4829804051430528e-16 -0.0 1.4829804051430528e-16 -0.0001016656436105822" pbc="T T T"
P       11.10000000      10.00000000       8.37218260      -5.20446052       0.00000000      -0.12492526
P        8.90000000      10.00000000       8.37218260       5.20446052       0.00000000      -0.12492526
P       10.00000000      11.10000000      11.62781740       0.00000000      -5.20446052       0.12492526
P       10.00000000       8.90000000      11.62781740       0.00000000       5.20446052       0.12492526
248
Lattice="19.207643 0.0 0.0 0.0 19.207643 0.0 0.0 0.0 19.207643" Properties=species:S:1:pos:R:3:forces:R:3 energy=-1311.0607979763065 hash=0a52d05be110f62b0b8ba1dd06f580af virial="0.494352900131 -7.65209813893 7.72109612803 -7.65209813893 14.1363610828 -13.2346104406 7.72109612803 -13.2346104406 19.6957855958" config_type=liq_12_03_01_liqP4 pressure=0.0016146784108647724 uploaded="2020-04-10 10:56:38.097000" hash_structure=7256de5227695c2198da4cf346617eea filename=liq_12_03_01_liqP4/liq_12_03_01_liqP4_mbd2.xyz username=gabor stress="-0.0004709944000747969 0.0007907871255454535 -0.0011753463913636093 0.0007907871255454535 -0.001882674195814776 0.002182786541328891 -0.0011753463913636093 0.002182786541328891 -0.0028603652653300354" volume=7086.343911736328 n_atoms=248 free_energy=-1310.85738039 modified="2020-04-10 10:56:38.097000" formula=P248 miguel_caro=T pbc="T T T"
P       19.07786000       1.83802000       2.14603000       0.82946287       0.50222490      -0.13315496
P        1.84009000       2.77358000       1.36927000      -1.02344469      -1.20345444       0.82749748
P        1.74336000       0.66243000       2.09671000      -0.26956064      -0.70864865      -1.16128088
P        1.56765000       2.19952000       3.55407000      -0.12739854       0.79984953      -0.18321208
P       17.28258000      18.89348000       5.16478000      -0.21194606       0.76034281       0.71911946
P       15.20283000      18.88955000       4.58162000      -0.45658531       0.57213483      -1.65472920
P       16.13352000       1.63244000       5.24472000      -0.24188614      -0.58694281      -0.72424827
P       15.56991000       0.04130000       6.60745000       0.88554923      -0.27470450       1.34499891
P        2.46893000       6.49209000       9.63336000      -0.58542724       0.58281534       0.22770366
P        0.67446000       6.85221000      11.06187000       1.05215641       1.16721616       0.50771512
P        1.57443000       4.92107000      10.78613000       1.11480962      -2.03311814       1.85731023
P        0.45238000       5.76483000       9.27418000      -1.67062612      -0.24497804      -3.03708827
P        2.46336000      18.93916000      13.69707000      -0.34860973       0.96606411       0.14525349
P        0.72883000       0.26124000      12.17388000       1.45245285      -1.57868783       1.63126926
P        1.05738000      17.37769000      13.20124000      -0.42648579       0.66245161      -0.93822558
P        2.49231000      18.17408000      11.69484000       0.02994034      -0.46615585      -0.64996074
P        1.38800000       9.37700000       6.05427000       0.23436876      -0.41288456      -0.95079241
P        2.10276000       9.39052000       3.85828000      -1.65554105       0.16241559       1.54327455
P        1.78441000      11.24473000       4.98965000      -0.50389757      -0.19371501      -0.15366420
P       19.02665000      10.08705000       4.61127000       2.77259662      -0.45305142      -0.47864538
P       17.12988000       8.17216000       9.35508000      -1.06328520      -0.07464783      -0.59757002
P       16.12170000       6.39269000       8.45186000      -0.01738390       0.39136984      -0.05017649
P       15.74389000       8.45077000       7.56637000       0.30606758      -1.42156532       0.84772338
P       14.90429000       7.89065000       9.53083000       0.57621050      -0.03029964       0.28316445
P        3.95699000       6.81330000      12.71951000      -1.13978415       0.40358007       0.34050022
P        5.58345000       8.01383000      12.12671000       2.03784899       0.77843637       0.49949350
P        4.26220000       8.76199000      13.83772000       0.09158748      -0.52738953      -2.07704800
P        3.67527000       8.78640000      11.58075000      -0.67856183      -0.29911558       1.32924062
P        1.01983000       8.93949000      14.88483000      -1.80266467      -0.49553487      -0.53109358
P        2.45900000       8.55236000      16.32550000       0.63471949      -1.12165210       1.46810358
P        1.53976000       6.79518000      15.20026000       0.16178716       0.90452092       0.69139922
P        0.39531000       7.81703000      16.83387000       0.50280164       0.60045239      -1.27742410
P        6.11089000      12.48537000       4.19445000       0.87584693      -2.65787014       1.44873068
P        5.05776000      13.62600000       2.84621000      -0.75228998       2.00854175      -0.90219264
P        6.35435000      14.57964000       4.48239000      -0.67080587       0.33628011      -0.30406586
P        4.35606000      13.64102000       4.95309000       0.68057822      -0.35378439      -0.41801187
P        9.90000000      12.31790000       7.53923000      -0.65067816       0.77645726      -0.01988095
P        8.94634000      14.24892000       6.79370000      -0.30758966      -1.35907798       0.94120229
P        8.91260000      13.71602000       9.04242000      -1.00237502      -1.14168926      -2.64839130
P        7.66022000      12.40318000       7.32798000       1.61516841       1.77831544       1.59844559
P        2.69679000      14.27808000      15.94839000      -1.28064385      -0.49826569      -0.46321260
P        2.86109000      12.91954000      14.26064000       1.47910503      -0.04365742      -1.49500722
P        1.32900000      14.50106000      14.14683000       0.34634430      -0.26577468       0.52477454
P        1.11737000      12.66089000      15.38832000      -0.67825560       0.64890110       1.24571574
P        0.19580000      11.36124000      18.52324000      -0.74542955      -0.16425928      -1.08739324
P        0.73462000      13.00233000       0.61568000      -0.18673102      -0.09480290       0.41703606
P        1.50957000      10.97325000       0.94404000       0.79753382      -0.11495294       0.65104177
P       18.60458000      11.35195000       1.36954000       0.21066890       0.44235749      -0.21691875
P        1.19715000      17.04527000       4.98874000       0.96731958      -0.09797236       0.50332837
P       18.42777000      16.21705000       5.00572000      -0.69914912      -1.16034318       1.09509037
P        0.94096000      14.88444000       4.38589000      -0.08228684       0.32942394       0.69613072
P        0.21693000      16.52856000       3.16165000      -0.06913045       0.46900703      -2.07270833
P        1.01236000       9.92171000       9.41814000      -0.37587470      -1.65868900       0.17675043
P        2.74727000      11.18371000       9.52578000      -0.16610536       0.69521268       0.71691393
P        0.64855000      11.77436000      10.43653000       1.85892259       0.78818466      -0.14068871
P        1.06560000      11.70892000       8.28212000      -0.27016690       1.05332145      -1.35239390
P        3.80117000      14.58010000       9.21055000       1.58558801       0.11272342       2.11023218
P        2.24618000      16.10580000       9.15115000      -0.20583428      -0.57186786      -1.05561084
P        3.10839000      14.84849000       7.29066000      -1.70170315       1.82818043      -0.58194201
P        4.19877000      16.60672000       8.25185000      -0.15217342      -1.13324751       0.10364056
P       18.95602000      17.58850000      16.76564000       2.26842509      -0.06220322      -0.42806891
P        0.17738000      16.52856000      18.76414000      -1.27528040       1.35389376      -1.03336982
P       17.30463000      17.17667000      17.94221000      -0.77123650      -1.20906823       1.50140998
P       18.68312000      18.71819000      18.61599000       0.56897413      -0.34416010       0.21042261
P        3.75807000       6.26861000      18.83772000      -0.66692129       0.49965865       0.50622159
P        2.61018000       7.54484000       1.11055000       0.12480541       0.29502460      -0.53076147
P        3.24836000       5.54686000       1.67318000      -0.30275062      -0.09460104      -0.30856007
P        1.62066000       5.81509000       0.21568000       0.60582812       0.16323924      -0.28797304
P        5.73652000       1.66169000       1.67546000      -0.16949086       1.06773076       0.95946159
P        6.35060000       3.33481000       0.45547000      -0.11502203       0.56109269      -1.84861547
P        7.57211000       2.81834000       2.13116000       1.52531897      -1.30039010      -0.46841326
P        5.87254000       3.90499000       2.45391000      -2.76663903       0.15367168       0.59863843
P        5.42576000       3.49020000      10.25292000       0.75631855       1.06742749       0.50991066
P        7.27570000       2.17394000      10.41615000      -1.91772421       0.01172414      -1.00037665
P        5.46932000       1.76824000       8.99459000       0.57359429      -1.18024159       0.27577896
P        5.29405000       1.57762000      11.22531000       0.06124581      -0.45687266      -0.14472387
P        3.35427000       1.64202000      17.24673000      -0.12642631       1.44680335      -0.18753645
P        3.59075000       3.92502000      16.73871000      -0.83818538      -0.98739421       0.21760999
P        2.51259000       2.49734000      15.35809000       0.37267323       0.37473672       0.34389314
P        4.70537000       2.43007000      15.66162000      -0.43055135      -1.07672070       0.63973498
P        6.00329000       7.31035000       2.68615000       0.64010025       0.30178033       0.50814166
P        5.65367000       9.45857000       3.28249000       0.30191423      -0.62611415       0.04548840
P        5.80178000       8.87166000       1.18198000      -0.15325010       0.09273479      -0.81567575
P        7.62584000       8.86331000       2.39779000      -0.86292588      -0.47823084       0.73124874
P        4.12384000       5.69345000       5.02247000      -0.35926429      -0.32600673      -0.11626631
P        2.54302000       4.19741000       5.60064000      -0.33304428       0.56470487      -0.35367066
P        3.89429000       5.02163000       7.08019000       0.42822941      -0.01768226       0.80956631
P        4.63139000       3.59978000       5.52944000       0.29344008      -0.24782390       0.37092742
P        7.16902000       4.87340000      14.62399000      -0.06513656      -0.34653344      -0.90557764
P        7.99426000       2.85086000      14.67026000      -0.61712144      -0.23613519       0.94155420
P        8.00457000       3.76558000      12.78294000       0.14721967       1.88388455      -0.69022702
P        6.05554000       3.22750000      13.59782000       0.68517879       0.69345007      -0.38201499
P        5.93879000       7.92982000      16.15797000       0.70599860       0.00180018       0.20686738
P        7.04761000       9.53081000      17.26331000       0.37423531      -0.60763262      -1.31011802
P        7.50927000       9.02606000      14.99429000       0.36562206      -0.97619540       2.47600116
P        8.04625000       7.56964000      16.84954000      -0.62534045       1.28339097      -1.41162610
P        4.94900000       8.97033000       8.68462000       0.01304866       2.86750697       3.04841657
P        4.30612000       8.13572000       6.96665000      -1.77186203      -2.15433533      -2.79257448
P        6.42211000       8.21559000       7.41553000       1.18967755      -0.16289507      -1.53792550
P        5.27188000      10.02001000       6.64058000       0.56649078      -0.11638954       1.35952413
P       12.80679000      14.04805000      13.05353000       0.33552371      -1.31942857      -1.34510689
P       10.75922000      14.57376000      12.07256000       0.62159014      -0.99281004      -0.46665347
P       12.40551000      15.95804000      12.13510000       0.80807673       1.32126297      -0.47389900
P       11.41981000      15.30227000      13.95082000      -1.13176776       1.78624213       1.92475911
P        8.03025000      13.40002000      12.30374000      -1.78637265      -0.60818019      -0.08423198
P        6.64961000      11.78925000      13.22450000       0.83060526       0.28113529      -1.33266502
P        7.13134000      11.85532000      10.93656000       0.78949365      -0.88107986       0.86146742
P        5.78934000      13.24394000      11.81660000       0.01464713       1.24512259       0.58980012
P        4.09323000      13.02198000      18.91425000       1.20265032      -0.69370560      -0.94548574
P        5.98284000      11.70095000      18.94398000       0.05941226       1.33290141       0.40094456
P        5.46713000      12.80773000      17.08314000      -0.01629693       0.73661546       0.86636752
P        4.32896000      11.12687000      17.74827000      -1.80400427      -0.89311043      -0.19830600
P        5.05559000      16.96031000       4.90175000      -0.86404715       1.84311691      -1.68956636
P        5.77822000      17.89196000       2.94540000       0.22529054      -0.33028218       0.52125609
P        4.94873000      19.19351000       4.50598000      -0.22241010      -0.26509002      -0.00141938
P        3.61741000      17.96637000       3.18682000       0.96901130      -0.54394236       1.46851645
P        0.99805000       0.25706000       8.63286000       0.19021657       0.28033405      -0.38083353
P        1.84415000       2.32447000       8.51112000       0.04891581      -0.70737665      -0.52919389
P        2.82366000       0.61126000       7.39644000      -0.38791015       0.31485285       0.43615662
P        0.88468000       1.38543000       6.71146000      -0.00418394       0.11775956       0.38167478
P        5.76379000      16.61532000      12.49207000       1.68707709       0.59324906      -0.40654348
P        6.89284000      18.36218000      13.30051000       0.07061540      -0.39189381      -0.62435889
P        8.05816000      17.05147000      11.85371000      -2.30995225      -0.08450240       0.79978145
P        7.45823000      16.35327000      13.88960000       0.02078656      -0.11481909      -0.61429093
P        5.17089000      18.70417000      18.39844000       0.09069784      -0.23583373      -0.21389909
P        4.29921000      17.60734000      16.68145000      -0.86737192       0.58450228      -0.22497113
P        3.66363000      17.11822000      18.77146000       0.48227737      -0.03046280      -0.75398475
P        5.69981000      16.61851000      17.92467000       0.10186894      -0.47684096       1.19547032
P       11.22598000       4.75562000       0.52796000      -0.76541220      -0.47920528       1.00388129
P        9.93014000       6.37344000      19.08786000       0.54764179       0.69999419       0.62756715
P       11.47311000       6.67458000       1.53461000       0.31150060       0.69197181      -0.69636800
P        9.59330000       5.70135000       1.96221000       0.20848396      -1.07525443      -0.62782774
P       13.37881000       1.11059000       9.08733000       0.42131939      -0.24293446       0.36692667
P       11.75761000       0.80025000       7.67933000      -0.28600962      -1.05832474      -0.78109157
P       12.14276000       2.75668000       8.37330000      -0.11050463       1.26712728       1.10357565
P       11.29240000       1.22808000       9.80404000       0.23782627       0.74268642      -1.47791461
P       12.24635000       1.09512000      12.66199000      -0.91107523      -0.91438399      -0.17294799
P       11.42555000      18.95326000      14.18471000      -0.56788086      -0.19686017      -0.29076263
P       10.49367000      18.88655000      12.07665000       1.10949013       0.55166852       1.90801727
P       10.20658000       1.44516000      13.47368000       0.90840508      -1.28289367      -0.70310525
P        8.86675000       2.64612000      17.78822000       1.04876193      -1.64723795       0.35817390
P        8.52097000       0.89704000      16.51900000      -0.98227124      -0.90374229      -0.59835398
P        9.08289000       0.40184000      18.52637000       0.84192981       1.21985455      -0.07199884
P       10.58322000       1.28693000      17.01063000      -0.84500437       0.45016396       1.29448817
P       11.96338000       8.97750000       5.44827000      -0.58666873       1.01879387       1.29497645
P       11.69152000       9.50398000       3.42885000      -0.56163490       0.20234854      -1.24632328
P       11.37769000      11.17190000       4.84640000      -0.31923249      -1.72278264       0.48923981
P        9.87307000       9.44157000       4.74175000       1.40677875       0.51727663      -0.24035372
P        7.55811000       3.09112000       7.15441000       0.34031534      -0.19165607      -1.00121493
P        9.65009000       3.68199000       6.76873000      -0.04828691       0.01954138      -0.22603080
P        8.06466000       5.18320000       6.92929000      -0.01399328       0.55433075      -0.38080341
P        8.19354000       3.92545000       5.11067000      -0.19252021      -0.10560740       1.30596253
P       10.81156000       6.90340000      10.11828000      -0.38469921       0.07794183      -1.27091088
P        9.33618000       7.97780000      11.22671000      -0.71349060       0.79330164       1.47602467
P        8.63184000       6.58352000       9.72151000      -0.30664091      -1.43791280       0.48961683
P        9.40589000       8.45430000       9.11547000       1.35040436       0.56752970      -0.34197543
P       13.15428000      10.56645000      14.22044000      -0.27382735       0.86715523       0.64225580
P       11.21571000      10.51292000      13.24626000      -0.41228755      -0.18676727       0.29130822
P       11.48807000      12.07750000      14.81499000       0.60951380      -0.78924875      -0.36352152
P       11.39912000       9.96333000      15.40614000      -0.43665900      -0.50733189      -0.32666653
P        9.55008000       9.70564000       0.50564000      -0.25910538       0.17602125      -0.87607575
P       11.43249000      10.57081000      19.07062000       0.32388480       0.43778158      -0.40888133
P       10.21666000      11.61198000       1.32834000       0.48435328       0.32072044       1.70643692
P        9.55110000      11.64830000      18.54070000      -0.22883058      -1.22457324      -1.17130341
P       12.88308000      10.26326000       8.96941000      -1.90249246      -1.25333041      -0.51546555
P       13.99480000      12.01897000       9.03791000       0.76968815       1.51300981       0.92750058
P       13.95881000      10.62830000      10.80361000      -1.33950549       1.19182227      -0.45356202
P       12.06924000      11.99888000      10.20258000       1.82631269      -1.71724548      -0.17342720
P       16.11458000      17.37923000      12.66646000       0.38534089      -0.45022912      -0.21063452
P       16.28637000      15.86478000      14.30823000       0.88963641       0.50719819      -0.22406261
P       16.92145000      18.09185000      14.61581000      -0.55360822      -1.24780785      -0.46319006
P       14.82067000      17.41593000      14.39838000      -0.80401343       0.99518285       0.41354153
P       15.10673000      12.38953000      16.69332000       0.87909438       0.97524768      -0.47431145
P       15.92314000      13.81202000      18.29684000      -1.42660703      -0.62114757      -1.11551349
P       13.82737000      12.92986000      18.28495000      -0.00546675       0.95244578       0.82391684
P       14.33578000      14.52693000      16.79253000       0.73148816      -1.14118136       0.79759809
P        8.85910000      14.38026000       2.94845000      -0.24032205      -0.06738527       0.70932843
P       10.02418000      16.07734000       3.91173000      -0.27290083      -1.19610922      -2.57185383
P        9.32493000      16.02121000       1.59164000      -0.15060712       0.97585396       1.40232669
P       10.85001000      14.66000000       2.24194000       1.30038352       0.24114004       0.69618861
P        7.35910000      17.10546000       8.34280000       0.89585771      -0.15470069      -0.16637848
P        8.86465000      17.63154000       6.71042000       0.23731580      -1.33666959      -0.06895087
P        8.81610000      18.82140000       8.52222000      -1.69919009       0.11634467      -0.53377028
P        7.05385000      18.75987000       6.95397000       0.13661869       1.23574608       0.69967547
P       15.89359000      10.95022000      12.93066000       1.19313702       0.51587667      -0.05513593
P       17.86874000      10.90178000      11.83193000      -1.54620278      -0.70166261      -0.73790137
P       17.90694000      11.16431000      13.90770000      -0.24581249       0.48487222       1.39075052
P       17.15663000      12.81163000      12.64841000      -0.09611072      -0.51309633       0.19888051
P        9.02317000      16.54675000      17.69035000      -0.91913890      -0.99595651      -0.28840185
P       10.10480000      14.82033000      16.90386000       0.53659500      -0.51347609       0.68798356
P        8.02054000      14.93310000      16.35162000       0.32138227       0.34499243       1.01319786
P        8.52372000      14.43449000      18.50218000       0.56816911       1.10949569      -1.23798405
P        9.98052000       0.91229000       4.78868000      -0.48799750      -0.24848356      -1.09817989
P        9.76943000      19.03733000       2.71946000       1.57266476       0.84004779       1.53312466
P       11.78431000       0.93543000       3.55416000      -1.39367073      -0.58574368      -0.99914207
P        9.91124000       1.98745000       2.78328000       2.21403662      -0.37737132       1.09150412
P       16.41151000       3.71180000      11.35452000      -0.09815732      -1.03381775       0.00562990
P       16.02521000       1.47939000      11.39098000      -2.08185652      -0.30273678       1.35658422
P       17.96472000       2.11518000      11.00496000       1.03656927       1.29893753      -0.98906430
P       16.29290000       2.44114000       9.51842000       0.68203271       0.59635876      -0.49530876
P       17.78877000       1.72056000      14.44572000       0.25781561      -0.05337990      -0.15029061
P       18.37134000       1.89136000      16.57890000      -1.47407486       0.31867513      -0.05567810
P       16.38994000       2.88979000      15.70916000       1.88043915      -0.33642677       0.35986066
P       18.50470000       3.63685000      15.30711000      -0.61750588       0.45126939      -0.36495542
P       12.32407000       5.95145000      14.41021000       0.55129310       2.27449992      -1.35114236
P       11.59373000       4.69360000      15.89847000       0.19191038      -1.80517259      -0.00931082
P       13.66084000       4.34281000      14.92716000      -0.09251040      -0.22217728       0.97751983
P       11.89696000       3.91373000      13.74073000      -0.62827573       0.92788599       0.49084978
P        0.22156000       6.28063000       3.02048000      -0.64639403       0.98241788       1.42946491
P       17.67966000       6.87054000       4.55448000       1.43513388      -0.09583915      -0.96178254
P       17.40846000       5.51499000       2.84815000      -0.66065203       0.55451644      -0.52854652
P       17.81947000       7.75472000       2.49021000      -0.31440401      -1.40751181       0.16654907
P       14.09780000       3.98284000       6.20048000       0.05328918       0.04260948       0.40231404
P       12.36285000       4.29617000       4.90383000       1.20750765       1.61849104       0.56593967
P       14.42100000       5.29084000       4.47173000      -1.83396224       0.40775574       1.24870786
P       13.09669000       5.99980000       6.41213000       0.61311366      -1.88326432      -2.48524754
P       15.72891000       8.22235000      14.34060000      -0.63184589       1.59723845      -0.51915314
P       15.03467000       6.77304000      12.76465000       0.59694866       1.06960923      -0.44446117
P       16.11610000       6.19548000      14.51760000       1.79192676      -1.80401966      -0.10189612
P       17.25029000       7.45975000      12.87041000      -1.75744129      -0.98079293       1.19962544
P       15.87546000       1.93586000       0.19323000       0.63182748      -1.29782632      -0.23185877
P       16.16498000       4.02419000      18.94146000       0.21715480       0.59932731      -0.23761237
P       14.52177000       3.36155000       1.02344000      -0.65865958       0.61576733       0.41824422
P       14.46105000       2.92363000      18.07343000      -0.10304036       0.25805336       0.28110202
P       14.24185000      15.90057000       2.23156000      -0.19348865      -1.20839299       0.14278461
P       15.75255000      15.02278000       3.57084000       1.53739802      -0.15566714      -0.56156916
P       14.53652000      13.62016000       2.34641000       0.69381006       0.36213154      -1.33408384
P       13.74989000      14.61396000       4.00151000      -2.33573760       0.91999745       1.61210989
P       17.36657000      12.14807000       5.20848000      -0.11581336       0.09042583       0.11328759
P       16.67008000      11.03775000       7.02773000       0.14597470       2.23783778       0.05644736
P       15.71051000      10.68473000       5.17485000      -0.15807206       0.92491155      -0.82704659
P       15.44099000      12.86230000       5.95187000       0.29202022      -1.65685577       0.56987645
P       16.63801000      14.76949000       9.99372000       0.40769856      -0.40053209      -0.94647535
P       17.62311000      16.67805000       9.67581000      -0.01498683       1.05823299      -0.72283827
P       18.22682000      15.03718000       8.30414000      -1.44826090       0.15929126      -0.74315537
P       18.79349000      15.01723000      10.30507000       1.28277965      -0.75877450       2.21236358
P       14.25793000       8.24436000       0.29885000       0.74647722      -0.46501332       0.36452711
P       15.29435000       9.56155000      18.04078000      -0.86128962      -1.10552090      -0.30766956
P       13.39339000       8.37584000      17.54196000       0.39849841       0.59831624      -0.56199093
P       15.31600000       7.31613000      17.73457000      -0.05168473       0.35559380       0.63372177
P       12.09672000      17.65250000      19.19712000       0.75211815      -2.36593311      -0.74451987
P       13.07278000       0.20349000      18.74188000       0.71525031       1.95627902      -1.44484793
P       13.11498000      17.77546000      17.07300000      -0.75985664       0.86171673       1.97119644
P       14.42997000      17.70393000      18.86940000      -1.47499243      -0.34199929       0.45293231
P       14.12663000      16.08888000       7.23556000       1.05817102      -0.48390248       0.81341487
P       12.52932000      15.00409000       8.35433000       0.05717634       0.31162020      -1.05515657
P       12.14626000      16.78241000       6.97946000      -1.04820032      -0.08062894       0.83392679
P       13.10301000      16.99928000       9.01336000       0.07445042       0.08690057      -0.58858545
248