6
Lattice="1.5951578479909057 -2.7628944388124803 0.0 1.5951578479909057 2.7628944388124803 0.0 0.0 0.0 14.879004" Properties=species:S:1:pos:R:3:castep_forces:R:3 task_id=mp-2815 mp_E=-7.574405446666667 spacegroup=P6_3/mmc theoretical=F castep_energy=-5086.252652 castep_stress="_JSON [[-1.0266685764948449, -0.0, 0.0], [-0.0, -1.0246892488421588, 0.0], [0.0, 0.0, -0.46518865746976645]]" x=0.6666666666666666 stoi=1.9999999999999998 pbc="T T T"
Mo       1.59515785       0.92096481       3.71975100      -0.00000000      -0.00005000      -0.39430000
Mo       1.59515785      -0.92096481      11.15925300       0.00000000       0.00005000      -0.39431000
S        1.59515785      -0.92096481       5.28463537      -0.00000000      -0.00005000       0.39431000
S        1.59515785       0.92096481      12.72413737       0.00000000       0.00005000       0.39430000
S        1.59515785      -0.92096481       2.15486663       0.00000000       0.00024000      -0.00001000
S        1.59515785       0.92096481       9.59436863       0.00000000      -0.00024000       0.00001000
