24
Lattice="3.305833142507371 0.3681588669526169 0.34323298562879095 1.8110097804000487 13.02558009205898 -3.4180753947103715 1.8110097804000505 -2.498026903458217 13.232869595373732" Properties=species:S:1:pos:R:3:initial_magmoms:R:1:castep_labels:S:1:forces:R:3 n_minim_iter=1 energy=-126.2520934998014 stress="0.0026441399420514262 -0.0014629778615688881 -0.0013639282010728193 -0.0014629778615688881 0.007197601231290583 -0.002006403115526289 -0.0013639282010728193 -0.002006403115526289 0.007479149807115144" free_energy=-126.2520934998014 pbc="T T T"
P        1.59852173       7.43149927      -0.37851694       0.00000000 NULL      -0.58674518      -0.05666509      -0.22213835
P        3.25143831       0.32662473       7.61138377       0.00000000 NULL      -0.58674518      -0.22555961      -0.04097857
P        4.36904499       2.88723567       9.66937143       0.00000000 NULL      -0.18446552      -0.35666387       0.29928207
P        2.71612842       9.66365836       2.03177504       0.00000000 NULL      -0.18446552       0.27358507      -0.37673610
P        4.53220886       8.45688179       2.03204963       0.00000000 NULL       0.00625368      -0.04347488       0.33756016
P        2.87929229       2.43488789       8.12230208       0.00000000 NULL       0.00625368       0.33368952      -0.06699425
P        4.71450343       8.78601652       9.09385632       0.00000000 NULL      -0.15719777      -0.22868969       0.32710803
P        6.36742000       9.87057180       8.29960363       0.00000000 NULL      -0.15719777       0.31029975      -0.25102331
P        3.98448554       0.02714472      10.48531044       0.00000000 NULL       0.42133061      -0.32033719       0.24826043
P        2.33156897      10.27741736      -0.87840994       0.00000000 NULL       0.42133061       0.22523106      -0.33692747
P        2.83899857       9.38483720      -2.94065533       0.00000000 NULL      -0.12205240       0.21357840       0.07577744
P        4.49191514      -2.09251543       9.73925668       0.00000000 NULL      -0.12205240       0.09054006       0.20775094
P        3.35346935       6.18156866       0.18593845       0.00000000 NULL       0.24361453      -0.32657659       0.03067873
P        1.70055278       0.43405381       5.98177895       0.00000000 NULL       0.24361453       0.00774626      -0.32792293
P        1.67285910       4.41464501       1.41425319       0.00000000 NULL       0.11829881      -0.08448569       0.02707963
P        3.32577568       1.90384739       4.47645108       0.00000000 NULL       0.11829881       0.02110003      -0.08617382
P        2.16355174      -0.28521576      11.77564373       0.00000000 NULL       0.24209368       0.32778551      -0.07753653
P        3.81646831      11.91088292      -0.93708243       0.00000000 NULL       0.24209368      -0.05440453       0.33240848
P        3.61234560       1.40602228       2.32012040       0.00000000 NULL      -0.07299640      -0.14163062       0.13164559
P        1.95942903       2.22875939       1.06857147       0.00000000 NULL      -0.07299640       0.12140996      -0.15049723
P        2.87212122       6.13659182       6.70125427       0.00000000 NULL      -0.02181423       0.04997802       0.00126505
P        4.52503779       7.29840279       5.82413550       0.00000000 NULL      -0.02181423       0.00475993       0.04976692
P        1.41018671       4.94444544       3.62593084       0.00000000 NULL       0.11368019       0.20920290      -0.36595838
P        3.06310328       4.14718223       4.85015595       0.00000000 NULL       0.11368019      -0.35041872       0.23430346
24
Lattice="3.29715383343942 0.3713751642404724 0.34623152625859577 1.8217513339666034 12.915945081073511 -3.3575337076425207 1.8217513339666038 -2.4453070888663104 13.119266106623606" Properties=species:S:1:pos:R:3:initial_magmoms:R:1:castep_labels:S:1:forces:R:3 n_minim_iter=2 energy=-126.29584087995549 stress="-0.003917811628644518 -0.001105587383721844 -0.0010307345437704485 -0.001105587383721844 -0.0007859157123744966 -0.0004888482559037216 -0.0010307345437704485 -0.0004888482559037216 -0.0007173180676464392" free_energy=-126.29584087995549 pbc="T T T"
P        1.60410894       7.37326902      -0.35674699       0.00000000 NULL      -0.57888102       0.05053632      -0.42476595
P        3.25268586       0.34587388       7.55327191       0.00000000 NULL      -0.57888102      -0.42018722       0.08014194
P        4.37517983       2.89201402       9.60220015       0.00000000 NULL      -0.27663419      -0.28261132       0.43836634
P        2.72660291       9.59537809       2.03974374       0.00000000 NULL      -0.27663419       0.41751122      -0.31259971
P        4.53573198       8.40062464       2.04161546       0.00000000 NULL       0.02702543      -0.14053629       0.48313496
P        2.88715506       2.43888465       8.06401411       0.00000000 NULL       0.02702543       0.47211395      -0.17400648
P        4.72845473       8.74281942       9.04529734       0.00000000 NULL      -0.13471194      -0.20412477       0.36998976
P        6.37703165       9.82071666       8.26141039       0.00000000 NULL      -0.13471195       0.35479564      -0.22951994
P        3.98962684       0.05624376      10.40421105       0.00000000 NULL       0.42114647      -0.19709418       0.16508634
P        2.34104992      10.19694535      -0.84520535       0.00000000 NULL       0.42114647       0.15088678      -0.20816530
P        2.84119533       9.30774581      -2.89052902       0.00000000 NULL      -0.09586046       0.02038836       0.02226952
P        4.48977225      -2.04629956       9.66034525       0.00000000 NULL      -0.09586046       0.02364190       0.01877970
P        3.35445283       6.13697324       0.20340700       0.00000000 NULL       0.27930246      -0.48514201       0.03741366
P        1.70587591       0.44675012       5.93457099       0.00000000 NULL       0.27930246       0.00336660      -0.48657088
P        1.67754068       4.38480152       1.41491022       0.00000000 NULL       0.12925775      -0.01642654      -0.02887232
P        3.32611759       1.90402220       4.44813406       0.00000000 NULL       0.12925775      -0.02995122      -0.01436547
P        2.17516860      -0.25230749      11.67956798       0.00000000 NULL       0.22383218       0.34447475       0.04385996
P        3.82374552      11.81895419      -0.89603121       0.00000000 NULL       0.22383218       0.06786234       0.34056021
P        3.60731806       1.40550151       2.30964249       0.00000000 NULL      -0.06137941      -0.25536511       0.10658734
P        1.95874115       2.21666257       1.06728606       0.00000000 NULL      -0.06137941       0.08845283      -0.26219897
P        2.88383678       6.10696292       6.66328372       0.00000000 NULL      -0.03265709      -0.08429834       0.17987138
P        4.53241369       7.26005976       5.79873612       0.00000000 NULL      -0.03265709       0.17353020      -0.09668089
P        1.41988188       4.91548188       3.60801837       0.00000000 NULL       0.09955983       0.32138461      -0.39667514
P        3.06845880       4.12889466       4.82401638       0.00000000 NULL       0.09955983      -0.37320850       0.34835994
24
Lattice="3.3323996330025496 0.3860030743554132 0.35986906622556564 1.8833642359009517 12.871784405992678 -3.2983041625953513 1.8833642359009517 -2.38931362023972 13.07106822595181" Properties=species:S:1:pos:R:3:initial_magmoms:R:1:castep_labels:S:1:forces:R:3 n_minim_iter=3 energy=-126.32687722410157 stress="0.0038391981748506655 0.0009192572453084267 0.0008570197075096712 0.0009192572453084267 -0.0013069045346734472 -1.4867056244514678e-05 0.0008570197075096712 -1.4867056244514678e-05 -0.0013048183123645998" free_energy=-126.32687722410157 pbc="T T T"
P        1.64697860       7.35548214      -0.32913154       0.00000000 NULL      -0.56711366       0.01092929      -0.40924993
P        3.31317842       0.37949065       7.54041460       0.00000000 NULL      -0.56711366      -0.40748137       0.03954607
P        4.46899903       2.92921544       9.59680042       0.00000000 NULL      -0.34857972      -0.31314025       0.33080071
P        2.80279922       9.58528140       2.07041310       0.00000000 NULL      -0.34857972       0.30807264      -0.33552521
P        4.62630403       8.39891512       2.08184151       0.00000000 NULL       0.06091083      -0.02808054       0.52078720
P        2.96010421       2.47157845       8.05267457       0.00000000 NULL       0.06091083       0.51754468      -0.06446181
P        4.85049228       8.76147399       9.06085754       0.00000000 NULL      -0.13389787      -0.05474406       0.21872448
P        6.51669209       9.84485830       8.28574892       0.00000000 NULL      -0.13389787       0.21435654      -0.06991844
P        4.07535324       0.10397401      10.38401877       0.00000000 NULL       0.47382111      -0.10673852       0.17881292
P        2.40915342      10.17282929      -0.80299765       0.00000000 NULL       0.47382111       0.17090374      -0.11899195
P        2.89777851       9.28177746      -2.83947988       0.00000000 NULL      -0.06007816      -0.05388491       0.00583591
P        4.56397833      -1.98987919       9.63768640       0.00000000 NULL      -0.06007816       0.00205017      -0.05416123
P        3.41749290       6.12935281       0.23557323       0.00000000 NULL       0.28723352      -0.46441600       0.04920580
P        1.75129309       0.47099015       5.91789914       0.00000000 NULL       0.28723352       0.01658045      -0.46672103
P        1.72039280       4.38210444       1.42990272       0.00000000 NULL       0.12646881       0.00988579      -0.09715561
P        3.38659262       1.92610312       4.45121303       0.00000000 NULL       0.12646881      -0.09622544       0.01666151
P        2.24574496      -0.20377016      11.64498482       0.00000000 NULL       0.14984492       0.34444902       0.01635614
P        3.91194478      11.79516695      -0.83837365       0.00000000 NULL       0.14984492       0.04042417       0.34245954
P        3.65794576       1.42243105       2.32126951       0.00000000 NULL      -0.04930922      -0.24994837       0.07405752
P        1.99174595       2.22213203       1.07654153       0.00000000 NULL      -0.04930922       0.05638191      -0.25451873
P        2.96693381       6.11980791       6.67034566       0.00000000 NULL      -0.04603984      -0.07406329       0.14756594
P        4.63313363       7.27531737       5.81787410       0.00000000 NULL      -0.04603984       0.14202034      -0.08420987
P        1.47158188       4.91892097       3.61277172       0.00000000 NULL       0.10673927       0.28304458      -0.28843834
P        3.13778169       4.14119101       4.83393312       0.00000000 NULL       0.10673927      -0.26792057       0.30253839
24
Lattice="3.2994732121890586 0.41282904603294934 0.38487880842595973 1.9253060283485746 12.889756678659523 -3.1262945613508024 1.925306028348575 -2.2164679573154706 13.076957395111952" Properties=species:S:1:pos:R:3:initial_magmoms:R:1:castep_labels:S:1:forces:R:3 n_minim_iter=4 energy=-126.47463280939802 stress="-0.0006271377271258105 0.0016049199533294885 0.0014962602177796343 0.0016049199533294885 0.0018383569223052517 0.0037437638338187725 0.0014962602177796343 0.0037437638338187725 0.0013130131686191798" free_energy=-126.47463280939802 pbc="T T T"
P        1.64072337       7.38969585      -0.24709778       0.00000000 NULL      -0.26163231       0.11482791       0.23621135
P        3.29045998       0.47713085       7.58130770       0.00000000 NULL      -0.26163231       0.24366894       0.09801378
P        4.47810123       3.07616204       9.70034465       0.00000000 NULL      -0.41998335      -0.38940134       0.10474286
P        2.82836462       9.68544357       2.19724735       0.00000000 NULL      -0.41998335       0.07723162      -0.39577740
P        4.64347475       8.48310931       2.24934116       0.00000000 NULL       0.06383689       0.02186005      -0.02169107
P        2.99373815       2.63114714       8.11243404       0.00000000 NULL       0.06383689      -0.02010788       0.02332461
P        4.89908324       8.93557849       9.23752193       0.00000000 NULL      -0.10162303       0.24839466      -0.05673735
P        6.54881985      10.04668809       8.45956651       0.00000000 NULL      -0.10162303      -0.03921296       0.25175659
P        4.11796679       0.25602199      10.44003269       0.00000000 NULL       0.46623406       0.04481522      -0.04444056
P        2.46823018      10.22593477      -0.66774786       0.00000000 NULL       0.46623406      -0.04119494       0.04781573
P        2.90320207       9.29867066      -2.70636889       0.00000000 NULL      -0.00437071      -0.23539170       0.17005601
P        4.55293868      -1.84249929       9.65772655       0.00000000 NULL      -0.00437071       0.15316381      -0.24671674
P        3.43546197       6.15156224       0.33770306       0.00000000 NULL       0.12543403      -0.37301247      -0.03710287
P        1.78572537       0.56101099       5.92040113       0.00000000 NULL       0.12543403      -0.06311919      -0.36950087
P        1.74503459       4.42754773       1.49686847       0.00000000 NULL       0.08380196      -0.04381792      -0.05118452
P        3.39477120       2.00949823       4.50436279       0.00000000 NULL       0.08380196      -0.05412584      -0.04012804
P        2.30040004      -0.01938240      11.68016715       0.00000000 NULL       0.06377667       0.29242844       0.10522141
P        3.95013665      11.85658137      -0.64439563       0.00000000 NULL       0.06377667       0.12543057       0.28434681
P        3.63641980       1.46731992       2.37055315       0.00000000 NULL      -0.03180447      -0.25978798       0.06660531
P        1.98668319       2.26102362       1.10536606       0.00000000 NULL      -0.03180447       0.04825930      -0.26381263
P        3.01096054       6.24504491       6.78861344       0.00000000 NULL      -0.05329283      -0.07852834       0.16356704
P        4.66069714       7.41547350       5.94703123       0.00000000 NULL      -0.05329283       0.15766968      -0.08978389
P        1.51437933       5.01005018       3.67372765       0.00000000 NULL       0.06962310       0.16187821      -0.10351161
P        3.16411593       4.22178862       4.93307739       0.00000000 NULL       0.06962310      -0.09192784       0.16872606
24
Lattice="3.3026499258270254 0.39594413674558354 0.36913707748587676 1.896488337184083 12.831504617715954 -3.2535077551194718 1.8964883371840833 -2.3474462692308458 13.027751896630615" Properties=species:S:1:pos:R:3:initial_magmoms:R:1:castep_labels:S:1:forces:R:3 n_minim_iter=5 energy=-126.54817086568315 stress="0.000899190089697035 -0.0004485737841297367 -0.00041820347101835775 -0.0004485737841297367 -0.0009440634448838343 -0.0011663144160620606 -0.00041820347101835775 -0.0011663144160620606 -0.0007804003440449997" free_energy=-126.54817086568315 pbc="T T T"
P        1.60045337       7.33950804      -0.33938632       0.00000000 NULL       0.02420575      -0.09941009       0.30237616
P        3.25177834       0.37311351       7.52983141       0.00000000 NULL       0.02420575       0.29467688      -0.12032975
P        4.43373539       2.92561144       9.61655348       0.00000000 NULL      -0.11836095      -0.26949791       0.19197510
P        2.78241043       9.59976324       2.06080140       0.00000000 NULL      -0.11836095       0.17264203      -0.28227343
P        4.61930964       8.38636780       2.14805046       0.00000000 NULL      -0.22027795       0.10604380      -0.14371151
P        2.96798468       2.53177631       8.03089003       0.00000000 NULL      -0.22027795      -0.13593703       0.11584218
P        4.84595842       8.76036537       9.08882015       0.00000000 NULL      -0.10431502       0.38401717      -0.19007802
P        6.49728339       9.87764527       8.28731991       0.00000000 NULL      -0.10431502      -0.16273435       0.39637907
P        4.11074022       0.12570720      10.37693756       0.00000000 NULL       0.19972019       0.29784896      -0.15682098
P        2.45941525      10.16231604      -0.78545615       0.00000000 NULL       0.19972019      -0.13558982       0.30809450
P        2.88376909       9.25502980      -2.79799913       0.00000000 NULL       0.02472080      -0.33576051      -0.07708920
P        4.53509406      -1.94540172       9.61273508       0.00000000 NULL       0.02472080      -0.10040018      -0.32954160
P        3.42996209       6.07955495       0.26121479       0.00000000 NULL      -0.09384772      -0.30034479      -0.14330580
P        1.77863713       0.48811293       5.86179473       0.00000000 NULL      -0.09384772      -0.16397563      -0.28957821
P        1.73388522       4.37599878       1.43488335       0.00000000 NULL       0.02666066       0.09276743      -0.19502242
P        3.38521019       1.93561473       4.44940775       0.00000000 NULL       0.02666066      -0.18805132       0.10618965
P        2.27608291      -0.13816098      11.61539191       0.00000000 NULL       0.25536248       0.30567618       0.29895957
P        3.92740787      11.77520916      -0.76622014       0.00000000 NULL       0.25536248       0.31962083       0.28400225
P        3.62866739       1.41159396       2.33562371       0.00000000 NULL      -0.00523361      -0.21430151      -0.14789834
P        1.97734242       2.23072200       1.06009235       0.00000000 NULL      -0.00523361      -0.16253470      -0.20342450
P        2.97404851       6.11907498       6.68406420       0.00000000 NULL      -0.04671242       0.07757888       0.00675717
P        4.62537347       7.29392149       5.82081681       0.00000000 NULL      -0.04671242       0.01217038       0.07691569
P        1.49364487       4.94293343       3.58576598       0.00000000 NULL       0.05807778      -0.00819916       0.21479507
P        3.14496984       4.12090268       4.86441085       0.00000000 NULL       0.05807778       0.21369446      -0.02321265
24
Lattice="3.293247709434201 0.42435340129961463 0.3956229170722238 1.9779208989647177 12.773491556589034 -3.2108410820013944 1.9779208989647183 -2.3089445894983918 12.966894843513824" Properties=species:S:1:pos:R:3:initial_magmoms:R:1:castep_labels:S:1:forces:R:3 n_minim_iter=6 energy=-126.76417113539263 stress="-4.9212911319298313e-05 0.0020919456277692003 0.001950312247215395 0.0020919456277692003 -4.411226771330861e-05 -0.0025786660260052508 0.001950312247215395 -0.0025786660260052508 0.00031773911507874855" free_energy=-126.76417113539263 pbc="T T T"
P        1.62198241       7.30775041      -0.30209374       0.00000000 NULL       0.20274779      -0.37011933       0.06941519
P        3.26860627       0.42229654       7.50878446       0.00000000 NULL       0.20274779       0.04334014      -0.37407007
P        4.48083565       2.90064524       9.63893956       0.00000000 NULL      -0.15666903      -0.21201366       0.16820349
P        2.83421179       9.60614239       2.02108670       0.00000000 NULL      -0.15666903       0.15295207      -0.22326637
P        4.67613400       8.38749987       2.18821961       0.00000000 NULL      -0.35124197       0.27337906       0.04742930
P        3.02951015       2.55772155       8.01596494       0.00000000 NULL      -0.35124197       0.06644691       0.26938904
P        4.96207033       8.79556889       9.07921954       0.00000000 NULL      -0.10774008      -0.40739485       0.42645035
P        6.60869419       9.88473675       8.33635196       0.00000000 NULL      -0.10774008       0.39689080      -0.43624323
P        4.23962331       0.18973500      10.34654153       0.00000000 NULL       0.20730355       0.40519848       0.01112133
P        2.59299946      10.12227125      -0.73270086       0.00000000 NULL       0.20730355       0.03945408       0.40342641
P        2.92762215       9.18907763      -2.75171844       0.00000000 NULL       0.16192784       0.01688820      -0.25036751
P        4.57424601      -1.88964591       9.55694837       0.00000000 NULL       0.16192784      -0.24857151       0.03437012
P        3.47902706       6.01284741       0.27909680       0.00000000 NULL      -0.08988114      -0.08823498      -0.10127776
P        1.83240320       0.48707756       5.78075629       0.00000000 NULL      -0.08988114      -0.10720500      -0.08093012
P        1.78984100       4.37346565       1.42283531       0.00000000 NULL      -0.02409541       0.09865843      -0.21431852
P        3.43646486       1.93762357       4.46096700       0.00000000 NULL      -0.02409541      -0.20688779       0.11341674
P        2.40333852      -0.05239696      11.60135848       0.00000000 NULL       0.14051545       0.23335329      -0.04335404
P        4.04996237      11.78141744      -0.66644132       0.00000000 NULL       0.14051545      -0.02691521       0.23581540
P        3.63803966       1.39729884       2.34712590       0.00000000 NULL       0.02053169      -0.17689870      -0.19611163
P        1.99141581       2.22699083       1.03178433       0.00000000 NULL       0.02053169      -0.20801192      -0.16273894
P        3.06610133       6.11678288       6.68754174       0.00000000 NULL      -0.05360094       0.13668035      -0.06801869
P        4.71272519       7.31143471       5.83152985       0.00000000 NULL      -0.05360094      -0.05828557       0.14110582
P        1.57685215       4.95023881       3.57939722       0.00000000 NULL       0.05020225      -0.08179544       0.33564015
P        3.22347600       4.12926548       4.88538698       0.00000000 NULL       0.05020225       0.32909215      -0.10508646
24
Lattice="3.311282253055551 0.4025909900666218 0.3753339112856459 1.920198396821026 12.665026145815235 -3.0672199229430963 1.920198396821027 -2.173267181061322 12.84864331708233" Properties=species:S:1:pos:R:3:initial_magmoms:R:1:castep_labels:S:1:forces:R:3 n_minim_iter=7 energy=-126.85957867935164 stress="0.0017949376050408466 -0.0008423009849222663 -0.0007852737163824648 -0.0008423009849222663 -0.0014023056476708178 0.0005028527303335368 -0.0007852737163824648 0.0005028527303335368 -0.001472868480489302" free_energy=-126.85957867935164 pbc="T T T"
P        1.56732462       7.25345432      -0.22435075       0.00000000 NULL       0.27457504      -0.24207457       0.07446643
P        3.22296575       0.48516746       7.43903576       0.00000000 NULL       0.27457504       0.05734091      -0.24669286
P        4.40484649       2.93128914       9.59912153       0.00000000 NULL       0.16130334      -0.28101356       0.16395731
P        2.74920537       9.57944799       2.06458683       0.00000000 NULL       0.16130333       0.14388697      -0.29179986
P        4.62216570       8.34281558       2.23742459       0.00000000 NULL      -0.64517201       0.18222789       0.01896106
P        2.96652458       2.61455959       7.97809085       0.00000000 NULL      -0.64517201       0.03166877       0.18045391
P        4.86058771       8.82718949       9.08759030       0.00000000 NULL      -0.07129707      -0.58899453       0.54396111
P        6.51622884       9.88441891       8.35716465       0.00000000 NULL      -0.07129707       0.50140314      -0.62562220
P        4.22722732       0.28212034      10.25384971       0.00000000 NULL       0.01535945       0.35068239      -0.01434903
P        2.57158619      10.04715404      -0.62391003       0.00000000 NULL       0.01535945       0.01023057       0.35082670
P        2.90019554       9.07874720      -2.65835670       0.00000000 NULL       0.12933284       0.11893092      -0.12802852
P        4.55583667      -1.81511640       9.43020957       0.00000000 NULL       0.12933284      -0.11939053       0.12760003
P        3.46095699       5.93249303       0.31088280       0.00000000 NULL      -0.20300299      -0.11577842       0.01907169
P        1.80531586       0.52404278       5.70851876       0.00000000 NULL      -0.20300299       0.01092154      -0.11682933
P        1.76594048       4.35849818       1.43743546       0.00000000 NULL      -0.08435124       0.00877184      -0.18674189
P        3.42158161       1.94025913       4.43486986       0.00000000 NULL      -0.08435124      -0.18566999       0.02182048
P        2.36056688       0.08333763      11.52774957       0.00000000 NULL       0.35226402       0.23190070      -0.14946388
P        4.01620800      11.70660796      -0.53603218       0.00000000 NULL       0.35226402      -0.13286651       0.24179304
P        3.63546453       1.36891644       2.31787159       0.00000000 NULL       0.05494062      -0.21996526      -0.07186632
P        1.97982340       2.20670297       1.01566356       0.00000000 NULL       0.05494062      -0.08708555      -0.21439587
P        2.99319564       6.13969270       6.69678854       0.00000000 NULL      -0.04839129       0.01501243       0.06421522
P        4.64883677       7.31138110       5.84359180       0.00000000 NULL      -0.04839129       0.06510847       0.01048116
P        1.53408690       4.96259910       3.60215451       0.00000000 NULL       0.06443930       0.01414992       0.23017656
P        3.18972803       4.14195085       4.88597966       0.00000000 NULL       0.06443930       0.23060245      -0.00199494
24
Lattice="3.3063184873565103 0.40155193033260644 0.37436520020256175 1.9269871565679677 12.551099961852186 -3.0663815089456716 1.926987156567969 -2.180404568030798 12.734937837717165" Properties=species:S:1:pos:R:3:initial_magmoms:R:1:castep_labels:S:1:forces:R:3 n_minim_iter=8 energy=-127.15145643781197 stress="0.0032794519103233667 -0.00027549307462960867 -0.00025684105013114734 -0.00027549307462960867 -0.00244187859179351 -0.0008800709873410046 -0.00025684105013114734 -0.0008800709873410046 -0.0023183826094647897" free_energy=-127.15145643781197 pbc="T T T"
P        1.54993971       7.15778715      -0.21055464       0.00000000 NULL       0.24262503      -0.35092975      -0.18731109
P        3.20309895       0.49171443       7.34215324       0.00000000 NULL       0.24262503      -0.21141347      -0.33695916
P        4.36247431       2.79723938       9.56467100       0.00000000 NULL       0.05400872      -0.14142734       0.19586067
P        2.70931507       9.53621928       1.93376137       0.00000000 NULL       0.05400872       0.18548179      -0.15478889
P        4.55601112       8.28452522       2.21300970       0.00000000 NULL      -0.44411752       0.19898418       0.12210041
P        2.90285188       2.58664434       7.92213661       0.00000000 NULL      -0.44411752       0.13572797       0.18995034
P        4.83812499       8.71443017       9.03152484       0.00000000 NULL      -0.03008363       0.07002128      -0.08338392
P        6.49128423       9.82007934       8.24812154       0.00000000 NULL      -0.03008363      -0.07827862       0.07568565
P        4.31085842       0.31305586      10.15708358       0.00000000 NULL      -0.17649663       0.29921896      -0.05228191
P        2.65769917       9.95330993      -0.58579332       0.00000000 NULL      -0.17649662      -0.03121123       0.30214441
P        2.91092536       8.96726828      -2.66352056       0.00000000 NULL       0.16203556      -0.01412673       0.02067522
P        4.56408461      -1.82858959       9.31888110       0.00000000 NULL       0.16203556       0.01963578      -0.01553915
P        3.45698367       5.79347191       0.27946628       0.00000000 NULL      -0.22904583       0.10523603       0.13795770
P        1.80382443       0.48349268       5.57252178       0.00000000 NULL      -0.22904583       0.14498490       0.09532224
P        1.77667520       4.32142736       1.37598642       0.00000000 NULL      -0.13987313      -0.13408637      -0.09474241
P        3.42983445       1.87584665       4.40170645       0.00000000 NULL      -0.13987313      -0.10389483      -0.12712648
P        2.43919965       0.14568008      11.44913775       0.00000000 NULL       0.35727608       0.10643276      -0.25026836
P        4.09235889      11.63203277      -0.46882489       0.00000000 NULL       0.35727608      -0.24220534       0.12368815
P        3.62893513       1.28730026       2.28056933       0.00000000 NULL       0.14751494      -0.07366081      -0.11584160
P        1.97577589       2.16429937       0.93734268       0.00000000 NULL       0.14751494      -0.12071307      -0.06537236
P        2.98697984       6.07305663       6.64118605       0.00000000 NULL      -0.03083682      -0.01519939       0.01941257
P        4.64013909       7.25073156       5.78052643       0.00000000 NULL      -0.03083682       0.01830115      -0.01652081
P        1.56258401       4.93145836       3.57617816       0.00000000 NULL       0.08699322       0.06609671       0.16279853
P        3.21574325       4.11333912       4.85624903       0.00000000 NULL       0.08699322       0.16702543       0.05454028
24
Lattice="3.317768521934158 0.3924320650155605 0.36586278756963436 1.9144046300233204 12.4643450227358 -3.053149070770978 1.9144046300233217 -2.173276597509917 12.647469506777396" Properties=species:S:1:pos:R:3:initial_magmoms:R:1:castep_labels:S:1:forces:R:3 n_minim_iter=9 energy=-127.27705903677428 stress="0.005647946212482733 -0.0007738820186916132 -0.000721487005755656 -0.0007738820186916132 -0.0029077506717861998 -0.0008760880633231627 -0.000721487005755656 -0.0008760880633231627 -0.0027848136008398394" free_energy=-127.27705903677428 pbc="T T T"
P        1.53697190       7.06936947      -0.22408972       0.00000000 NULL       0.12528277      -0.04280942       0.15421049
P        3.19585616       0.46746421       7.25064851       0.00000000 NULL       0.12528277       0.15083607      -0.05349770
P        4.32189664       2.71486106       9.53680520       0.00000000 NULL       0.04675490       0.03097400      -0.00819962
P        2.66301238       9.50721604       1.85778661       0.00000000 NULL       0.04675490      -0.00601163       0.03147193