16
Lattice="7.672176133596448 0.1716784031827639 -1.1409096956050095 0.04870771057785097 7.02940974472951 -1.618695939766179 -4.1141223386160926 -4.371538175472214 7.85495259001865" Properties=species:S:1:pos:R:3:initial_magmoms:R:1:castep_labels:S:1:forces:R:3 n_minim_iter=1 energy=-84.45903056058089 stress="0.0006530101893534154 0.0012595356011341613 -0.0007497274068074811 0.0012595356011341613 0.0039069511507096 -0.0011461251171646727 -0.0007497274068074811 -0.0011461251171646727 0.002165529837918359" free_energy=-84.45903056058089 pbc="T T T"
P        4.32794983       1.75480201       2.28088559       0.00000000 NULL      -0.10781327       0.18947084       0.00407741
P        3.40656747       0.21733613      -0.41299582       0.00000000 NULL      -0.25907606      -0.19141458      -0.24866578
P        1.80950288      -1.15034479       5.51506370       0.00000000 NULL      -0.16009198      -0.20228790      -0.04747414
P        0.33740488       5.67620327      -0.78781147       0.00000000 NULL      -0.18056624      -0.06602510       0.09229753
P        3.08806310       4.15781416      -0.20851565       0.00000000 NULL       0.03900260      -0.08599978      -0.01008709
P        5.21680494       0.07259799       1.12306926       0.00000000 NULL       0.08294310      -0.14927993       0.37152116
P        2.72649017       0.00493927       3.03768829       0.00000000 NULL       0.06120376       0.02778330       0.21673328
P        1.07343010       3.38305598       2.06249884       0.00000000 NULL       0.16646174      -0.08806417      -0.00945113
P       -0.37539918       0.63045617       3.16275872       0.00000000 NULL      -0.04857901      -0.02000876       0.06223503
P        2.52451961      -3.22080741       5.20550188       0.00000000 NULL      -0.10788839       0.22500115      -0.00276053
P        0.04531585       0.83337345       0.96695591       0.00000000 NULL       0.13549809      -0.07816526      -0.12397846
P        2.33388599       1.31615077       1.24042247       0.00000000 NULL      -0.14228091       0.15694439      -0.07743951
P        0.83473565       5.69934601       1.51210118       0.00000000 NULL       0.14083203       0.17280566      -0.12248475
P        4.17244706       2.52463718      -1.15851530       0.00000000 NULL       0.11744318       0.02492500      -0.20416729
P        4.35208782      -1.46805763       2.55607548       0.00000000 NULL       0.09310364       0.21753800       0.02708856
P        2.21388765       5.28930718      -1.91986009       0.00000000 NULL       0.16980770      -0.13322287       0.07255572
16
Lattice="7.664197339638186 0.15641796351675724 -1.1298651168776992 0.03546744432271642 6.990881895629421 -1.6034955496595606 -4.0956560663868125 -4.3305561183301755 7.8220141863442825" Properties=species:S:1:pos:R:3:initial_magmoms:R:1:castep_labels:S:1:forces:R:3 n_minim_iter=2 energy=-84.46722794332794 stress="-0.0020316458963097654 0.0004089360794952088 -5.973502520091943e-05 0.0004089360794952088 -0.0014178638324440329 -0.000376129406157047 -5.973502520091943e-05 -0.000376129406157047 -0.0012121267332377609" free_energy=-84.46722794332794 pbc="T T T"
P        4.32316573       1.74282271       2.28130639       0.00000000 NULL      -0.08281208       0.28160270       0.02397168
P        3.40187557       0.20923600      -0.40911428       0.00000000 NULL      -0.21468368      -0.16383687      -0.28279341
P        1.81465226      -1.13994418       5.49925029       0.00000000 NULL      -0.11648926      -0.09729088      -0.02457863
P        0.32626651       5.64512527      -0.77636304       0.00000000 NULL      -0.21269064      -0.18333498       0.08324906
P        3.07849911       4.13076433      -0.19868575       0.00000000 NULL       0.01068499      -0.12923603       0.02602920
P        5.21364471       0.06472060       1.12655712       0.00000000 NULL       0.11401521      -0.10856304       0.28727676
P        2.72737146       0.00507978       3.03258237       0.00000000 NULL       0.07577667       0.04845365       0.25186834
P        1.06960056       3.36670226       2.06273142       0.00000000 NULL       0.16282594      -0.07193461      -0.02950491
P       -0.37319769       0.63251575       3.15458540       0.00000000 NULL      -0.07260451       0.00721671       0.11603567
P        2.53237140      -3.19978716       5.18834042       0.00000000 NULL      -0.06358042       0.13921958       0.01484386
P        0.04537911       0.83017525       0.96502058       0.00000000 NULL       0.13100122       0.03493681      -0.19437946
P        2.33037748       1.30802373       1.24086546       0.00000000 NULL      -0.13527992       0.19021064      -0.12009132
P        0.82664291       5.67170253       1.51670273       0.00000000 NULL       0.09700439       0.09544423      -0.11344173
P        4.16402053       2.50316747      -1.14812258       0.00000000 NULL       0.08759259       0.00164958      -0.17602218
P        4.35365721      -1.46304254       2.55099077       0.00000000 NULL       0.08722735       0.14032400       0.10272395
P        2.20203154       5.25515121      -1.90400466       0.00000000 NULL       0.13201214      -0.18486147       0.03481311
16
Lattice="7.6979123780860625 0.13404206794152962 -1.1222917073318002 0.016075819457810735 6.981184602392648 -1.5881872162131212 -4.095326134334799 -4.298193620382978 7.81280151765158" Properties=species:S:1:pos:R:3:initial_magmoms:R:1:castep_labels:S:1:forces:R:3 n_minim_iter=3 energy=-84.47434698781178 stress="0.0020209642152337055 -0.0014696860212123353 0.00031407450765496306 -0.0014696860212123353 -0.0004632629696829576 0.0012782425466100087 0.00031407450765496306 0.0012782425466100087 0.000518735176885683" free_energy=-84.47434698781178 pbc="T T T"
P        4.33992603       1.73847709       2.29157828       0.00000000 NULL      -0.09417732       0.21128003      -0.05768725
P        3.41398108       0.19746372      -0.40845976       0.00000000 NULL      -0.17878370      -0.09294717      -0.17859505
P        1.83014855      -1.13224967       5.50172437       0.00000000 NULL      -0.10619201      -0.11846818      -0.02375571
P        0.31021735       5.63610400      -0.76239381       0.00000000 NULL      -0.10511299      -0.20598340       0.09776880
P        3.08212149       4.11765521      -0.18581186       0.00000000 NULL       0.06356799      -0.16830212       0.01169990
P        5.23985565       0.05260537       1.13639561       0.00000000 NULL       0.04837490       0.02962034       0.25578209
P        2.74387291       0.00565587       3.04015086       0.00000000 NULL       0.11010188       0.04025264       0.19114092
P        1.06991432       3.36507833       2.07279950       0.00000000 NULL       0.21673713      -0.04959675       0.02071558
P       -0.37400736       0.64029718       3.15887592       0.00000000 NULL      -0.05957210      -0.03180342       0.05600370
P        2.55670657      -3.18960929       5.18702470       0.00000000 NULL      -0.14449924       0.13810685      -0.02180208
P        0.04596395       0.83159874       0.96569344       0.00000000 NULL       0.15936525       0.03419948      -0.19609992
P        2.33746444       1.30588532       1.24595175       0.00000000 NULL      -0.01503467       0.12570291      -0.11924756
P        0.81874903       5.66969537       1.53050166       0.00000000 NULL       0.07147576       0.07398214      -0.12345200
P        4.17669057       2.48781822      -1.14079584       0.00000000 NULL       0.02597311       0.07447227      -0.13685670
P        4.38109493      -1.46515800       2.55468129       0.00000000 NULL      -0.01444607       0.10820546       0.13126697
P        2.19839296       5.23875980      -1.89018099       0.00000000 NULL       0.02222207      -0.16872108       0.09311832
16
Lattice="7.686709547949282 0.18157716056341955 -1.1035967659222123 0.05196264011426246 6.994891936096127 -1.6106721607417562 -4.09899759045879 -4.357564347807964 7.792206592464597" Properties=species:S:1:pos:R:3:initial_magmoms:R:1:castep_labels:S:1:forces:R:3 n_minim_iter=4 energy=-84.50173283637741 stress="0.0004418972593481509 0.002529094316914924 0.0016739472147951776 0.002529094316914924 -0.0016068643641574776 -0.0008187306106041837 0.0016739472147951776 -0.0008187306106041837 0.00019611600453485175" free_energy=-84.50173283637741 pbc="T T T"
P        4.33786571       1.78200202       2.28266780       0.00000000 NULL      -0.17969739       0.02001401      -0.06037915
P        3.38554646       0.20202385      -0.42832345       0.00000000 NULL       0.00787644      -0.18066884      -0.01513333
P        1.81813223      -1.16032146       5.48517735       0.00000000 NULL       0.02017103       0.46918162      -0.03867606
P        0.32072716       5.62733102      -0.77175630       0.00000000 NULL       0.14449292       0.03194920      -0.12698542
P        3.10507926       4.12417006      -0.19449695       0.00000000 NULL       0.08954017       0.16138507       0.16938826
P        5.24547346       0.06982001       1.17534275       0.00000000 NULL       0.06098822       0.24136866      -0.02769522
P        2.75641120       0.01310596       3.05912200       0.00000000 NULL      -0.15504077       0.24731760      -0.03775751
P        1.11270319       3.35822449       2.05235064       0.00000000 NULL       0.00619172      -0.09323042      -0.15941486
P       -0.37109278       0.62436475       3.15270167       0.00000000 NULL      -0.04695975      -0.00200015      -0.11824519
P        2.53373683      -3.18227237       5.18461261       0.00000000 NULL       0.16638463      -0.26030990       0.05597504
P        0.06884258       0.83011551       0.93791761       0.00000000 NULL      -0.01142786      -0.17127074       0.11780646
P        2.33360998       1.33323666       1.22746884       0.00000000 NULL       0.05189053      -0.02775142       0.10739038
P        0.86334208       5.68531392       1.48928674       0.00000000 NULL       0.08749576       0.08100251      -0.02111995
P        4.19104891       2.52209059      -1.15753633       0.00000000 NULL      -0.15760855      -0.31963261      -0.01014772
P        4.37808426      -1.43646501       2.57065264       0.00000000 NULL       0.04583399      -0.13211892       0.14931967
P        2.23253014       5.24478504      -1.89273051       0.00000000 NULL      -0.13013108      -0.06523568       0.01567461
16
Lattice="7.6711453391973485 0.16680888452885256 -1.1186834673720156 0.041475269843177925 7.008339896154444 -1.608921495914558 -4.097846372509054 -4.358113707007418 7.791023516372703" Properties=species:S:1:pos:R:3:initial_magmoms:R:1:castep_labels:S:1:forces:R:3 n_minim_iter=5 energy=-84.50600074920733 stress="-0.0012070667504386155 0.0006880743845256512 0.00012913838887926461 0.0006880743845256512 0.00020378910281928687 -0.00043596535911658024 0.00012913838887926461 -0.00043596535911658024 -0.0010492422666982704" free_energy=-84.50600074920733 pbc="T T T"
P        4.31762068       1.77968491       2.26985498       0.00000000 NULL      -0.08011469      -0.00155966      -0.05653439
P        3.37585213       0.19342581      -0.43783482       0.00000000 NULL      -0.02170775      -0.15351238       0.00188499
P        1.80303008      -1.16599304       5.47367479       0.00000000 NULL       0.08063107       0.41409573      -0.02949937
P        0.30921405       5.63564841      -0.77102463       0.00000000 NULL       0.13986207       0.08684059      -0.17674475
P        3.09109247       4.12496479      -0.20024797       0.00000000 NULL       0.10258764       0.11124603       0.15373439
P        5.23196873       0.05992784       1.16589695       0.00000000 NULL       0.00326111       0.28074812      -0.01900725
P        2.74394004       0.00906906       3.05166998       0.00000000 NULL      -0.10522849       0.21814765      -0.06935726
P        1.10138816       3.36131526       2.04654682       0.00000000 NULL      -0.06073544      -0.10694448      -0.26763467
P       -0.37923679       0.62601156       3.14984102       0.00000000 NULL       0.01501714      -0.03142531      -0.11835691
P        2.52232727      -3.19269975       5.17267847       0.00000000 NULL       0.23990383      -0.17176816       0.14629268
P        0.06672735       0.83103710       0.93480029       0.00000000 NULL      -0.05327852      -0.25576375       0.12231976
P        2.32221297       1.33291002       1.21989137       0.00000000 NULL       0.06007271      -0.04345020       0.05522984
P        0.84834979       5.69605978       1.48378963       0.00000000 NULL       0.04491219       0.06447207       0.01716869
P        4.17910799       2.51797249      -1.16711074       0.00000000 NULL      -0.21605187      -0.28348022       0.02035914
P        4.36600925      -1.44677184       2.55976135       0.00000000 NULL       0.04196731      -0.08326381       0.20266246
P        2.22167339       5.24829505      -1.89434410       0.00000000 NULL      -0.19109832      -0.04438222       0.01748262
16
Lattice="7.661869615985113 0.16361319573267702 -1.154997499515614 0.04293934349313226 6.9758072001770115 -1.6354076426085955 -4.11814988578927 -4.352386170013357 7.859674549742892" Properties=species:S:1:pos:R:3:initial_magmoms:R:1:castep_labels:S:1:forces:R:3 n_minim_iter=6 energy=-84.52193273025043 stress="-0.001923037616818462 0.0002498998830521669 -0.0009849528132412327 0.0002498998830521669 -0.0028475157632161107 -0.0015521641845884376 -0.0009849528132412327 -0.0015521641845884376 0.003077368369708158" free_energy=-84.52193273025043 pbc="T T T"
P        4.29087021       1.77358982       2.25646108       0.00000000 NULL       0.01098073       0.10507636       0.00501127
P        3.35966494       0.17771512      -0.46522597       0.00000000 NULL       0.01586232      -0.07212691       0.14727746
P        1.77621917      -1.16355264       5.49592858       0.00000000 NULL      -0.00735563       0.33212455      -0.01420401
P        0.30656237       5.60231015      -0.79323654       0.00000000 NULL       0.15529395      -0.05205243      -0.18115167
P        3.09088933       4.09902853      -0.21640562       0.00000000 NULL       0.05176644       0.08395577       0.05275428
P        5.22203325       0.06384245       1.16609335       0.00000000 NULL      -0.08372383       0.12656694      -0.01320015
P        2.72744320       0.01126940       3.06548453       0.00000000 NULL      -0.05860299       0.20774079      -0.16737451
P        1.09737768       3.32982530       2.03337756       0.00000000 NULL      -0.01717455      -0.05827021      -0.22073667
P       -0.39405658       0.61249881       3.16503705       0.00000000 NULL       0.06828809       0.04784727      -0.19631655
P        2.50364928      -3.19034565       5.20426269       0.00000000 NULL       0.21195289      -0.15364916       0.16264073
P        0.06828336       0.81378324       0.93299862       0.00000000 NULL      -0.18959621      -0.10866471       0.19492868
P        2.31172884       1.32712919       1.21051064       0.00000000 NULL       0.04931338      -0.11753155       0.02924343
P        0.84414066       5.67006792       1.46806861       0.00000000 NULL       0.03078327      -0.04289514       0.02586552
P        4.16805375       2.49511705      -1.20366639       0.00000000 NULL      -0.09718191      -0.18856526      -0.01953030
P        4.35247744      -1.44521813       2.57473012       0.00000000 NULL       0.08177111       0.00448783       0.13785024
P        2.21707612       5.21331484      -1.92136887       0.00000000 NULL      -0.22237707      -0.11404413       0.05694224
16
Lattice="7.677681226758009 0.19120875898993062 -1.1373868171203323 0.06793350478573455 6.996003861345692 -1.6100045718347598 -4.138508306221637 -4.373755017174914 7.761062824993155" Properties=species:S:1:pos:R:3:initial_magmoms:R:1:castep_labels:S:1:forces:R:3 n_minim_iter=7 energy=-84.54154542721673 stress="-0.0014109174771029186 0.0019471303360084845 0.0002518652326695119 0.0019471303360084845 5.161196847470249e-05 0.0004993458853006841 0.0002518652326695119 0.0004993458853006841 -0.0018040935776960309" free_energy=-84.54154542721673 pbc="T T T"
P        4.29108494       1.82165513       2.22568778       0.00000000 NULL      -0.01304957       0.02414696       0.07503643
P        3.34416631       0.16376377      -0.47692592       0.00000000 NULL       0.08066535      -0.12525501       0.20626317
P        1.77223465      -1.13083264       5.42528816       0.00000000 NULL      -0.02176541      -0.06842886       0.05234020
P        0.32694919       5.60745306      -0.78592802       0.00000000 NULL       0.04720685      -0.00414365      -0.18232302
P        3.12691442       4.11763507      -0.19483966       0.00000000 NULL       0.09628973       0.06538800       0.12986239
P        5.23940950       0.10600550       1.18299072       0.00000000 NULL      -0.12461431       0.00031437      -0.18928796
P        2.73558432       0.04923007       3.04381372       0.00000000 NULL      -0.07801372       0.05243794      -0.19665676
P        1.12923725       3.33016947       1.98886617       0.00000000 NULL       0.08642835       0.03759282      -0.10691250
P       -0.39483473       0.61176685       3.12223467       0.00000000 NULL       0.03641312       0.06365082       0.07294449
P        2.50928795      -3.18614792       5.15430664       0.00000000 NULL      -0.01821040       0.08834849       0.04132271
P        0.08033620       0.79651345       0.91670420       0.00000000 NULL      -0.22790718       0.04184079      -0.01697652
P        2.32156885       1.35022637       1.19171789       0.00000000 NULL      -0.06214408      -0.22380729      -0.07016433
P        0.88129589       5.70653907       1.44508226       0.00000000 NULL       0.08097822      -0.09520503       0.27857470
P        4.17189587       2.49693168      -1.20027444       0.00000000 NULL       0.00532350       0.00396328      -0.12172658
P        4.36462335      -1.42365305       2.57473993       0.00000000 NULL       0.13075745       0.10018956       0.07004028
P        2.22784143       5.21285407      -1.88218925       0.00000000 NULL      -0.01835788       0.03896682      -0.04233668
16
Lattice="7.684737200332703 0.17811382707759907 -1.1266171826392313 0.050110872802074956 7.004115477983967 -1.6329748885674797 -4.123826940710419 -4.394905949289021 7.757728677953648" Properties=species:S:1:pos:R:3:initial_magmoms:R:1:castep_labels:S:1:forces:R:3 n_minim_iter=8 energy=-84.54615625626386 stress="-0.00072277746249945 0.0006224189127890758 0.0010268321548740859 0.0006224189127890758 0.0001807015592221038 -0.001487574972505583 0.0010268321548740859 -0.001487574972505583 -0.0024725552353387177" free_energy=-84.54615625626386 pbc="T T T"
P        4.29223319       1.80885997       2.21946514       0.00000000 NULL      -0.02131552       0.05414026       0.09963474
P        3.34423031       0.15278333      -0.47250370       0.00000000 NULL       0.09059375      -0.16130313       0.18031983
P        1.78171212      -1.15385088       5.42123269       0.00000000 NULL      -0.00225099      -0.05436340       0.08509955
P        0.31415770       5.60851974      -0.80798709       0.00000000 NULL       0.04015104      -0.02756239      -0.16341873
P        3.12454685       4.11172522      -0.20283613       0.00000000 NULL       0.02378369       0.10921099       0.06853888
P        5.24541351       0.09286933       1.18943960       0.00000000 NULL      -0.10637109      -0.03824458      -0.21510291
P        2.74227782       0.03594158       3.04072818       0.00000000 NULL      -0.08012943       0.06104747      -0.22252434
P        1.12982534       3.31937640       1.96940233       0.00000000 NULL       0.09952707       0.04427398      -0.12770405
P       -0.39276077       0.60130310       3.11331156       0.00000000 NULL       0.05084666       0.04040178       0.10798081
P        2.52619765      -3.21025573       5.16202393       0.00000000 NULL      -0.04905923       0.11715138       0.02168182
P        0.07811572       0.79092787       0.91070364       0.00000000 NULL      -0.19018121       0.00897174      -0.00151416
P        2.32203753       1.33938695       1.18483273       0.00000000 NULL      -0.03522813      -0.21945255      -0.00834444
P        0.87418138       5.70166534       1.42363554       0.00000000 NULL       0.01927396      -0.05650480       0.26723265
P        4.16792999       2.49082734      -1.20641637       0.00000000 NULL      -0.01245727       0.01112196      -0.11826101
P        4.37857750      -1.44050376       2.58602949       0.00000000 NULL       0.11367249       0.14283299       0.04860623
P        2.21378185       5.21293990      -1.89360562       0.00000000 NULL       0.05914423      -0.03172170      -0.02222488
16
Lattice="7.672257410988643 0.16766059324797147 -1.1501116869229973 0.04573076576437558 7.001969102885405 -1.6311482513640643 -4.133534569856522 -4.385959348316782 7.770495178217596" Properties=species:S:1:pos:R:3:initial_magmoms:R:1:castep_labels:S:1:forces:R:3 n_minim_iter=9 energy=-84.56964173736645 stress="-0.0034600540783807586 0.0003686439939549121 0.002003395168810336 0.0003686439939549121 0.0009502327358203997 0.0002819949412025014 0.002003395168810336 0.0002819949412025014 -0.00026414370820142914" free_energy=-84.56964173736645 pbc="T T T"
P        4.26207835       1.83042336       2.20814527       0.00000000 NULL       0.07195399      -0.11795690      -0.03775726
P        3.32673657       0.11777858      -0.47618495       0.00000000 NULL       0.13330296      -0.09609120       0.11087503
P        1.75276771      -1.14967840       5.41855227       0.00000000 NULL       0.02112127       0.03890781       0.00722229
P        0.31265902       5.58883754      -0.82621722       0.00000000 NULL      -0.16211896       0.14340902       0.15503213
P        3.13144057       4.10442067      -0.19515469       0.00000000 NULL       0.06126793       0.07058296       0.01402890
P        5.22023955       0.10014039       1.18218501       0.00000000 NULL      -0.04080371      -0.00269476      -0.12374605
P        2.72594277       0.05654656       3.02348042       0.00000000 NULL      -0.02765079      -0.04292709      -0.15162837
P        1.14419027       3.31060928       1.94102689       0.00000000 NULL       0.06461032       0.08013314      -0.11760465
P       -0.39971371       0.60458164       3.11690443       0.00000000 NULL       0.07559127      -0.02947632       0.02715427
P        2.50762339      -3.19562487       5.16700342       0.00000000 NULL      -0.02213002       0.00084221      -0.00264445
P        0.06060401       0.78112358       0.90350303       0.00000000 NULL      -0.11300853      -0.11168296       0.05421297
P        2.30872901       1.32187668       1.16581042       0.00000000 NULL      -0.06868477      -0.11970513      -0.03202015
P        0.87550288       5.70146025       1.43774206       0.00000000 NULL      -0.11234199       0.00230605       0.12562254
P        4.15207559       2.47775037      -1.24351369       0.00000000 NULL      -0.17539152       0.05811251       0.04920290
P        4.37856090      -1.42275076       2.60155341       0.00000000 NULL       0.05482243       0.11292797      -0.07168007
P        2.19790432       5.18754234      -1.88924441       0.00000000 NULL       0.23946013       0.01331267      -0.00627002
16
Lattice="7.7076375342821155 0.17373730282194683 -1.183398954933829 0.05836700525289158 6.99087051854402 -1.6340221546217335 -4.189828776842837 -4.389039111998492 7.77151614888523" Properties=species:S:1:pos:R:3:initial_magmoms:R:1:castep_labels:S:1:forces:R:3 n_minim_iter=10 energy=-84.57630115158456 stress="-0.0010032082896468486 0.0009136828903789057 -0.0002579358618461213 0.0009136828903789057 7.535128389937827e-05 -0.0003999509464200973 -0.0002579358618461213 -0.0003999509464200973 -0.0019081220407336137" free_energy=-84.57630115158456 pbc="T T T"
P        4.26599705       1.83490444       2.17890592       0.00000000 NULL       0.03952212      -0.14755372      -0.02896040
P        3.33899921       0.11088493      -0.48837190       0.00000000 NULL       0.09451668      -0.09198103       0.07811064
P        1.72969088      -1.15074402       5.39558689       0.00000000 NULL      -0.06968507       0.08952103       0.09030644
P        0.32168169       5.57498900      -0.83553010       0.00000000 NULL      -0.09728194       0.11609679       0.10321522
P        3.15297940       4.09862351      -0.20944858       0.00000000 NULL       0.10592031       0.04868261       0.01665513
P        5.23152419       0.10630777       1.15595181       0.00000000 NULL      -0.07850158      -0.01988500      -0.09299538
P        2.72176652       0.06158949       2.99789259       0.00000000 NULL       0.00205985      -0.08997553      -0.12821749
P        1.15021438       3.30149620       1.91779350       0.00000000 NULL      -0.00986520       0.05549303      -0.17133671
P       -0.41465023       0.60009846       3.10911597       0.00000000 NULL       0.07908153      -0.02162263       0.04190559
P        2.48950841      -3.18905054       5.14653507       0.00000000 NULL       0.04813365      -0.03014031       0.06298396
P        0.05270895       0.77516571       0.89774155       0.00000000 NULL      -0.06242454      -0.09300566       0.03213226
P        2.31177368       1.31502107       1.14588989       0.00000000 NULL      -0.07542610      -0.06992595      -0.06886031
P        0.87946389       5.69066440       1.42754085       0.00000000 NULL      -0.06050861       0.00255773       0.10520055
P        4.17243893       2.47588136      -1.26928201       0.00000000 NULL      -0.14031396       0.06214828       0.03269980
P        4.38660021      -1.41269516       2.58239556       0.00000000 NULL       0.05228525       0.11089090      -0.07605014
P        2.21726536       5.17518680      -1.89651560       0.00000000 NULL       0.17248761       0.07869946       0.00321083
16
Lattice="7.69624029989135 0.15856068669342196 -1.198291890250781 0.04629434201717747 7.017158156021699 -1.638387028168083 -4.1887827159107305 -4.401252936963476 7.7799981884744005" Properties=species:S:1:pos:R:3:initial_magmoms:R:1:castep_labels:S:1:forces:R:3 n_minim_iter=11 energy=-84.5932551489091 stress="-0.0009006309976011074 0.00019307701882402667 -0.00026962078861105844 0.00019307701882402667 0.00010025351304453588 -0.0002533029453336939 -0.00026962078861105844 -0.0002533029453336939 -0.0010750865029748534" free_energy=-84.5932551489091 pbc="T T T"
P        4.24598378       1.83469679       2.16028815       0.00000000 NULL       0.02905174      -0.10639513      -0.00163391
P        3.33311220       0.07613295      -0.48593953       0.00000000 NULL       0.09388111      -0.05266342       0.01444528
P        1.70041324      -1.14916787       5.39917450       0.00000000 NULL       0.05422928      -0.16233871       0.04790912
P        0.29899326       5.59159268      -0.83119950       0.00000000 NULL       0.09523752       0.00723206      -0.01069614
P        3.16376623       4.10537215      -0.21054810       0.00000000 NULL      -0.02145570       0.17426356       0.10152330
P        5.20593744       0.10397146       1.15070994       0.00000000 NULL       0.10909353      -0.00801819      -0.16464262
P        2.71536850       0.05930381       2.97649090       0.00000000 NULL      -0.06172093      -0.07160764      -0.04228913
P        1.16007829       3.31074228       1.87996361       0.00000000 NULL       0.04883585       0.08224147      -0.12243779
P       -0.41164687       0.59739190       3.10913845       0.00000000 NULL       0.01648609       0.02522867       0.05777245
P        2.48115573      -3.20361176       5.15483102       0.00000000 NULL      -0.10417337       0.15704905      -0.03315674
P        0.04002976       0.75953812       0.89473539       0.00000000 NULL      -0.04855339      -0.06640991       0.02468077
P        2.29494920       1.30180981       1.12338726       0.00000000 NULL      -0.00264395      -0.00254234      -0.02199131
P        0.86360110       5.71267199       1.43256427       0.00000000 NULL      -0.05816681      -0.00172960       0.09270479
P        4.13936855       2.48271874      -1.29034339       0.00000000 NULL      -0.10365525      -0.01387018       0.01218650
P        4.38812038      -1.40091208       2.58408157       0.00000000 NULL       0.03330589      -0.05610655      -0.03150556
P        2.21946769       5.17975235      -1.89212073       0.00000000 NULL      -0.07975163       0.09566686       0.07713099
16
Lattice="7.694791272565319 0.13034815906654795 -1.182027735844387 0.016526612118161445 7.089899413394197 -1.6306567475056597 -4.159831283058294 -4.428628528516181 7.745265303960746" Properties=species:S:1:pos:R:3:initial_magmoms:R:1:castep_labels:S:1:forces:R:3 n_minim_iter=12 energy=-84.62638764844462 stress="0.00036257925422363566 -0.00036959145114365396 -8.63073353512199e-05 -0.00036959145114365396 -0.0008423744162480297 -4.1869179489249745e-05 -8.63073353512199e-05 -4.1869179489249745e-05 0.00021195428301734763" free_energy=-84.62638764844462 pbc="T T T"
P        4.23781593       1.82629224       2.14202355       0.00000000 NULL       0.09238957      -0.10347218       0.00198885
P        3.34367060       0.01516143      -0.47427986       0.00000000 NULL      -0.01309461       0.05951614      -0.03141874
P        1.69651044      -1.17561647       5.39881448       0.00000000 NULL      -0.07517430      -0.02448975       0.14865113
P        0.27734283       5.63986689      -0.80721540       0.00000000 NULL      -0.03753865      -0.01382014      -0.05272013
P        3.17802245       4.16406292      -0.17571674       0.00000000 NULL      -0.13550380      -0.00973692       0.10150687
P        5.21814817       0.10117271       1.14477021       0.00000000 NULL       0.03375133      -0.05929059      -0.04740212
P        2.71788648       0.04614550       2.95372642       0.00000000 NULL       0.02114817       0.01744486      -0.02892728