14
Lattice="5.932300000000002 -6.278422348765772e-16 -1.0065160611987277e-17 1.3658306775978497 5.792141880179782 -1.391183505624117e-16 1.447824671805269 2.1479188891158523 9.053600872713092" Properties=species:S:1:pos:R:3:initial_magmoms:R:1:castep_labels:S:1 n_minim_iter=1 pbc="T T T"
P        5.94257612       3.12240294       3.68457292       0.00000000 NULL
P        6.01521452       6.51271925       8.95712480       0.00000000 NULL
P        5.95557526       3.22112232       0.81902042       0.00000000 NULL
P        3.84079339       5.88109059       4.92199464       0.00000000 NULL
P        2.11884801       4.23489630       8.16174152       0.00000000 NULL
P        2.04175393       5.71442652       3.21142359       0.00000000 NULL
P        1.96575323       2.06372434       6.78358247       0.00000000 NULL
P        7.75312283       7.05801620       5.72609382       0.00000000 NULL
P        5.71432166       4.57872207       8.41239317       0.00000000 NULL
P        6.42866418       5.64615724       5.21682787       0.00000000 NULL
P        2.87043920       5.47421774       6.67538742       0.00000000 NULL
P        3.58340799       2.16407303       8.05119433       0.00000000 NULL
P        7.26239736       4.18079079       6.31503871       0.00000000 NULL
P        2.85842663       3.62124021       5.13369318       0.00000000 NULL
14
Lattice="5.945756188150675 -0.00023837439583564084 0.0046826885588553665 1.3686960377884045 5.807822102916625 0.0016725164520210527 1.4581689540480074 2.1546248961453442 9.072118960708002" Properties=species:S:1:pos:R:3:initial_magmoms:R:1:castep_labels:S:1 n_minim_iter=2 pbc="T T T"
P        5.95885134       3.13101551       3.69665279       0.00000000 NULL
P        6.03554511       6.53125115       8.97958515       0.00000000 NULL
P        5.96977011       3.22969543       0.82584872       0.00000000 NULL
P        3.85324293       5.89736306       4.93460792       0.00000000 NULL
P        2.13000501       4.24694106       8.17983530       0.00000000 NULL
P        2.04873301       5.73021036       3.21985452       0.00000000 NULL
P        1.97565637       2.07004670       6.79831274       0.00000000 NULL
P        7.77477999       7.07778112       5.74357020       0.00000000 NULL
P        5.73365230       4.59160040       8.43329809       0.00000000 NULL
P        6.44671297       5.66179421       5.23188085       0.00000000 NULL
P        2.88226662       5.48980013       6.69106914       0.00000000 NULL
P        3.59791191       2.17081463       8.06956615       0.00000000 NULL
P        7.28326429       4.19220092       6.33305611       0.00000000 NULL
P        2.86910175       3.63135541       5.14576777       0.00000000 NULL
14
Lattice="6.190489656929922 -0.004970197070597622 0.09171633735345382 1.420422533617943 6.094152774973423 0.03350505019678389 1.6490115448634102 2.2784903609246854 9.40615693871753" Properties=species:S:1:pos:R:3:initial_magmoms:R:1:castep_labels:S:1 n_minim_iter=3 pbc="T T T"
P        6.25588402       3.28853394       3.91746090       0.00000000 NULL
P        6.40748585       6.87087336       9.38752100       0.00000000 NULL
P        6.22814606       3.38604805       0.95232490       0.00000000 NULL
P        4.08072222       6.19504289       5.16394451       0.00000000 NULL
P        2.33544536       4.46790790       8.50754315       0.00000000 NULL
P        2.17641833       6.01894380       3.37387534       0.00000000 NULL
P        2.15802008       2.18661485       7.06466130       0.00000000 NULL
P        8.16980455       7.43945876       6.06253060       0.00000000 NULL
P        6.08759501       4.82778577       8.81277487       0.00000000 NULL
P        6.77580221       5.94785897       5.50598014       0.00000000 NULL
P        3.09932131       5.77552792       6.97569299       0.00000000 NULL
P        3.86415301       2.29519144       8.40209488       0.00000000 NULL
P        7.66411538       4.40091601       6.66098021       0.00000000 NULL
P        3.06478774       3.81666614       5.36470337       0.00000000 NULL
14
Lattice="6.229482104028477 -0.012794440265363475 0.1146422428375558 1.4217606240302094 6.161396350411677 0.06023466596658059 1.6906834739753676 2.335715053708309 9.401932405621313" Properties=species:S:1:pos:R:3:initial_magmoms:R:1:castep_labels:S:1 n_minim_iter=4 pbc="T T T"
P        6.30651354       3.33061713       3.94705188       0.00000000 NULL
P        6.46988610       6.97410822       9.41758701       0.00000000 NULL
P        6.26751998       3.41910786       0.98831832       0.00000000 NULL
P        4.11572578       6.27711876       5.18452367       0.00000000 NULL
P        2.37634031       4.54228331       8.52343924       0.00000000 NULL
P        2.19585363       6.09694925       3.40214629       0.00000000 NULL
P        2.19840069       2.23539415       7.06870238       0.00000000 NULL
P        8.23178744       7.53699656       6.10322039       0.00000000 NULL
P        6.15269795       4.90593800       8.83639732       0.00000000 NULL
P        6.82649981       6.02616349       5.53340730       0.00000000 NULL
P        3.13907988       5.86472586       6.99611122       0.00000000 NULL
P        3.91647888       2.34852112       8.40887596       0.00000000 NULL
P        7.72509819       4.46115339       6.68938541       0.00000000 NULL
P        3.10224441       3.87400007       5.37556279       0.00000000 NULL
14
Lattice="6.242478912599661 -0.024553513689274893 0.1262202782762966 1.4132717104902084 6.203563019064199 0.09567008652290161 1.7072676784038168 2.4007077753506625 9.336766759392635" Properties=species:S:1:pos:R:3:initial_magmoms:R:1:castep_labels:S:1 n_minim_iter=5 pbc="T T T"
P        6.32260773       3.36232027       3.94676916       0.00000000 NULL
P        6.48342418       7.06294626       9.38713189       0.00000000 NULL
P        6.27709525       3.43641722       1.01389025       0.00000000 NULL
P        4.11934337       6.34136070       5.17314504       0.00000000 NULL
P        2.38960596       4.61250894       8.48927856       0.00000000 NULL
P        2.19681242       6.15630957       3.41754883       0.00000000 NULL
P        2.21717398       2.28784947       7.02675093       0.00000000 NULL
P        8.24390879       7.61102010       6.10236967       0.00000000 NULL
P        6.17451413       4.97867225       8.80083452       0.00000000 NULL
P        6.83502596       6.08700008       5.52158510       0.00000000 NULL
P        3.14976352       5.94334648       6.97622030       0.00000000 NULL
P        3.93625831       2.40669046       8.35779238       0.00000000 NULL
P        7.73821042       4.51096022       6.66750512       0.00000000 NULL
P        3.11572453       3.92419394       5.35211755       0.00000000 NULL
14
Lattice="6.251721499124291 -0.0587784688569444 0.12932739921036315 1.3819833420735317 6.263067495462978 0.1787328952864759 1.701873455238789 2.5460591579511345 9.185067747089319" Properties=species:S:1:pos:R:3:initial_magmoms:R:1:castep_labels:S:1 n_minim_iter=6 pbc="T T T"
P        6.32059671       3.41295212       3.92716582       0.00000000 NULL
P        6.45014413       7.22921004       9.30245422       0.00000000 NULL
P        6.27097781       3.45090855       1.05239525       0.00000000 NULL
P        4.08747619       6.45377046       5.13899479       0.00000000 NULL
P        2.37519002       4.75516695       8.40762244       0.00000000 NULL
P        2.17249049       6.25896027       3.45200550       0.00000000 NULL
P        2.22396286       2.40112859       6.92529702       0.00000000 NULL
P        8.21350076       7.73434788       6.07973187       0.00000000 NULL
P        6.16605802       5.12232141       8.70356473       0.00000000 NULL
P        6.80591287       6.19075000       5.47711510       0.00000000 NULL
P        3.13000847       6.09557365       6.92725458       0.00000000 NULL
P        3.93484566       2.53226570       8.23011787       0.00000000 NULL
P        7.71402155       4.59862908       6.59386466       0.00000000 NULL
P        3.11133290       4.01958619       5.29264165       0.00000000 NULL
14
Lattice="6.270834931100059 -0.1437212842851919 0.09350822403723356 1.3034480139688087 6.3399473500445165 0.3233321165431135 1.6211172738280502 2.8000013510769883 9.094121791810306" Properties=species:S:1:pos:R:3:initial_magmoms:R:1:castep_labels:S:1 n_minim_iter=7 pbc="T T T"
P        6.28128862       3.46998856       3.93144970       0.00000000 NULL
P        6.30525392       7.48047749       9.30185887       0.00000000 NULL
P        6.24363269       3.44259195       1.09812903       0.00000000 NULL
P        3.97619272       6.61817046       5.15669586       0.00000000 NULL
P        2.27586383       4.99297574       8.41865998       0.00000000 NULL
P        2.08486849       6.41343925       3.57115695       0.00000000 NULL
P        2.17935966       2.59213149       6.87083376       0.00000000 NULL
P        8.09315816       7.89974534       6.11319980       0.00000000 NULL
P        6.07592117       5.34873057       8.67026429       0.00000000 NULL
P        6.70068370       6.33289493       5.46748671       0.00000000 NULL
P        3.02423602       6.34380187       6.96742954       0.00000000 NULL
P        3.86994515       2.74123097       8.14729435       0.00000000 NULL
P        7.61806043       4.71366540       6.54525173       0.00000000 NULL
P        3.05099117       4.16681815       5.27796225       0.00000000 NULL
14
Lattice="6.108844663283917 -0.24794481692585338 0.09125055458225476 1.1643908581331568 6.3123601799517095 0.46299942700203456 1.5404003109411957 2.992357206004643 9.00410800353505" Properties=species:S:1:pos:R:3:initial_magmoms:R:1:castep_labels:S:1 n_minim_iter=8 pbc="T T T"
P        6.07284375       3.44291913       3.96527705       0.00000000 NULL
P        6.00894525       7.57242224       9.31606845       0.00000000 NULL
P        6.02825434       3.35456250       1.16690506       0.00000000 NULL
P        3.75393180       6.65077743       5.17650687       0.00000000 NULL
P        2.14000942       5.13561870       8.43032615       0.00000000 NULL
P        1.93518337       6.45488378       3.69269421       0.00000000 NULL
P        2.10315711       2.72538484       6.81963345       0.00000000 NULL
P        7.74177344       7.90990848       6.17427494       0.00000000 NULL
P        5.84801736       5.46478387       8.66065007       0.00000000 NULL
P        6.41543396       6.34463772       5.47521597       0.00000000 NULL
P        2.84911252       6.48698698       7.01432608       0.00000000 NULL
P        3.73590788       2.88607919       8.08001787       0.00000000 NULL
P        7.33253470       4.71353089       6.52281363       0.00000000 NULL
P        2.91075300       4.23057710       5.27250203       0.00000000 NULL
14
Lattice="6.168798071741152 -0.28236743642410933 0.11036224040900017 1.1445849664007945 6.419893368945819 0.4802378256878723 1.5717363197017233 3.046839125644359 9.210726804346265" Properties=species:S:1:pos:R:3:initial_magmoms:R:1:castep_labels:S:1 n_minim_iter=9 pbc="T T T"
P        6.12937015       3.47637150       4.07718504       0.00000000 NULL
P        6.05761300       7.68398880       9.54483703       0.00000000 NULL
P        6.07433165       3.38517693       1.21322408       0.00000000 NULL
P        3.77298605       6.75269687       5.29676308       0.00000000 NULL
P        2.16310016       5.22071975       8.63543416       0.00000000 NULL
P        1.93419855       6.56486021       3.78863897       0.00000000 NULL
P        2.13485664       2.76948616       6.97912182       0.00000000 NULL
P        7.79303636       8.02428892       6.33558137       0.00000000 NULL
P        5.90788999       5.54411408       8.87589370       0.00000000 NULL
P        6.46129796       6.43177653       5.60910191       0.00000000 NULL
P        2.86902577       6.60508089       7.18693876       0.00000000 NULL
P        3.78891080       2.93106794       8.27505999       0.00000000 NULL
P        7.39878126       4.76268721       6.68808860       0.00000000 NULL
P        2.93690019       4.29452139       5.39689037       0.00000000 NULL
14
Lattice="6.111347394526568 -0.28643069394481874 0.10746262787788302 1.1273904783533089 6.380319700171082 0.4913413965859116 1.551818582903938 3.049918456365409 9.163695679600629" Properties=species:S:1:pos:R:3:initial_magmoms:R:1:castep_labels:S:1 n_minim_iter=10 pbc="T T T"
P        6.06915243       3.45747132       4.06249710       0.00000000 NULL
P        5.98960761       7.65235630       9.50449300       0.00000000 NULL
P        6.01405499       3.36070830       1.21247701       0.00000000 NULL
P        3.72789525       6.71870848       5.27502739       0.00000000 NULL
P        2.13463849       5.20666901       8.60037544       0.00000000 NULL
P        1.90937234       6.53214207       3.78445117       0.00000000 NULL
P        2.11229850       2.76842483       6.94484748       0.00000000 NULL
P        7.70865967       7.98560097       6.31249719       0.00000000 NULL
P        5.84708954       5.52869280       8.83722702       0.00000000 NULL
P        6.39315043       6.39938558       5.58380728       0.00000000 NULL
P        2.83412896       6.58531023       7.16100725       0.00000000 NULL
P        3.74962005       2.93184168       8.23364451       0.00000000 NULL
P        7.32218311       4.74066414       6.65550900       0.00000000 NULL
P        2.90365444       4.27815398       5.37295175       0.00000000 NULL
14
Lattice="6.090233927938548 -0.29892187164797224 0.11059365404100933 1.1103333346007043 6.381717220920629 0.5022837405255794 1.5469213974671865 3.0644316278561035 9.183037088480125" Properties=species:S:1:pos:R:3:initial_magmoms:R:1:castep_labels:S:1 n_minim_iter=11 pbc="T T T"
P        6.04489676       3.45223148       4.08019388       0.00000000 NULL
P        5.95794572       7.65823100       9.53341644       0.00000000 NULL
P        5.98696285       3.35139072       1.22329685       0.00000000 NULL
P        3.70318442       6.72135492       5.29009879       0.00000000 NULL
P        2.12181943       5.21796122       8.62665441       0.00000000 NULL
P        1.89226021       6.53806553       3.80430361       0.00000000 NULL
P        2.10567457       2.77766279       6.96109532       0.00000000 NULL
P        7.66698614       7.98750008       6.33648157       0.00000000 NULL
P        5.82293428       5.53661614       8.86411614       0.00000000 NULL
P        6.36076164       6.39854926       5.59989920       0.00000000 NULL
P        2.81612506       6.60089127       7.18539128       0.00000000 NULL
P        3.73802571       2.94209857       8.25402222       0.00000000 NULL
P        7.28989768       4.73706468       6.67456162       0.00000000 NULL
P        2.88866528       4.28267355       5.38729913       0.00000000 NULL
14
Lattice="5.712275609839673 -0.5201179917720726 0.16038431860393926 0.8073435369140055 6.405333245010639 0.6949316500820903 1.4505769950715952 3.321296299527503 9.516934142072063" Properties=species:S:1:pos:R:3:initial_magmoms:R:1:castep_labels:S:1 n_minim_iter=12 pbc="T T T"
P        5.60972065       3.35815643       4.38951704       0.00000000 NULL
P        5.38758576       7.76126854      10.03134161       0.00000000 NULL
P        5.50228990       3.18455330       1.40913244       0.00000000 NULL
P        3.25983360       6.76306027       5.54417040       0.00000000 NULL
P        1.88736852       5.41887728       9.08634695       0.00000000 NULL
P        1.58452481       6.64342740       4.15334980       0.00000000 NULL
P        1.97977167       2.93935677       7.24202383       0.00000000 NULL
P        6.91555090       8.02485854       6.74829907       0.00000000 NULL
P        5.38099892       5.67720569       9.33222035       0.00000000 NULL
P        5.77768967       6.37737817       5.86841134       0.00000000 NULL
P        2.48521422       6.88236597       7.61286259       0.00000000 NULL
P        3.52235061       3.12561162       8.60882226       0.00000000 NULL
P        6.70853948       4.67079070       6.99650748       0.00000000 NULL
P        2.61685826       4.36005847       5.63098448       0.00000000 NULL
14
Lattice="6.075230098792647 -0.28062567487784557 0.14270587641835594 1.1247428346987038 6.5167968298232175 0.5655874879030082 1.5988923155213801 3.204819394307404 9.424808482065933" Properties=species:S:1:pos:R:3:initial_magmoms:R:1:castep_labels:S:1 n_minim_iter=13 pbc="T T T"
P        6.11242091       3.53749830       4.32059052       0.00000000 NULL
P        5.97720953       7.85984046       9.83459119       0.00000000 NULL
P        5.99844837       3.42553326       1.32485268       0.00000000 NULL
P        3.72344299       6.85798126       5.37666541       0.00000000 NULL
P        2.15376951       5.35847275       8.98298462       0.00000000 NULL
P        1.92950915       6.71001568       3.99372405       0.00000000 NULL
P        2.18199302       2.87682359       7.15935337       0.00000000 NULL
P        7.62021905       8.31719229       6.52205912       0.00000000 NULL
P        5.89294931       5.78059565       9.19553804       0.00000000 NULL
P        6.37008789       6.56888633       5.67640054       0.00000000 NULL
P        2.87961289       6.94042875       7.44142284       0.00000000 NULL
P        3.83616701       3.14485135       8.53559347       0.00000000 NULL
P        7.26793588       4.84994754       6.84892900       0.00000000 NULL
P        2.92963644       4.39901677       5.50180985       0.00000000 NULL
14
Lattice="5.8538446710113075 -0.29620737278033216 0.10926238436820682 1.058558317087966 6.298055401663526 0.5656219021057146 1.4881798538486637 3.1333196999920307 9.08236511839938" Properties=species:S:1:pos:R:3:initial_magmoms:R:1:castep_labels:S:1 n_minim_iter=14 pbc="T T T"
P        5.86072273       3.41057387       4.15350032       0.00000000 NULL
P        5.68709941       7.61618919       9.47653737       0.00000000 NULL
P        5.76169999       3.29052229       1.26274679       0.00000000 NULL
P        3.53602877       6.63480398       5.18741437       0.00000000 NULL
P        2.01454721       5.21206147       8.66390187       0.00000000 NULL
P        1.81962758       6.49648239       3.86649227       0.00000000 NULL
P        2.06360812       2.80306597       6.89727023       0.00000000 NULL
P        7.28021538       8.03898961       6.27673674       0.00000000 NULL
P        5.62137030       5.60499545       8.85428300       0.00000000 NULL
P        6.09366944       6.34999990       5.46212414       0.00000000 NULL
P        2.71861103       6.73519486       7.18135902       0.00000000 NULL
P        3.64831136       3.06292928       8.21521079       0.00000000 NULL
P        6.95569754       4.68686964       6.57983074       0.00000000 NULL
P        2.78129855       4.26719110       5.30285306       0.00000000 NULL
14
Lattice="5.925672570990785 -0.33100525428957994 0.12334361763497065 1.041119968128566 6.408512787126973 0.5936755115297504 1.5146008110679825 3.2075418911220472 9.241334519501073" Properties=species:S:1:pos:R:3:initial_magmoms:R:1:castep_labels:S:1 n_minim_iter=15 pbc="T T T"
P        5.92619058       3.45389483       4.24574183       0.00000000 NULL
P        5.74121836       7.75316373       9.66412527       0.00000000 NULL
P        5.81863254       3.32422114       1.30614502       0.00000000 NULL
P        3.55919299       6.74944541       5.29599087       0.00000000 NULL
P        2.03548795       5.31891364       8.82372725       0.00000000 NULL
P        1.81913532       6.61540942       3.94827207       0.00000000 NULL
P        2.09301063       2.86014519       7.02083281       0.00000000 NULL
P        7.34026636       8.16769553       6.41501688       0.00000000 NULL
P        5.68370018       5.70045117       9.02513532       0.00000000 NULL
P        6.14888137       6.45025864       5.57896920       0.00000000 NULL
P        2.73795764       6.86590100       7.32302728       0.00000000 NULL
P        3.70066347       3.12510100       8.36627920       0.00000000 NULL
P        7.03121792       4.75324862       6.71376974       0.00000000 NULL
P        2.80859388       4.34435885       5.40436019       0.00000000 NULL
14
Lattice="5.910062508396077 -0.3506618874535817 0.12179957445420443 1.0183337451554162 6.403309727383476 0.6008320649845356 1.5013174912575693 3.214235293839252 9.239566930299128" Properties=species:S:1:pos:R:3:initial_magmoms:R:1:castep_labels:S:1 n_minim_iter=16 pbc="T T T"
P        5.90069611       3.43786791       4.24926730       0.00000000 NULL
P        5.70115839       7.74478893       9.66737031       0.00000000 NULL
P        5.79246443       3.30460830       1.30883205       0.00000000 NULL
P        3.52790416       6.74045865       5.29968608       0.00000000 NULL
P        2.01338323       5.32199349       8.82528615       0.00000000 NULL
P        1.79419856       6.61215506       3.95302940       0.00000000 NULL
P        2.07974516       2.86040811       7.01984258       0.00000000 NULL
P        7.29199805       8.15049797       6.41845371       0.00000000 NULL
P        5.65140366       5.69122756       9.02622122       0.00000000 NULL
P        6.11279562       6.43545008       5.58082531       0.00000000 NULL
P        2.71059692       6.86684306       7.32713219       0.00000000 NULL
P        3.68274841       3.12471450       8.36508534       0.00000000 NULL
P        6.99629605       4.73602211       6.71318005       0.00000000 NULL
P        2.78774823       4.34096148       5.40489404       0.00000000 NULL
14
Lattice="5.888009885960863 -0.3929420829658328 0.12052900060815001 0.971975159215359 6.402196332876396 0.6165546780687409 1.4786878147581555 3.2321464545992633 9.251505929228061" Properties=species:S:1:pos:R:3:initial_magmoms:R:1:castep_labels:S:1 n_minim_iter=17 pbc="T T T"
P        5.85950304       3.40846585       4.26629699       0.00000000 NULL
P        5.62945541       7.73789933       9.69162419       0.00000000 NULL
P        5.74815484       3.26772604       1.31819013       0.00000000 NULL
P        3.46970966       6.73056331       5.31655917       0.00000000 NULL
P        1.97268176       5.33544151       8.84377759       0.00000000 NULL
P        1.74575686       6.61500878       3.96894757       0.00000000 NULL
P        2.05788267       2.86362498       7.02984636       0.00000000 NULL
P        7.20381642       8.12676705       6.43736428       0.00000000 NULL
P        5.59604492       5.67901819       9.04497767       0.00000000 NULL
P        6.04916353       6.41317260       5.59462672       0.00000000 NULL
P        2.66001739       6.87950177       7.34843397       0.00000000 NULL
P        3.65475288       3.12828192       8.37787628       0.00000000 NULL
P        6.93669745       4.70548097       6.72442139       0.00000000 NULL
P        2.75032040       4.33980201       5.41508472       0.00000000 NULL
14
Lattice="5.867555594869403 -0.4413369938256917 0.121152210453161 0.9200143197028278 6.394495534737858 0.6289892580453066 1.4571244620513137 3.240823510273868 9.262307906878208" Properties=species:S:1:pos:R:3:initial_magmoms:R:1:castep_labels:S:1 n_minim_iter=18 pbc="T T T"
P        5.82243712       3.36615474       4.29045503       0.00000000 NULL
P        5.55430704       7.71376273       9.71493702       0.00000000 NULL
P        5.70269355       3.21951339       1.32801908       0.00000000 NULL
P        3.40739937       6.70423689       5.32961196       0.00000000 NULL
P        1.92940235       5.33705541       8.86189575       0.00000000 NULL
P        1.69355697       6.60844186       3.97901486       0.00000000 NULL
P        2.03907170       2.85366793       7.03908697       0.00000000 NULL
P        7.10409425       8.09056321       6.45065291       0.00000000 NULL
P        5.54086995       5.65006318       9.06392588       0.00000000 NULL
P        5.98367332       6.37579765       5.60275076       0.00000000 NULL
P        2.60866673       6.88627108       7.36803361       0.00000000 NULL
P        3.63188131       3.12498696       8.39242563       0.00000000 NULL
P        6.87368341       4.65710011       6.73234258       0.00000000 NULL
P        2.71115255       4.33003857       5.42155098       0.00000000 NULL
14
Lattice="5.863699376397662 -0.44959348956309814 0.12079525566446984 0.9110650527688617 6.3852570489383496 0.618728294828292 1.4526491088861118 3.2201771620004047 9.244224336042214" Properties=species:S:1:pos:R:3:initial_magmoms:R:1:castep_labels:S:1 n_minim_iter=19 pbc="T T T"
P        5.82394594       3.34410903       4.29459998       0.00000000 NULL
P        5.53822376       7.68239256       9.69275665       0.00000000 NULL
P        5.69461698       3.20192304       1.32197116       0.00000000 NULL
P        3.39514282       6.67367206       5.30947765       0.00000000 NULL
P        1.91831753       5.31307160       8.84497061       0.00000000 NULL
P        1.68531161       6.59254223       3.95736027       0.00000000 NULL
P        2.04019874       2.82526395       7.02519723       0.00000000 NULL
P        7.07084874       8.07284775       6.42156379       0.00000000 NULL
P        5.53157602       5.61822107       9.04526002       0.00000000 NULL
P        5.97296904       6.35016345       5.57616235       0.00000000 NULL
P        2.60363924       6.87743017       7.34978203       0.00000000 NULL
P        3.63448198       3.11194933       8.38001140       0.00000000 NULL
P        6.85556205       4.62503502       6.70882183       0.00000000 NULL
P        2.70294440       4.31483491       5.40243150       0.00000000 NULL
14
Lattice="5.8797361054647554 -0.46802545647289956 0.11249910585219343 0.8967608013075058 6.409033712644158 0.6134647889904357 1.4372281040361663 3.220827888009992 9.249400899763453" Properties=species:S:1:pos:R:3:initial_magmoms:R:1:castep_labels:S:1 n_minim_iter=20 pbc="T T T"
P        5.83996755       3.33452271       4.31068074       0.00000000 NULL
P        5.51790765       7.69177758       9.69496248       0.00000000 NULL
P        5.69976806       3.19360409       1.31434545       0.00000000 NULL
P        3.37932866       6.67234716       5.30239228       0.00000000 NULL
P        1.89482951       5.32021749       8.85156808       0.00000000 NULL
P        1.67055186       6.61201902       3.94462670       0.00000000 NULL
P        2.03870239       2.80792650       7.02864039       0.00000000 NULL
P        7.03471654       8.09788255       6.40250490       0.00000000 NULL
P        5.52216769       5.61254290       9.04642267       0.00000000 NULL
P        5.96806749       6.35277596       5.55674436       0.00000000 NULL
P        2.59247033       6.91286163       7.35286858       0.00000000 NULL
P        3.63836378       3.11975693       8.38705836       0.00000000 NULL
P        6.84179012       4.61091756       6.69295109       0.00000000 NULL
P        2.69111904       4.32390902       5.39441014       0.00000000 NULL
14
Lattice="5.854718769977264 -0.4660528463749675 0.10991613318091444 0.8929269077554142 6.377260780407867 0.6045943437604372 1.4278946393290042 3.1964227494341073 9.200492539448692" Properties=species:S:1:pos:R:3:initial_magmoms:R:1:castep_labels:S:1 n_minim_iter=21 pbc="T T T"
P        5.81611530       3.31374185       4.28771276       0.00000000 NULL
P        5.49078349       7.64498648       9.63920553       0.00000000 NULL
P        5.67502366       3.17585677       1.30276194       0.00000000 NULL
P        3.36275315       6.63232736       5.26899157       0.00000000 NULL
P        1.88286176       5.28610240       8.80287062       0.00000000 NULL
P        1.66264169       6.57623886       3.91770590       0.00000000 NULL
P        2.02906962       2.78499063       6.99100453       0.00000000 NULL
P        6.99874388       8.05444398       6.35976090       0.00000000 NULL
P        5.49610460       5.57590815       8.99546693       0.00000000 NULL
P        5.94164050       6.31600958       5.51977285       0.00000000 NULL
P        2.58042759       6.87542929       7.31025386       0.00000000 NULL
P        3.62174891       3.09846585       8.34225025       0.00000000 NULL
P        6.80872406       4.58074314       6.65145471       0.00000000 NULL
P        2.67710632       4.29879104       5.36243840       0.00000000 NULL
14
Lattice="5.862799083531564 -0.4685246236905883 0.11125080164297847 0.892373910642791 6.388556571880788 0.6047723435098984 1.4310086517165854 3.200017296404378 9.212952591170826" Properties=species:S:1:pos:R:3:initial_magmoms:R:1:castep_labels:S:1 n_minim_iter=22 pbc="T T T"
P        5.82552136       3.31730815       4.29647420       0.00000000 NULL
P        5.49778959       7.65572316       9.65313345       0.00000000 NULL
P        5.68206414       3.17947637       1.30541653       0.00000000 NULL
P        3.36649417       6.64088096       5.27588420       0.00000000 NULL
P        1.88549805       5.29333238       8.81480789       0.00000000 NULL
P        1.66402151       6.58706974       3.92139007       0.00000000 NULL
P        2.03348593       2.78628571       7.00072887       0.00000000 NULL
P        7.00454062       8.06756348       6.36806413       0.00000000 NULL
P        5.50395175       5.58215096       9.00843527       0.00000000 NULL
P        5.94926404       6.32450586       5.52644710       0.00000000 NULL
P        2.58457502       6.88791732       7.32041261       0.00000000 NULL
P        3.62900881       3.10278577       8.35459553       0.00000000 NULL
P        6.81671479       4.58513142       6.66022112       0.00000000 NULL
P        2.68048408       4.30528147       5.36913205       0.00000000 NULL
14
Lattice="5.862328284571487 -0.46984193589496254 0.11105099450800648 0.8909793266111564 6.3885129602925765 0.6029717442748227 1.4301118514590074 3.1970495139880897 9.209948994017557" Properties=species:S:1:pos:R:3:initial_magmoms:R:1:castep_labels:S:1 n_minim_iter=23 pbc="T T T"
P        5.82580174       3.31484306       4.29660315       0.00000000 NULL