16
Lattice="4.9199820155179586 0.0 0.0 0.0 3.3397788156406785 -0.28080143253684176 0.0 -1.0632564129887498 15.144183363841696" Properties=species:S:1:pos:R:3:initial_magmoms:R:1:castep_labels:S:1:forces:R:3 n_minim_iter=1 energy=-85.66012429304605 stress="0.0024485744404792093 -1.2323346914649944e-11 1.859038191811835e-12 -1.2323346914649944e-11 -0.013021185098277287 -0.008424770564057927 1.859038191811835e-12 -0.008424770564057927 -0.009992499027872274" free_energy=-85.66012429304605 pbc="T T T"
P        2.39325728       1.86720029       5.42546162       0.00000000 NULL       0.29598847      -0.35848570       0.13383032
P       -0.06673373       0.40932211       9.43792032       0.00000000 NULL       0.29598847       0.35848569      -0.13383032
P        2.62878359       1.33533931       1.97879848       0.00000000 NULL       0.20369500       0.92379590      -0.57405519
P        0.16879258       0.94118310      12.88458345       0.00000000 NULL       0.20369500      -0.92379590       0.57405519
P        4.82802115       2.45615696       5.42073164       0.00000000 NULL       0.07358481      -0.15087676       0.05952658
P        2.36803015      -0.17963456       9.44265029       0.00000000 NULL       0.07358481       0.15087676      -0.05952658
P        2.53974059       3.11716181       3.32102024       0.00000000 NULL      -0.26418455       0.77380197      -0.18146668
P        0.07974958      -0.84063941      11.54236169       0.00000000 NULL      -0.26418455      -0.77380197       0.18146668
P        3.04875127       0.24628856       6.86397254       0.00000000 NULL       0.08096203       0.09336836       0.24008820
P        0.58876026       2.03023385       7.99940939       0.00000000 NULL       0.08096203      -0.09336836      -0.24008820
P        2.77582399       2.10534075      11.13493255       0.00000000 NULL      -0.33364678       0.25280137      -0.20033639
P        0.31583298       0.17118165       3.72844939       0.00000000 NULL      -0.33364678      -0.25280137       0.20033639
P        0.00067392       1.81332353       1.63865669       0.00000000 NULL      -0.22846871       0.09383159      -0.30028073
P        2.46066493       0.46319888      13.22472524       0.00000000 NULL      -0.22846872      -0.09383159       0.30028073
P        4.87385359       0.08119994       0.14518910       0.00000000 NULL       0.17206974      -0.43217153       0.16487869
P        2.41386259       2.19532246      14.71819283       0.00000000 NULL       0.17206973       0.43217153      -0.16487869
16
Lattice="4.910386711303822 0.0 0.0 0.0 3.37280359048712 -0.26041420364603424 0.0 -0.9717171528996018 15.25845184315558" Properties=species:S:1:pos:R:3:initial_magmoms:R:1:castep_labels:S:1:forces:R:3 n_minim_iter=2 energy=-85.71075263728851 stress="0.001841722775256913 7.881717543080787e-12 -7.528333437076983e-12 7.881717543080787e-12 0.0031930464054026413 0.0004107176096691773 -7.528333437076983e-12 0.0004107176096691773 0.0032761781788689086" free_energy=-85.71075263728851 pbc="T T T"
P        2.38954186       1.92234143       5.48206517       0.00000000 NULL       0.40499898      -0.17342280       0.28023606
P       -0.06565149       0.47874501       9.51597247       0.00000000 NULL       0.40499898       0.17342280      -0.28023606
P        2.62431195       1.36571439       2.00187819       0.00000000 NULL       0.18393326       1.06809322      -0.42232221
P        0.16911860       1.03537206      12.99615945       0.00000000 NULL       0.18393326      -1.06809322       0.42232221
P        4.81884189       2.51809997       5.48105280       0.00000000 NULL       0.01776201      -0.08915463       0.04016720
P        2.36364854      -0.11701353       9.51698484       0.00000000 NULL       0.01776201       0.08915463      -0.04016720
P        2.53393762       3.17479038       3.36821706       0.00000000 NULL      -0.24565660       0.60170771      -0.35623741
P        0.07874426      -0.77370394      11.62982058       0.00000000 NULL      -0.24565660      -0.60170771       0.35623741
P        3.04306580       0.29570297       6.92148210       0.00000000 NULL       0.02188805      -0.12869716       0.05968355
P        0.58787245       2.10538347       8.07655554       0.00000000 NULL       0.02188805       0.12869716      -0.05968355
P        2.76933716       2.20365910      11.23787551       0.00000000 NULL      -0.32871204       0.35567388      -0.18940576
P        0.31414380       0.19742734       3.76016213       0.00000000 NULL      -0.32871204      -0.35567388       0.18940576
P       -0.00006230       1.84369483       1.66311948       0.00000000 NULL      -0.21016606      -0.02119808      -0.40231305
P        2.45513106       0.55739161      13.33491817       0.00000000 NULL      -0.21016606       0.02119808       0.40231305
P        4.86490174       0.08162954       0.14743036       0.00000000 NULL       0.15595241      -0.34045655       0.29117411
P        2.40970838       2.31945690      14.85060729       0.00000000 NULL       0.15595241       0.34045655      -0.29117411
16
Lattice="4.827979623953548 0.0 0.0 0.0 3.36124754732746 -0.22457715684503748 0.0 -0.8164776353965728 15.128309369400645" Properties=species:S:1:pos:R:3:initial_magmoms:R:1:castep_labels:S:1:forces:R:3 n_minim_iter=3 energy=-85.80525872343318 stress="-0.02560008405890224 -5.6490656006917085e-12 -1.3767165290500827e-11 -5.6490656006917085e-12 -0.006216500299383514 0.012111584084065919 -1.3767165290500827e-11 0.012111584084065919 -0.012455629198054943" free_energy=-85.80525872343318 pbc="T T T"
P        2.36251161       1.96502430       5.46675956       0.00000000 NULL       0.30042568      -0.06311590       0.05184681
P       -0.05147821       0.57974561       9.43697266       0.00000000 NULL       0.30042568       0.06311590      -0.05184681
P        2.58663063       1.41846135       1.98491002       0.00000000 NULL      -0.09470911       1.07341102      -0.53914598
P        0.17264082       1.12630856      12.91882220       0.00000000 NULL      -0.09470911      -1.07341102       0.53914598
P        4.73891525       2.56276289       5.46446609       0.00000000 NULL       0.02267082      -0.30133350       0.29579861
P        2.32492544      -0.01799297       9.43926613       0.00000000 NULL       0.02267082       0.30133350      -0.29579861
P        2.48296591       3.22206507       3.36259545       0.00000000 NULL      -0.00344098       0.45122620      -0.25061381
P        0.06897610      -0.67729516      11.54113676       0.00000000 NULL      -0.00344098      -0.45122620       0.25061381
P        2.99310045       0.36109894       6.87295258       0.00000000 NULL       0.07445638      -0.21200185       0.28534053
P        0.57911064       2.18367098       8.03077964       0.00000000 NULL       0.07445638       0.21200185      -0.28534054
P        2.71168066       2.32196959      11.16486144       0.00000000 NULL      -0.46930516       0.15416820       0.12717225
P        0.29769085       0.22280032       3.73887077       0.00000000 NULL      -0.46930516      -0.15416820      -0.12717225
P       -0.00730260       1.85511491       1.65506896       0.00000000 NULL       0.01367730      -0.10512772      -0.34899047
P        2.40668721       0.68965501      13.24866326       0.00000000 NULL       0.01367730       0.10512772       0.34899047
P        4.78864691       0.07054220       0.15617173       0.00000000 NULL       0.15622507      -0.19320124       0.05189896
P        2.37465709       2.47422772      14.74756048       0.00000000 NULL       0.15622507       0.19320124      -0.05189896
16
Lattice="4.896376014909253 0.0 0.0 0.0 3.3807794458175926 -0.22784092230540395 0.0 -0.8304441045964627 15.212174899358693" Properties=species:S:1:pos:R:3:initial_magmoms:R:1:castep_labels:S:1:forces:R:3 n_minim_iter=4 energy=-86.32155629119876 stress="-0.011667945380566438 -2.145913005675767e-12 -3.520802750311302e-13 -2.145913005675767e-12 -0.0047161961738372525 0.009453544633374595 -3.520802750311302e-13 0.009453544633374595 -0.008698445699206955" free_energy=-86.32155629119876 pbc="T T T"
P        2.44794913       1.94645903       5.52833552       0.00000000 NULL       0.29698268       0.14886111      -0.38239745
P       -0.00023887       0.60387632       9.45599846       0.00000000 NULL       0.29698268      -0.14886111       0.38239745
P        2.64566851       1.57192279       1.93444303       0.00000000 NULL      -0.43763583       0.37324073      -0.09301791
P        0.19748050       0.97841256      13.04989095       0.00000000 NULL      -0.43763583      -0.37324073       0.09301791
P        4.80977159       2.55783190       5.50180539       0.00000000 NULL      -0.16944829      -0.39974296       0.17477361
P        2.36158359      -0.00749655       9.48252859       0.00000000 NULL      -0.16944829       0.39974296      -0.17477361
P        2.48687134       3.32467944       3.33639518       0.00000000 NULL       0.00081174       0.67871057      -0.20650513
P        0.03868334      -0.77434410      11.64793880       0.00000000 NULL       0.00081174      -0.67871057       0.20650513
P        3.04042479       0.34505407       6.92534955       0.00000000 NULL       0.19197857      -0.24986627       0.24311808
P        0.59223678       2.20528127       8.05898443       0.00000000 NULL       0.19197857       0.24986627      -0.24311807
P        2.70320427       2.37358354      11.20309997       0.00000000 NULL      -0.18286366      -0.16501653       0.36620949
P        0.25501627       0.17675180       3.78123401       0.00000000 NULL      -0.18286366       0.16501653      -0.36620949
P       -0.03401596       1.86211539       1.60959860       0.00000000 NULL       0.28262396      -0.24126052       0.10606853
P        2.41417205       0.68821995      13.37473538       0.00000000 NULL       0.28262396       0.24126052      -0.10606853
P        4.87825146       0.02324579       0.19098264       0.00000000 NULL       0.01755083       0.11993360      -0.31895079
P        2.43006345       2.52708956      14.79335134       0.00000000 NULL       0.01755083      -0.11993360       0.31895079
16
Lattice="4.860825303611636 0.0 0.0 0.0 3.3920864111299003 -0.24698962973036084 0.0 -0.9159025977832178 15.271295946185852" Properties=species:S:1:pos:R:3:initial_magmoms:R:1:castep_labels:S:1:forces:R:3 n_minim_iter=5 energy=-86.34943616554662 stress="-0.023344423646076612 1.7924412462425478e-11 -8.879565196509109e-12 1.7924412462425478e-11 -0.0005541394075477188 0.001505689183502432 -8.879565196509109e-12 0.001505689183502432 -0.0016290242133932462" free_energy=-86.34943616554662 pbc="T T T"
P        2.43604883       1.92134256       5.53671679       0.00000000 NULL       0.35557485       0.01856818      -0.38955900
P        0.00563618       0.55484125       9.48758953       0.00000000 NULL       0.35557485      -0.01856818       0.38955900
P        2.62494578       1.57702125       1.92935531       0.00000000 NULL      -0.51351747       0.27291499      -0.06479090
P        0.19453313       0.89916257      13.09495101       0.00000000 NULL      -0.51351747      -0.27291499       0.06479090
P        4.77347218       2.53176930       5.50841061       0.00000000 NULL      -0.15640819      -0.29012185      -0.00235868
P        2.34305952      -0.05558548       9.51589571       0.00000000 NULL      -0.15640819       0.29012185       0.00235868
P        2.46596373       3.32837291       3.32590159       0.00000000 NULL       0.10993920       0.70483646      -0.19889818
P        0.03555108      -0.85218909      11.69840473       0.00000000 NULL       0.10993920      -0.70483646       0.19889818
P        3.02018445       0.30582441       6.95036693       0.00000000 NULL       0.13817418      -0.04910907       0.17494740
P        0.58977180       2.17035940       8.07393939       0.00000000 NULL       0.13817418       0.04910907      -0.17494740
P        2.68019929       2.32126255      11.23112768       0.00000000 NULL      -0.30650312      -0.13899924       0.23930528
P        0.24978664       0.15492127       3.79317864       0.00000000 NULL      -0.30650312       0.13899924      -0.23930527
P       -0.03364102       1.85699288       1.60334546       0.00000000 NULL       0.35539884      -0.16711178       0.09228643
P        2.39677163       0.61919094      13.42096085       0.00000000 NULL       0.35539884       0.16711178      -0.09228643
P        4.84411654       0.02007262       0.19139392       0.00000000 NULL       0.01734171       0.06705883      -0.27259952
P        2.41370389       2.45611119      14.83291240       0.00000000 NULL       0.01734171      -0.06705883       0.27259952
16
Lattice="4.87575246062492 0.0 0.0 0.0 3.420638236003776 -0.24230491349863678 0.0 -0.9203702890213754 15.07361393733072" Properties=species:S:1:pos:R:3:initial_magmoms:R:1:castep_labels:S:1:forces:R:3 n_minim_iter=6 energy=-86.73725221972025 stress="-0.017874767498335647 -9.664608976874296e-13 1.357017186253347e-12 -9.664608976874296e-13 0.002290872755706924 0.0012053912378851448 1.357017186253347e-12 0.0012053912378851448 -0.00590095479709226" free_energy=-86.73725221972025 pbc="T T T"
P        2.51479009       1.93365353       5.43527030       0.00000000 NULL       0.31547649      -0.22889033      -0.12666550
P        0.07691386       0.56661442       9.39603873       0.00000000 NULL       0.31547649       0.22889033       0.12666550
P        2.59507041       1.69153244       1.87967184       0.00000000 NULL      -0.27351584       0.26716288      -0.28258044
P        0.15719418       0.80873551      12.95163719       0.00000000 NULL      -0.27351584      -0.26716288       0.28258044
P        4.76502450       2.50770822       5.43834365       0.00000000 NULL      -0.09204588      -0.19778561      -0.23276917
P        2.32714827      -0.00744027       9.39296538       0.00000000 NULL      -0.09204588       0.19778561       0.23276917
P        2.44740383       3.50976314       3.23550822       0.00000000 NULL       0.16044720       0.22255870       0.10627201
P        0.00952760      -1.00949519      11.59580081       0.00000000 NULL       0.16044720      -0.22255870      -0.10627201
P        3.05430116       0.28586221       6.88332682       0.00000000 NULL       0.06074668       0.34276401      -0.13943796
P        0.61642493       2.21440574       7.94798221       0.00000000 NULL       0.06074668      -0.34276401       0.13943796
P        2.65162730       2.34983743      11.10299895       0.00000000 NULL      -0.29548563      -0.22210224       0.29470610
P        0.21375107       0.15043052       3.72831008       0.00000000 NULL      -0.29548563       0.22210224      -0.29470610
P       -0.01605572       1.84721395       1.57805032       0.00000000 NULL       0.12381131       0.01093801       0.10777286
P        2.42182051       0.65305400      13.25325871       0.00000000 NULL       0.12381131      -0.01093801      -0.10777286
P        4.86917964       0.00572742       0.17189153       0.00000000 NULL       0.00056567      -0.02739587      -0.29782264
P        2.43130341       2.49454053      14.65941750       0.00000000 NULL       0.00056567       0.02739587       0.29782264
16
Lattice="4.872359466028235 0.0 0.0 0.0 3.3678652071720028 -0.23827563476730423 0.0 -0.8682963586185533 15.275835171830566" Properties=species:S:1:pos:R:3:initial_magmoms:R:1:castep_labels:S:1:forces:R:3 n_minim_iter=7 energy=-86.78427059871018 stress="-0.019930160911044582 2.1574483544719485e-12 -1.8823345566642467e-11 2.1574483544719485e-12 -0.009401827504182598 0.0027725687680080304 -1.8823345566642467e-11 0.0027725687680080304 0.0017717539751383516" free_energy=-86.78427059871018 pbc="T T T"
P        2.52885225       1.91278491       5.50814244       0.00000000 NULL       0.27093510      -0.21629646      -0.09950800
P        0.09267252       0.58678394       9.52941710       0.00000000 NULL       0.27093510       0.21629646       0.09950800
P        2.58602180       1.68976285       1.90056906       0.00000000 NULL      -0.24563547       0.24478344      -0.22539166
P        0.14984207       0.80980600      13.13699048       0.00000000 NULL      -0.24563547      -0.24478344       0.22539166
P        4.75672536       2.47366572       5.51233840       0.00000000 NULL      -0.03134118      -0.09664156      -0.35667652
P        2.32054563       0.02590313       9.52522114       0.00000000 NULL      -0.03134118       0.09664156       0.35667652
P        2.44206574       3.49044616       3.28151521       0.00000000 NULL       0.17015628       0.11887094       0.05331684
P        0.00588601      -0.99087731      11.75604433       0.00000000 NULL       0.17015628      -0.11887094      -0.05331684
P        3.05683227       0.30132054       6.97665590       0.00000000 NULL       0.05170661       0.27969790      -0.09242765
P        0.62065254       2.19824831       8.06090364       0.00000000 NULL       0.05170661      -0.27969790       0.09242765
P        2.64159060       2.34001792      11.26462889       0.00000000 NULL      -0.31820607      -0.19543995       0.16859793
P        0.20541087       0.15955094       3.77293065       0.00000000 NULL      -0.31820607       0.19543995      -0.16859793
P       -0.01387137       1.82000686       1.60451192       0.00000000 NULL       0.10806120       0.00272629       0.04315465
P        2.42230837       0.67956199      13.43304762       0.00000000 NULL       0.10806120      -0.00272629      -0.04315465
P        4.86720161       0.00262571       0.16765246       0.00000000 NULL      -0.00567647       0.00532411      -0.15156165
P        2.43102188       2.49694314      14.86990708       0.00000000 NULL      -0.00567647      -0.00532411       0.15156165
16
Lattice="4.8635362460001605 0.0 0.0 0.0 3.3985636140160738 -0.2630761522005136 0.0 -1.003701564492019 15.119142322246212" Properties=species:S:1:pos:R:3:initial_magmoms:R:1:castep_labels:S:1:forces:R:3 n_minim_iter=8 energy=-86.93943901235485 stress="-0.023147263921579193 4.338124021862605e-12 -1.1517558095552748e-13 4.338124021862605e-12 -0.004464146079978009 0.0004974464234847466 -1.1517558095552748e-13 0.0004974464234847466 -0.0015418074236843043" free_energy=-86.93943901235485 pbc="T T T"
P        2.58632385       1.84920929       5.42388910       0.00000000 NULL      -0.18195498       0.07937396      -0.41308734
P        0.15455572       0.54565277       9.43217708       0.00000000 NULL      -0.18195498      -0.07937396       0.41308734
P        2.55816691       1.75530684       1.82833891       0.00000000 NULL      -0.17933724      -0.09371639      -0.05543541
P        0.12639879       0.63955521      13.02772727       0.00000000 NULL      -0.17933724       0.09371639       0.05543541
P        4.73126443       2.41868756       5.38740378       0.00000000 NULL       0.27367016       0.10590237      -0.40140202
P        2.29949630      -0.02382551       9.46866239       0.00000000 NULL       0.27367016      -0.10590237       0.40140202
P        2.43102855       3.56507964       3.21295105       0.00000000 NULL       0.02661056       0.16974828      -0.10604783
P       -0.00073957      -1.17021759      11.64311512       0.00000000 NULL       0.02661056      -0.16974827       0.10604783
P        3.06622023       0.27966753       6.87745572       0.00000000 NULL       0.17986777      -0.05896323       0.23090580
P        0.63445210       2.11519452       7.97861045       0.00000000 NULL       0.17986777       0.05896323      -0.23090580
P        2.60326131       2.24616357      11.15263750       0.00000000 NULL      -0.17041318      -0.16685114       0.08636833
P        0.17149319       0.14869849       3.70342868       0.00000000 NULL      -0.17041318       0.16685114      -0.08636834
P       -0.01259683       1.81841414       1.58234561       0.00000000 NULL       0.04418571       0.22437905      -0.11828771
P        2.41917129       0.57644792      13.27372057       0.00000000 NULL       0.04418571      -0.22437905       0.11828771
P        4.86034348      -0.01098159       0.13792705       0.00000000 NULL       0.00737120      -0.07831067       0.01471721
P        2.42857536       2.40584364      14.71813912       0.00000000 NULL       0.00737120       0.07831067      -0.01471721
16
Lattice="4.874709637301888 0.0 0.0 0.0 3.399884462754642 -0.2912243050953565 0.0 -1.1343706021945335 15.088086589319712" Properties=species:S:1:pos:R:3:initial_magmoms:R:1:castep_labels:S:1:forces:R:3 n_minim_iter=9 energy=-87.06829982622298 stress="-0.018438735314903226 -4.906235306835669e-12 1.2578246163876955e-11 -4.906235306835669e-12 -0.004738860768926716 -0.004132675283086749 1.2578246163876955e-11 -0.004132675283086749 -0.0010979560615293586" free_energy=-87.06829982622298 pbc="T T T"
P        2.61067940       1.79158386       5.35727664       0.00000000 NULL      -0.02931875       0.09805429      -0.03757827
P        0.17332458       0.47393000       9.43958565       0.00000000 NULL      -0.02931874      -0.09805429       0.03757827
P        2.55328685       1.77320950       1.78058437       0.00000000 NULL      -0.20427217      -0.23782630      -0.05693745
P        0.11593203       0.49230436      13.01627791       0.00000000 NULL      -0.20427217       0.23782630       0.05693745
P        4.76113897       2.36970563       5.27544965       0.00000000 NULL       0.14090744       0.00710710      -0.20862414
P        2.32378415      -0.10419176       9.52141264       0.00000000 NULL       0.14090744      -0.00710710       0.20862414
P        2.41437486       3.59959741       3.15845441       0.00000000 NULL       0.05565205       0.09667765      -0.12754416
P       -0.02297996      -1.33408355      11.63840787       0.00000000 NULL       0.05565205      -0.09667765       0.12754416
P        3.10328719       0.23018809       6.85531876       0.00000000 NULL       0.12211374       0.06229203      -0.09370278
P        0.66593237       2.03532578       7.94154353       0.00000000 NULL       0.12211374      -0.06229203       0.09370278
P        2.58872430       2.12330435      11.12724093       0.00000000 NULL      -0.13433927      -0.25689309       0.10735825
P        0.15136949       0.14220951       3.66962136       0.00000000 NULL      -0.13433927       0.25689309      -0.10735825
P       -0.02776103       1.83112853       1.55608817       0.00000000 NULL       0.06267273       0.24126404      -0.10356745
P        2.40959379       0.43438533      13.24077411       0.00000000 NULL       0.06267273      -0.24126404       0.10356745
P        4.87271682      -0.03405685       0.12867774       0.00000000 NULL      -0.01341579      -0.01944451      -0.01276588
P        2.43536200       2.29957071      14.66818454       0.00000000 NULL      -0.01341579       0.01944451       0.01276588
16
Lattice="4.901931126652498 0.0 0.0 0.0 3.414432166374546 -0.30389971111703284 0.0 -1.195985583833914 15.09394910131374" Properties=species:S:1:pos:R:3:initial_magmoms:R:1:castep_labels:S:1:forces:R:3 n_minim_iter=10 energy=-87.17188671169122 stress="-0.014963338650840149 -1.5364514221080983e-11 -5.6639996151819525e-12 -1.5364514221080983e-11 -0.003310445635167832 -0.004127235818244122 -5.6639996151819525e-12 -0.004127235818244122 -0.0029356567795390883" free_energy=-87.17188671169122 pbc="T T T"
P        2.65376458       1.79951202       5.35710884       0.00000000 NULL      -0.13294207      -0.07187572      -0.26863683
P        0.20279902       0.41893457       9.43294055       0.00000000 NULL      -0.13294207       0.07187572       0.26863683
P        2.54654150       1.78774964       1.74447068       0.00000000 NULL      -0.15518932      -0.08693197      -0.03397449
P        0.09557594       0.43069694      13.04557871       0.00000000 NULL      -0.15518932       0.08693197       0.03397449
P        4.80769947       2.34619935       5.20150978       0.00000000 NULL       0.14434256       0.13457451      -0.33324904
P        2.35673390      -0.12775277       9.58853962       0.00000000 NULL       0.14434256      -0.13457451       0.33324904
P        2.39889172       3.66454814       3.10236554       0.00000000 NULL       0.07534374      -0.14426338      -0.03629262
P       -0.05207384      -1.44610155      11.68768386       0.00000000 NULL       0.07534374       0.14426338       0.03629263
P        3.15965092       0.20418919       6.81217184       0.00000000 NULL       0.22491236       0.28910526       0.28642265
P        0.70868535       2.01425739       7.97787755       0.00000000 NULL       0.22491236      -0.28910527      -0.28642265
P        2.58494770       2.03669215      11.16053148       0.00000000 NULL      -0.13629568      -0.11041786      -0.08458998
P        0.13398213       0.18175444       3.62951791       0.00000000 NULL      -0.13629568       0.11041786       0.08458997
P       -0.04600399       1.87862413       1.52466059       0.00000000 NULL       0.03086629       0.06086741       0.05430980
P        2.40496158       0.33982245      13.26538880       0.00000000 NULL       0.03086629      -0.06086741      -0.05430980
P        4.89870275      -0.05025095       0.12471887       0.00000000 NULL      -0.05103787       0.12520761      -0.10680326
P        2.44773719       2.26869753      14.66533052       0.00000000 NULL      -0.05103787      -0.12520761       0.10680326
16
Lattice="4.920366429996609 0.0 0.0 0.0 3.4168249562177238 -0.3063638944432389 0.0 -1.2014669284004935 15.170714075838225" Properties=species:S:1:pos:R:3:initial_magmoms:R:1:castep_labels:S:1:forces:R:3 n_minim_iter=11 energy=-87.25646803820352 stress="-0.011974938182891937 -5.319439546199687e-12 -4.039831717601757e-12 -5.319439546199687e-12 0.0008357715732090301 -0.000936537135818353 -4.039831717601757e-12 -0.000936537135818353 -0.0034467810359565" free_energy=-87.25646803820352 pbc="T T T"
P        2.68811493       1.82468582       5.39143580       0.00000000 NULL      -0.03742908       0.04878706      -0.15285808
P        0.22793171       0.39067221       9.47291438       0.00000000 NULL      -0.03742908      -0.04878706       0.15285808
P        2.52286631       1.81743169       1.72990894       0.00000000 NULL      -0.07865219      -0.11448734      -0.05246914
P        0.06268310       0.39792634      13.13444124       0.00000000 NULL      -0.07865219       0.11448734       0.05246914
P        4.84530533       2.34802314       5.15085093       0.00000000 NULL       0.12189311       0.02780728      -0.16407700
P        2.38512212      -0.13266511       9.71349925       0.00000000 NULL       0.12189311      -0.02780728       0.16407700
P        2.37900037       3.67930641       3.04983780       0.00000000 NULL       0.10559979      -0.07430060       0.38310189
P       -0.08118285      -1.46394838      11.81451238       0.00000000 NULL       0.10559979       0.07430060      -0.38310189
P        3.24559619       0.23270329       6.84101170       0.00000000 NULL       0.13111364       0.09906279       0.16111305
P        0.78541297       1.98265474       8.02333848       0.00000000 NULL       0.13111364      -0.09906279      -0.16111305
P        2.57115450       1.98527388      11.23011638       0.00000000 NULL      -0.13348451      -0.11901058       0.05833824
P        0.11097129       0.23008415       3.63423380       0.00000000 NULL      -0.13348451       0.11901058      -0.05833824
P       -0.06617826       1.90060334       1.51619191       0.00000000 NULL      -0.02194282       0.00223625      -0.09220884
P        2.39400495       0.31475470      13.34815827       0.00000000 NULL      -0.02194282      -0.00223625       0.09220884
P        4.90485002      -0.01891732       0.10947006       0.00000000 NULL      -0.08709794       0.03471641       0.18493847
P        2.44466681       2.23427535      14.75488013       0.00000000 NULL      -0.08709794      -0.03471641      -0.18493847
16
Lattice="4.936929280200122 0.0 0.0 0.0 3.4108451907000386 -0.3047388791617595 0.0 -1.1861187692108177 15.242978320756036" Properties=species:S:1:pos:R:3:initial_magmoms:R:1:castep_labels:S:1:forces:R:3 n_minim_iter=12 energy=-87.33600411485993 stress="-0.01001838650194055 -9.42841337155357e-12 -1.0079138119940821e-11 -9.42841337155357e-12 0.0024826458278896305 0.00030655397791631167 -1.0079138119940821e-11 0.00030655397791631167 -0.005381990573682547" free_energy=-87.33600411485993 pbc="T T T"
P        2.73099048       1.86543270       5.42593623       0.00000000 NULL      -0.03443932      -0.01657913       0.10167691
P        0.26252584       0.35929372       9.51230322       0.00000000 NULL      -0.03443932       0.01657913      -0.10167691
P        2.49927961       1.83126417       1.72031417       0.00000000 NULL      -0.05315013      -0.05220604       0.18288663
P        0.03081497       0.39346225      13.21792528       0.00000000 NULL      -0.05315013       0.05220604      -0.18288663
P        4.88126858       2.34364554       5.10974408       0.00000000 NULL       0.20840036      -0.00875266      -0.14962360
P        2.41280394      -0.11891911       9.82849537       0.00000000 NULL       0.20840036       0.00875266       0.14962360
P        2.36766747       3.68867416       3.07059826       0.00000000 NULL       0.02017355      -0.09532963       0.12058891
P       -0.10079717      -1.46394774      11.86764119       0.00000000 NULL       0.02017355       0.09532963      -0.12058891
P        3.33348821       0.26074458       6.87992215       0.00000000 NULL      -0.00510721       0.14274296       0.04363284
P        0.86502357       1.96398184       8.05831730       0.00000000 NULL      -0.00510721      -0.14274296      -0.04363284
P        2.55003108       1.93948253      11.30469248       0.00000000 NULL      -0.01205256      -0.07569605      -0.04804582
P        0.08156644       0.28524389       3.63354697       0.00000000 NULL      -0.01205256       0.07569605       0.04804582