16
Lattice="5.3539222198359155 -0.12007696829375517 1.0715348894256205 0.3065299489830987 6.798305682685633 0.9237545151824677 3.978933872272547 3.159718714246008 10.180221026653689" Properties=species:S:1:pos:R:3:initial_magmoms:R:1:castep_labels:S:1:forces:R:3 n_minim_iter=1 energy=-85.53432010838935 stress="0.00014361241183358207 3.5083760212146315e-05 4.105960479079863e-05 3.5083760212146315e-05 8.598562912806595e-05 -0.00011946416226552038 4.105960479079863e-05 -0.00011946416226552038 0.0003217821404265639" free_energy=-85.53432010838935 pbc="T T T"
P        6.81895086       7.75599405       7.04785204       0.00000000 NULL      -0.00447302      -0.01477179       0.01736652
P        5.91012745       3.07296881       3.59147982       0.00000000 NULL       0.01634016      -0.00856360       0.01185960
P        4.95247300       3.30623755       6.69086123       0.00000000 NULL      -0.00989594       0.01419320      -0.02277283
P        6.39066072       8.15941642      10.74967488       0.00000000 NULL      -0.01368897      -0.00870725      -0.01254904
P        3.94383113       4.06573953       1.85453556       0.00000000 NULL       0.01136678       0.00580125       0.00560161
P        3.53731283       6.26306708       7.47712566       0.00000000 NULL      -0.00512933       0.00194899       0.01587749
P        3.38733162       5.70586329       9.61255388       0.00000000 NULL       0.00494152       0.00463595      -0.01097713
P        4.75285620       1.79939621       5.02885267       0.00000000 NULL       0.01399978       0.01867973      -0.01768967
P        5.79374247       4.77358868       5.04283251       0.00000000 NULL       0.00634216      -0.00347615       0.00304513
P        5.72007340       6.22664134       9.89762266       0.00000000 NULL      -0.01141137       0.00134005      -0.01541671
P        6.70560052       4.50260899      10.91422879       0.00000000 NULL      -0.00409054      -0.01566728      -0.01511069
P        2.65550162       2.39481718       2.75972734       0.00000000 NULL      -0.02055303       0.00527008       0.00092049
P        5.83102782       5.95144001       7.71918477       0.00000000 NULL      -0.01000615       0.00596360       0.02011633
P        2.91087685       4.16728144       6.93198739       0.00000000 NULL       0.01701402      -0.00134351       0.00401389
P        3.90045379       5.75717078       4.04409377       0.00000000 NULL      -0.01467999       0.00698939       0.01523085
P        2.57347008       4.24207537       4.76389397       0.00000000 NULL       0.02392392      -0.01229266       0.00048415
16
Lattice="5.353008370381274 -0.1201329360245024 1.0708806841453677 0.30616780063814614 6.797757672261198 0.9243220912794989 3.9776905361526214 3.160628119379002 10.17676148489605" Properties=species:S:1:pos:R:3:initial_magmoms:R:1:castep_labels:S:1:forces:R:3 n_minim_iter=2 energy=-85.53437042118031 stress="-0.00011935198941748162 7.455130720856647e-06 9.912746721837471e-06 7.455130720856647e-06 -0.00012323971027031433 -2.840236240295946e-05 9.912746721837471e-06 -2.840236240295946e-05 -0.00010238251662088296" free_energy=-85.53437042118031 pbc="T T T"
P        6.81719424       7.75587038       7.04608009       0.00000000 NULL       0.00070010      -0.01205235       0.01756964
P        5.90893630       3.07289109       3.59035557       0.00000000 NULL       0.01596316      -0.00444848       0.00351388
P        4.95119354       3.30667216       6.68856631       0.00000000 NULL      -0.00806305       0.01197670      -0.01681695
P        6.38875402       8.15979118      10.74652791       0.00000000 NULL      -0.01696704      -0.00356736      -0.01479706
P        3.94298312       4.06545851       1.85424647       0.00000000 NULL       0.01639091       0.00569360       0.00922772
P        3.53612580       6.26333433       7.47514321       0.00000000 NULL      -0.00567438       0.00547785       0.00523230
P        3.38612677       5.70648815       9.60963394       0.00000000 NULL       0.00654031       0.00386372      -0.00421425
P        4.75182859       1.79977631       5.02698547       0.00000000 NULL       0.00701079       0.01544303      -0.01783252
P        5.79240089       4.77356383       5.04138506       0.00000000 NULL       0.00886500      -0.00112637       0.00206575
P        5.71839956       6.22715020       9.89454580       0.00000000 NULL      -0.01266632       0.00312339      -0.01450908
P        6.70381324       4.50332472      10.91050490       0.00000000 NULL      -0.00512712      -0.02172756      -0.01253846
P        2.65477662       2.39486994       2.75892717       0.00000000 NULL      -0.01840260       0.00194946       0.00789805
P        5.82945280       5.95169315       7.71698049       0.00000000 NULL      -0.01012751       0.00066096       0.01492734
P        2.90997642       4.16769219       6.92990831       0.00000000 NULL       0.01426107      -0.00403983       0.01057662
P        3.89935414       5.75702681       4.04327218       0.00000000 NULL      -0.01226464       0.01461787       0.01164129
P        2.57274591       4.24216172       4.76261673       0.00000000 NULL       0.01956130      -0.01584461      -0.00194429
16
Lattice="5.354230335494292 -0.12031838595146559 1.0701113643171654 0.3055233351669834 6.800496051387014 0.9263587913790141 3.9772597028945293 3.1646895293618886 10.176050945674758" Properties=species:S:1:pos:R:3:initial_magmoms:R:1:castep_labels:S:1:forces:R:3 n_minim_iter=3 energy=-85.53443667715189 stress="8.00107070154533e-05 -5.002728328528915e-05 -1.3193548704240648e-05 -5.002728328528915e-05 0.00021374076549332603 0.00019331520277834568 -1.3193548704240648e-05 0.00019331520277834568 -4.686081260783867e-05" free_energy=-85.53443667715189 pbc="T T T"
P        6.81738512       7.76010531       7.04724082       0.00000000 NULL      -0.00205913      -0.01100158       0.01573545
P        5.91001365       3.07452439       3.59034010       0.00000000 NULL       0.01649408       0.00449002       0.00124794
P        4.95122550       3.30980142       6.68790325       0.00000000 NULL      -0.00938697       0.01049943      -0.01631137
P        6.38811819       8.16554155      10.74683306       0.00000000 NULL      -0.01500447      -0.00927292      -0.01545036
P        3.94365425       4.06727589       1.85502804       0.00000000 NULL       0.01263727      -0.00292316       0.00037082
P        3.53550507       6.26777295       7.47597067       0.00000000 NULL      -0.00471763       0.00004351      -0.00610211
P        3.38548937       5.71141852       9.60976937       0.00000000 NULL      -0.00200993       0.00712469       0.00858359
P        4.75244867       1.80190906       5.02608321       0.00000000 NULL       0.00623760       0.01573857      -0.00825241
P        5.79299113       4.77636101       5.04168223       0.00000000 NULL       0.00874521      -0.00446375      -0.00145502
P        5.71793392       6.23212275       9.89439991       0.00000000 NULL      -0.00764825       0.00422896      -0.00505304
P        6.70376995       4.50750479      10.90959268       0.00000000 NULL      -0.00429240      -0.00887119      -0.00432803
P        2.65457116       2.39643868       2.75915899       0.00000000 NULL      -0.01251788      -0.00243982       0.00222426
P        5.82932143       5.95584808       7.71756689       0.00000000 NULL      -0.00933782       0.00040320       0.00819785
P        2.90981953       4.17111331       6.93020539       0.00000000 NULL       0.01774804      -0.00139975       0.01161385
P        3.89911797       5.76028636       4.04440755       0.00000000 NULL      -0.01030570       0.01020751       0.01093885
P        2.57284289       4.24473610       4.76307193       0.00000000 NULL       0.01541797      -0.01236372      -0.00196026
16
Lattice="5.354864173168017 -0.12026048455940407 1.0692359376016292 0.3058988782156612 6.797989546661315 0.9239954903096543 3.976317557979239 3.160459749738904 10.174491672440421" Properties=species:S:1:pos:R:3:initial_magmoms:R:1:castep_labels:S:1:forces:R:3 n_minim_iter=4 energy=-85.53459419631514 stress="0.00019113245677216227 -4.8592609075859055e-05 -2.1027621761595562e-05 -4.8592609075859055e-05 -1.6577093772386395e-05 -9.026275573834477e-05 -2.1027621761595562e-05 -9.026275573834477e-05 -0.00012453218183048698" free_energy=-85.53459419631514 pbc="T T T"
P        6.81769897       7.75495459       7.04451194       0.00000000 NULL      -0.00474218      -0.00112666       0.00980458
P        5.91144922       3.07256786       3.58858619       0.00000000 NULL       0.00515354       0.00422713      -0.01050863
P        4.95055281       3.30747626       6.68502486       0.00000000 NULL       0.00781849       0.00961552      -0.00795527
P        6.38690965       8.15930467      10.74231783       0.00000000 NULL       0.00031754      -0.00290565       0.00118156
P        3.94505190       4.06578448       1.85332058       0.00000000 NULL      -0.00809460      -0.00133554      -0.00549204
P        3.53488984       6.26360987       7.47359818       0.00000000 NULL      -0.00344514       0.00909998      -0.00512530
P        3.38495157       5.70679705       9.60732482       0.00000000 NULL      -0.01148077       0.00078908       0.01071808
P        4.75290206       1.80086926       5.02388343       0.00000000 NULL       0.00853417      -0.00684790      -0.00609971
P        5.79382573       4.77334993       5.03920944       0.00000000 NULL       0.00831778       0.00843742       0.00465563
P        5.71690589       6.22729438       9.89079587       0.00000000 NULL      -0.00460958      -0.01052615       0.01366992
P        6.70295131       4.50182401      10.90650107       0.00000000 NULL       0.00032964       0.00362019      -0.00530779
P        2.65369099       2.39498139       2.75820970       0.00000000 NULL       0.00791450      -0.00408882      -0.00609268
P        5.82873404       5.95178125       7.71547337       0.00000000 NULL      -0.00931156      -0.00211346      -0.00844917
P        2.91026145       4.16743568       6.92896453       0.00000000 NULL       0.00614173      -0.00285718       0.00315693
P        3.89873035       5.75798431       4.04253418       0.00000000 NULL      -0.00561297       0.00451608       0.01254281
P        2.57381292       4.24110050       4.76118600       0.00000000 NULL       0.00276941      -0.00850404      -0.00069892
16
Lattice="5.35332368746759 -0.11966027301895822 1.0695103156597439 0.30646488939405436 6.79789470457577 0.9247606602788644 3.975559413585838 3.1615777723740255 10.177061381639346" Properties=species:S:1:pos:R:3:initial_magmoms:R:1:castep_labels:S:1:forces:R:3 n_minim_iter=5 energy=-85.53462651845881 stress="-5.353876685986398e-05 1.0556331037349177e-05 -3.3661272826624535e-05 1.0556331037349177e-05 -1.0051342688137249e-05 3.45346185354117e-06 -3.3661272826624535e-05 3.45346185354117e-06 5.818725488371274e-05" free_energy=-85.53462651845881 pbc="T T T"
P        6.81650165       7.75583232       7.04698741       0.00000000 NULL      -0.00161753      -0.00060804       0.00999093
P        5.91024970       3.07333162       3.58967796       0.00000000 NULL       0.00098103       0.00897565      -0.00825405
P        4.94945798       3.30855654       6.68662814       0.00000000 NULL       0.01476931       0.00447082      -0.01124695
P        6.38579431       8.16047863      10.74531404       0.00000000 NULL      -0.00084593      -0.00183480       0.00179217
P        3.94441278       4.06621389       1.85412753       0.00000000 NULL      -0.01051348      -0.00382303      -0.00884491
P        3.53446487       6.26444913       7.47582238       0.00000000 NULL      -0.00624095       0.00856625      -0.00220131
P        3.38457644       5.70778819       9.61001022       0.00000000 NULL      -0.01067759       0.00254730       0.00865068
P        4.75186781       1.80179490       5.02502613       0.00000000 NULL       0.00528007      -0.00587613      -0.00355351
P        5.79277663       4.77419175       5.04081079       0.00000000 NULL       0.00964498       0.00773737       0.00397240
P        5.71581248       6.22844055       9.89352677       0.00000000 NULL      -0.00267213      -0.00933476       0.01084957
P        6.70150187       4.50308505      10.90924258       0.00000000 NULL       0.00030152       0.00447169       0.00110816
P        2.65306101       2.39537998       2.75905971       0.00000000 NULL       0.01378010      -0.00866773      -0.01052235
P        5.82755038       5.95279623       7.71782229       0.00000000 NULL      -0.00715580      -0.00401617      -0.00483297
P        2.91005686       4.16811738       6.93098661       0.00000000 NULL      -0.00193183       0.00178905       0.00028231
P        3.89805010       5.75864986       4.04411851       0.00000000 NULL      -0.00593568       0.00631630       0.01091731
P        2.57370768       4.24143617       4.76260271       0.00000000 NULL       0.00283391      -0.01071377       0.00189251
16
Lattice="5.353819092327989 -0.11902722706729729 1.0716155070887685 0.307585643277967 6.7980869607372165 0.9251552650875507 3.9801219555934764 3.162569501943068 10.178082657967376" Properties=species:S:1:pos:R:3:initial_magmoms:R:1:castep_labels:S:1:forces:R:3 n_minim_iter=6 energy=-85.53468407272248 stress="-1.71697459123705e-05 1.1852076063688631e-06 0.0002731829520197017 1.1852076063688631e-06 1.7990851744948045e-05 5.6596724510608105e-06 0.0002731829520197017 5.6596724510608105e-06 -2.5801601487767416e-05" free_energy=-85.53468407272248 pbc="T T T"
P        6.82018954       7.75676230       7.05044803       0.00000000 NULL      -0.00465430       0.00295167       0.00361556
P        5.91256627       3.07451766       3.59166584       0.00000000 NULL       0.00503912       0.01216770      -0.00562375
P        4.95303026       3.30999333       6.68746797       0.00000000 NULL       0.01323440      -0.00030678      -0.00891562
P        6.39080133       8.16161464      10.74729053       0.00000000 NULL       0.00115288      -0.00521130       0.00594731
P        3.94551891       4.06671450       1.85556035       0.00000000 NULL      -0.01825906      -0.00095062      -0.01422783
P        3.53788657       6.26577179       7.47695176       0.00000000 NULL      -0.00293111       0.00281821      -0.00064004
P        3.38875267       5.70893506       9.61135676       0.00000000 NULL      -0.00831271      -0.00136637       0.00139477
P        4.75462534       1.80265465       5.02618467       0.00000000 NULL       0.00830110      -0.00720361       0.00228930
P        5.79604000       4.77545628       5.04325153       0.00000000 NULL       0.00941650       0.00881632      -0.00149893
P        5.72024235       6.22928903       9.89571548       0.00000000 NULL      -0.00107635      -0.00646594       0.00866926
P        6.70645991       4.50427552      10.91115649       0.00000000 NULL       0.00141462       0.00263364       0.00372640
P        2.65469336       2.39552087       2.75973189       0.00000000 NULL       0.00736103      -0.00800359      -0.00675281
P        5.83087449       5.95377977       7.71995148       0.00000000 NULL      -0.00415336      -0.00372120      -0.00549935
P        2.91372318       4.16882093       6.93212130       0.00000000 NULL      -0.00652065       0.00685628       0.00093901
P        3.89986089       5.75989418       4.04646659       0.00000000 NULL       0.00099080       0.00516310       0.01242435
P        2.57668087       4.24125880       4.76353397       0.00000000 NULL      -0.00100292      -0.00817751       0.00415239
16
Lattice="5.35422425488604 -0.117424348699684 1.0691875908475805 0.30917490038328077 6.797756169631489 0.925369699226145 3.9771707651643693 3.1640613709498875 10.17615982645885" Properties=species:S:1:pos:R:3:initial_magmoms:R:1:castep_labels:S:1:forces:R:3 n_minim_iter=7 energy=-85.53484631226716 stress="2.3052913176816213e-05 0.0001703371140923396 -1.2974573045705295e-05 0.0001703371140923396 0.00010276893862197016 -2.6978217539163002e-05 -1.2974573045705295e-05 -2.6978217539163002e-05 -8.982464932801043e-05" free_energy=-85.53484631226716 pbc="T T T"
P        6.82001087       7.75784949       7.04985602       0.00000000 NULL      -0.00140825       0.00321071       0.00109161
P        5.91411129       3.07725976       3.58814121       0.00000000 NULL      -0.00088707       0.00767059       0.00496636
P        4.95317905       3.31291800       6.68280233       0.00000000 NULL       0.01420564      -0.00569879       0.00250065
P        6.38849071       8.16277969      10.74402175       0.00000000 NULL      -0.00728994       0.00074049      -0.00045620
P        3.94582239       4.06741110       1.85306274       0.00000000 NULL      -0.00922895      -0.00468008       0.00128495
P        3.53592240       6.26805644       7.47528551       0.00000000 NULL      -0.00509776      -0.00449333       0.00667381
P        3.38540275       5.71057664       9.61095546       0.00000000 NULL      -0.00073066      -0.00387854      -0.01664621
P        4.75503956       1.80421641       5.02271111       0.00000000 NULL       0.00979478       0.00147786      -0.00399027
P        5.79793845       4.77803897       5.04130783       0.00000000 NULL       0.00307813       0.00603163      -0.00748821
P        5.71757937       6.22995101       9.89410516       0.00000000 NULL      -0.00951428       0.00217023      -0.01064175
P        6.70382845       4.50612753      10.90751137       0.00000000 NULL       0.01025196      -0.01043477       0.00632545
P        2.65529477       2.39525705       2.75760134       0.00000000 NULL       0.00424450      -0.00533142      -0.00062326
P        5.82856828       5.95504622       7.71741043       0.00000000 NULL      -0.00097389       0.00027451       0.00461446
P        2.91311310       4.16980354       6.93153701       0.00000000 NULL      -0.00403385       0.01150182      -0.00410713
P        3.89899645       5.76233351       4.04719585       0.00000000 NULL      -0.00283295      -0.00786464       0.01740021
P        2.57760859       4.23977925       4.76260583       0.00000000 NULL       0.00042261       0.00930374      -0.00090448
16
Lattice="5.354232744314391 -0.1186833775907077 1.0690957099762726 0.3074372589507607 6.796424143311143 0.9258379201195727 3.975912861571794 3.1629645970436466 10.177768038075085" Properties=species:S:1:pos:R:3:initial_magmoms:R:1:castep_labels:S:1:forces:R:3 n_minim_iter=8 energy=-85.53487947597357 stress="2.077441040963478e-05 -4.530171571848588e-05 -2.1952943921404266e-06 -4.530171571848588e-05 -2.1703176149147066e-05 7.3265822567745535e-06 -2.1952943921404266e-06 7.3265822567745535e-06 1.6670814926942166e-05" free_energy=-85.53487947597357 pbc="T T T"
P        6.81768979       7.75489549       7.05146774       0.00000000 NULL       0.00050681       0.01193262      -0.00184928
P        5.91343106       3.07561224       3.58843703       0.00000000 NULL       0.00253524       0.00850382       0.00516536
P        4.95238344       3.31159852       6.68336985       0.00000000 NULL       0.00939041      -0.00607504       0.00427210
P        6.38575669       8.16002836      10.74574857       0.00000000 NULL      -0.00516039       0.00256844       0.00203223
P        3.94456086       4.06566713       1.85321044       0.00000000 NULL      -0.00636551      -0.00073847       0.00007131
P        3.53379938       6.26655751       7.47662809       0.00000000 NULL      -0.00264514      -0.00296897       0.01099894
P        3.38329268       5.70918952       9.61274042       0.00000000 NULL      -0.00006707      -0.00042572      -0.02029634
P        4.75467139       1.80294876       5.02312050       0.00000000 NULL       0.00809933      -0.00197520      -0.00154680
P        5.79688466       4.77613984       5.04213532       0.00000000 NULL       0.00459957       0.00867503      -0.00980996
P        5.71534138       6.22762852       9.89584469       0.00000000 NULL      -0.00776751      -0.00165351      -0.01637632
P        6.70223383       4.50400565      10.90910356       0.00000000 NULL       0.00475502      -0.01291570       0.00686302
P        2.65473206       2.39405511       2.75784894       0.00000000 NULL       0.00019169      -0.00664394      -0.00146496
P        5.82644839       5.95275574       7.71868784       0.00000000 NULL      -0.00408228      -0.00501009       0.01216226
P        2.91187874       4.16869119       6.93282985       0.00000000 NULL      -0.00274380       0.00511048      -0.00879750
P        3.89711552       5.76069324       4.04845919       0.00000000 NULL       0.00585405      -0.00302595       0.01456020
P        2.57659655       4.23820395       4.76347906       0.00000000 NULL      -0.00710042       0.00464220       0.00401572
16
Lattice="5.352551193181891 -0.11814699176938238 1.069639508573972 0.3081548773209469 6.795077445710874 0.9254922711801369 3.9751870581162496 3.16173134834001 10.181760300018004" Properties=species:S:1:pos:R:3:initial_magmoms:R:1:castep_labels:S:1:forces:R:3 n_minim_iter=9 energy=-85.53501916205505 stress="-0.00012753449965988904 -7.777319857542367e-05 -4.97564387868657e-06 -7.777319857542367e-05 0.000199428708312429 -9.746274800005385e-05 -4.97564387868657e-06 -9.746274800005385e-05 -3.3880100930253996e-05" free_energy=-85.53501916205505 pbc="T T T"
P        6.81622900       7.75397223       7.05549610       0.00000000 NULL       0.00288052      -0.00095642       0.00197754
P        5.91324836       3.07720636       3.58944225       0.00000000 NULL       0.00270932      -0.00020462       0.00584184
P        4.95366454       3.31131846       6.68424385       0.00000000 NULL      -0.00279134      -0.00193987       0.00560822
P        6.38340150       8.15772962      10.74916775       0.00000000 NULL      -0.00887147      -0.00191987       0.00288411
P        3.94244388       4.06474253       1.85287356       0.00000000 NULL      -0.00416612      -0.00232605      -0.00171913
P        3.53227617       6.26572631       7.48006961       0.00000000 NULL      -0.00236872       0.00273221      -0.00239386
P        3.38191615       5.70779409       9.61498744       0.00000000 NULL       0.00279879      -0.00122665      -0.00346746
P        4.75553262       1.80252127       5.02375473       0.00000000 NULL      -0.00121762       0.00422311      -0.00227994
P        5.79772598       4.77711919       5.04323679       0.00000000 NULL      -0.00218284       0.00463606      -0.00513096
P        5.71263182       6.22501732       9.89849612       0.00000000 NULL       0.00403925      -0.00772763       0.00683172
P        6.70131562       4.50104694      10.91359652       0.00000000 NULL      -0.00740812      -0.00486475      -0.00499547
P        2.65497024       2.39200832       2.75778732       0.00000000 NULL      -0.00542601      -0.00248367      -0.00226076
P        5.82369867       5.95066798       7.72252024       0.00000000 NULL       0.01117339       0.00956226      -0.00528080
P        2.91188344       4.16826897       6.93507476       0.00000000 NULL      -0.00030893      -0.00516418      -0.00954047
P        3.89587485       5.76046677       4.05325294       0.00000000 NULL       0.01054117       0.00245599       0.00586542
P        2.57693973       4.23593484       4.76549826       0.00000000 NULL       0.00059874       0.00520408       0.00806001
16
Lattice="5.354112519184461 -0.11640055539568696 1.0700783001462697 0.3100688711154232 6.791211938222168 0.927400939665838 3.9775358348356256 3.163323614971003 10.185319383834305" Properties=species:S:1:pos:R:3:initial_magmoms:R:1:castep_labels:S:1:forces:R:3 n_minim_iter=10 energy=-85.53506614833213 stress="2.8403838220289063e-05 1.1262537304322306e-05 4.790449656940527e-06 1.1262537304322306e-05 -4.390133931324057e-06 1.2784645541707036e-05 4.790449656940527e-06 1.2784645541707036e-05 1.305525365522523e-05" free_energy=-85.53506614833213 pbc="T T T"
P        6.82041604       7.75289668       7.06009696       0.00000000 NULL       0.00415449       0.00008389       0.00143677
P        5.91635750       3.07838986       3.59129806       0.00000000 NULL       0.00421930      -0.00038482       0.00483007
P        4.95699289       3.31237165       6.68645312       0.00000000 NULL      -0.00496664      -0.00672778       0.00437099
P        6.38720602       8.15689611      10.75409927       0.00000000 NULL      -0.01336375       0.00245770       0.00038337
P        3.94421818       4.06357513       1.85422248       0.00000000 NULL      -0.00425339      -0.00317832      -0.00550874
P        3.53476655       6.26491646       7.48396378       0.00000000 NULL      -0.00107682       0.01337377      -0.00797225
P        3.38438419       5.70762832       9.61854957       0.00000000 NULL       0.00152108      -0.00918320       0.00453884
P        4.75826141       1.80389699       5.02518577       0.00000000 NULL      -0.00153981       0.00578453      -0.00237026
P        5.80152161       4.77758476       5.04567281       0.00000000 NULL      -0.00774842       0.00895796      -0.00435501
P        5.71570468       6.22469632       9.90253541       0.00000000 NULL       0.00123817      -0.00181880       0.00783268
P        6.70493932       4.50208431      10.91782737       0.00000000 NULL      -0.00147691      -0.00546263      -0.00017229
P        2.65667938       2.39134124       2.75882080       0.00000000 NULL      -0.00549919      -0.00799550      -0.00407390
P        5.82673900       5.95024087       7.72653183       0.00000000 NULL       0.01082489       0.00472808      -0.00092140
P        2.91418067       4.16838825       6.93782429       0.00000000 NULL       0.00231440      -0.01127196      -0.00811391
P        3.89850497       5.75925706       4.05715135       0.00000000 NULL       0.01105938       0.00888174       0.00062034
P        2.57917669       4.23479413       4.76808284       0.00000000 NULL       0.00459324       0.00175534       0.00947469
16
Lattice="5.354344232756729 -0.11519335034527924 1.0708493733002153 0.3112610450882657 6.7862668444647 0.9292801690235136 3.9788857804038287 3.163789590921988 10.190372458601813" Properties=species:S:1:pos:R:3:initial_magmoms:R:1:castep_labels:S:1:forces:R:3 n_minim_iter=11 energy=-85.53518328253926 stress="9.455378414558623e-06 -2.426751165271562e-06 4.858427844970212e-07 -2.426751165271562e-06 2.4919800356980235e-05 3.1673162526702972e-06 4.858427844970212e-07 3.1673162526702972e-06 8.45170213640017e-06" free_energy=-85.53518328253926 pbc="T T T"
P        6.82271998       7.75009833       7.06690832       0.00000000 NULL       0.00683320       0.00780459      -0.00216871
P        5.91897388       3.07938580       3.59430271       0.00000000 NULL      -0.00032248       0.00518648      -0.00536756
P        4.95959760       3.31165586       6.68944221       0.00000000 NULL      -0.00414248      -0.00185093      -0.00004475
P        6.38633902       8.15407114      10.76048708       0.00000000 NULL      -0.00846391      -0.00131086       0.00515668
P        3.94332365       4.06072385       1.85480051       0.00000000 NULL      -0.00368628      -0.00403177      -0.00873347
P        3.53512035       6.26474429       7.48838544       0.00000000 NULL       0.01078696      -0.00796688       0.00082863
P        3.38537356       5.70504084       9.62325441       0.00000000 NULL      -0.00138616      -0.00129037       0.00077759
P        4.76064757       1.80509141       5.02635691       0.00000000 NULL      -0.00365644      -0.00207258       0.00383526
P        5.80363659       4.77876593       5.04797819       0.00000000 NULL      -0.00482091       0.00344846       0.00355798
P        5.71622992       6.22173106       9.90852979       0.00000000 NULL       0.00196905      -0.00186060       0.00004498
P        6.70674660       4.49978361      10.92378744       0.00000000 NULL      -0.00642130      -0.00514557      -0.00225413
P        2.65723158       2.38808110       2.75921478       0.00000000 NULL       0.00145541      -0.00734525      -0.00104714
P        5.82849172       5.94838858       7.73214029       0.00000000 NULL      -0.00730052      -0.00087343       0.00344187
P        2.91596665       4.16636042       6.94026288       0.00000000 NULL       0.00396379       0.00344950       0.01974276
P        3.90080539       5.75830070       4.06373986       0.00000000 NULL       0.00412388       0.00296080      -0.00138286
P        2.58136016       4.23223908       4.77283863       0.00000000 NULL       0.01106820       0.01089841      -0.01638712
16
Lattice="5.355081638450699 -0.11365584728909887 1.071730635967323 0.3126822077682652 6.78106952737629 0.9323222076580995 3.981234162497014 3.1660888110548893 10.194540911504776" Properties=species:S:1:pos:R:3:initial_magmoms:R:1:castep_labels:S:1:forces:R:3 n_minim_iter=12 energy=-85.5353154763901 stress="1.42202057671552e-05 -6.300600678753279e-07 -4.093486017266475e-06 -6.300600678753279e-07 2.0507270469500334e-05 1.4737879944226315e-05 -4.093486017266475e-06 1.4737879944226315e-05 -4.859034166210393e-06" free_energy=-85.5353154763901 pbc="T T T"
P        6.82719296       7.74943371       7.07414599       0.00000000 NULL      -0.00494084      -0.00313880       0.00005797
P        5.92234214       3.08171193       3.59690436       0.00000000 NULL      -0.00597386       0.00920356      -0.00307919
P        4.96254834       3.31180454       6.69224471       0.00000000 NULL       0.00311962       0.00153363       0.00012694
P        6.38550987       8.15281876      10.76773016       0.00000000 NULL      -0.00568626      -0.00630936       0.00169041
P        3.94239977       4.05751162       1.85485196       0.00000000 NULL       0.00499607      -0.00857937      -0.00410062
P        3.53781512       6.26473763       7.49308345       0.00000000 NULL       0.00700780      -0.01216796       0.00191684
P        3.38717525       5.70373658       9.62767028       0.00000000 NULL      -0.00389525       0.00064858       0.00460158