16
Lattice="3.214756758602706 0.0 0.0 0.0 10.351626733686466 0.0 0.0 0.0 9.947013880688214" Properties=species:S:1:pos:R:3:initial_magmoms:R:1:castep_labels:S:1:forces:R:3 n_minim_iter=1 energy=-82.00068827052334 stress="-0.002803178299825372 2.3885627001793466e-13 3.14213683697045e-13 2.3885627001793466e-13 -0.0004741596197628781 8.448065478268974e-12 3.14213683697045e-13 8.448065478268974e-12 0.0015864944894939924" free_energy=-82.00068827052334 pbc="T T T"
P        1.66940664       1.09002030      -0.09991480       0.00000000 NULL      -0.32683283      -0.31684161      -0.29352405
P        1.54535012       6.26583367      10.04692868       0.00000000 NULL       0.32683283      -0.31684161       0.29352405
P        1.54535012       4.08579306      -0.09991480       0.00000000 NULL       0.32683283       0.31684161      -0.29352405
P        1.66940664       9.26160643      10.04692868       0.00000000 NULL      -0.32683283       0.31684161       0.29352405
P        2.40807855      10.10253286       7.06025410       0.00000000 NULL      -0.00299687      -0.37473558      -0.44205589
P        0.80667821       4.92671949       2.88675978       0.00000000 NULL       0.00299687      -0.37473558       0.44205589
P        0.80667821       5.42490724       7.06025410       0.00000000 NULL       0.00299687       0.37473558      -0.44205589
P        2.40807855       0.24909388       2.88675978       0.00000000 NULL      -0.00299687       0.37473558       0.44205589
P        2.35815934       6.61385075       8.03461401       0.00000000 NULL       0.09148355       0.49761911      -0.35263186
P        0.85659742       1.43803739       1.91239987       0.00000000 NULL      -0.09148355       0.49761911       0.35263186
P        0.85659742       8.91358935       8.03461401       0.00000000 NULL      -0.09148355      -0.49761911      -0.35263186
P        2.35815934       3.73777598       1.91239987       0.00000000 NULL       0.09148355      -0.49761911       0.35263186
P        1.61434095       6.68055708       5.12762193       0.00000000 NULL      -0.09243168       0.20498963       0.60477973
P        1.60041581       1.50474372       4.81939195       0.00000000 NULL       0.09243168       0.20498963      -0.60477973
P        1.60041581       8.84688302       5.12762193       0.00000000 NULL       0.09243168      -0.20498963       0.60477973
P        1.61434095       3.67106965       4.81939195       0.00000000 NULL      -0.09243168      -0.20498963      -0.60477973
16
Lattice="3.345953470761495 0.0 0.0 0.0 10.421903616722684 0.0 0.0 0.0 9.724358115456516" Properties=species:S:1:pos:R:3:initial_magmoms:R:1:castep_labels:S:1:forces:R:3 n_minim_iter=2 energy=-82.14381433234452 stress="0.017670107063687737 -1.0249818151587282e-11 1.9293830314124727e-12 -1.0249818151587282e-11 0.0009320853422127938 3.330818809610264e-12 1.9293830314124727e-12 3.330818809610264e-12 0.0007135025185354107" free_energy=-82.14381433234452 pbc="T T T"
P        1.72287226       1.08366922      -0.11004835       0.00000000 NULL      -0.21455591      -0.29019032      -0.43315091
P        1.62308121       6.29462103       9.83440646       0.00000000 NULL       0.21455591      -0.29019032       0.43315091
P        1.62308121       4.12728259      -0.11004835       0.00000000 NULL       0.21455591       0.29019032      -0.43315091
P        1.72287226       9.33823440       9.83440646       0.00000000 NULL      -0.21455591       0.29019032       0.43315091
P        2.50621964      10.15485481       6.88358641       0.00000000 NULL      -0.14342296      -0.53029241      -0.26788984
P        0.83973383       4.94390300       2.84077170       0.00000000 NULL       0.14342297      -0.53029241       0.26788984
P        0.83973383       5.47800062       6.88358641       0.00000000 NULL       0.14342297       0.53029241      -0.26788984
P        2.50621964       0.26704881       2.84077170       0.00000000 NULL      -0.14342297       0.53029241       0.26788984
P        2.45850228       6.68034908       7.83990469       0.00000000 NULL      -0.05479357       0.40469096      -0.64742304
P        0.88745119       1.46939727       1.88445342       0.00000000 NULL       0.05479357       0.40469096       0.64742304
P        0.88745119       8.95250634       7.83990469       0.00000000 NULL       0.05479357      -0.40469096      -0.64742304
P        2.45850228       3.74155453       1.88445342       0.00000000 NULL      -0.05479357      -0.40469096       0.64742304
P        1.67607627       6.73480791       5.03833169       0.00000000 NULL       0.04391321      -0.05869621       0.46199006
P        1.66987720       1.52385610       4.68602642       0.00000000 NULL      -0.04391321      -0.05869621      -0.46199006
P        1.66987720       8.89804752       5.03833169       0.00000000 NULL      -0.04391321       0.05869621       0.46199006
P        1.67607627       3.68709571       4.68602642       0.00000000 NULL       0.04391321       0.05869621      -0.46199006
16
Lattice="3.3288028178393514 0.0 0.0 0.0 10.480487027624756 0.0 0.0 0.0 9.42923767672408" Properties=species:S:1:pos:R:3:initial_magmoms:R:1:castep_labels:S:1:forces:R:3 n_minim_iter=3 energy=-82.32987695820383 stress="-0.0005665360770211038 -2.6423946785767337e-12 9.4719587268995e-13 -2.6423946785767337e-12 -0.012556796494432757 -4.442668887692915e-12 9.4719587268995e-13 -4.442668887692915e-12 -0.020911013032716554" free_energy=-82.32987695820383 pbc="T T T"
P        1.69348149       1.06956153      -0.12557362       0.00000000 NULL      -0.10159530      -0.01341177      -0.66048195
P        1.63532133       6.30980505       9.55481130       0.00000000 NULL       0.10159530      -0.01341177       0.66048195
P        1.63532133       4.17068198      -0.12557362       0.00000000 NULL       0.10159530       0.01341177      -0.66048195
P        1.69348149       9.41092549       9.55481130       0.00000000 NULL      -0.10159530       0.01341177       0.66048195
P        2.49176953      10.18627684       6.64957536       0.00000000 NULL      -0.01665263      -0.12281654      -0.14850907
P        0.83703328       4.94603332       2.77966232       0.00000000 NULL       0.01665263      -0.12281654       0.14850907
P        0.83703328       5.53445371       6.64957536       0.00000000 NULL       0.01665263       0.12281654      -0.14850907
P        2.49176953       0.29421019       2.77966232       0.00000000 NULL      -0.01665263       0.12281654       0.14850907
P        2.45050632       6.74914134       7.57821775       0.00000000 NULL       0.10286724       0.47808245      -0.61632755
P        0.87829650       1.50889783       1.85101992       0.00000000 NULL      -0.10286724       0.47808245       0.61632755
P        0.87829650       8.97158920       7.57821775       0.00000000 NULL      -0.10286724      -0.47808245      -0.61632755
P        2.45050632       3.73134569       1.85101992       0.00000000 NULL       0.10286724      -0.47808245       0.61632755
P        1.66271698       6.78340195       4.92059192       0.00000000 NULL       0.15653970      -0.07640791      -0.04997751
P        1.66608583       1.54315844       4.50864576       0.00000000 NULL      -0.15653970      -0.07640791       0.04997751
P        1.66608583       8.93732859       4.92059192       0.00000000 NULL      -0.15653970       0.07640791      -0.04997751
P        1.66271698       3.69708507       4.50864576       0.00000000 NULL       0.15653970       0.07640790       0.04997751
16
Lattice="3.315384940178272 0.0 0.0 0.0 10.747098573985086 0.0 0.0 0.0 9.480228756201187" Properties=species:S:1:pos:R:3:initial_magmoms:R:1:castep_labels:S:1:forces:R:3 n_minim_iter=4 energy=-82.50340821116305 stress="-0.001606944755128545 2.69090439485364e-12 2.4884302260839033e-12 2.69090439485364e-12 0.009640724011517648 2.350111432502672e-12 2.4884302260839033e-12 2.350111432502672e-12 -0.007335090763773721" free_energy=-82.50340821116305 pbc="T T T"
P        1.66752800       1.07788288      -0.14638682       0.00000000 NULL      -0.30449924      -0.14836813      -0.18490801
P        1.64785694       6.45143217       9.62661558       0.00000000 NULL       0.30449924      -0.14836813       0.18490801
P        1.64785694       4.29566641      -0.14638682       0.00000000 NULL       0.30449924       0.14836813      -0.18490801
P        1.66752800       9.66921569       9.62661558       0.00000000 NULL      -0.30449924       0.14836813       0.18490801
P        2.48018205      10.42086320       6.66195775       0.00000000 NULL       0.01135120      -0.34949899       0.18161053
P        0.83520289       5.04731391       2.81827101       0.00000000 NULL      -0.01135120      -0.34949899      -0.18161053
P        0.83520289       5.69978466       6.66195775       0.00000000 NULL      -0.01135120       0.34949899       0.18161053
P        2.48018205       0.32623537       2.81827101       0.00000000 NULL       0.01135120       0.34949899      -0.18161053
P        2.44532368       6.95237398       7.59478398       0.00000000 NULL      -0.10683871       0.13905216      -0.29107708
P        0.87006126       1.57882469       1.88544478       0.00000000 NULL       0.10683871       0.13905216       0.29107708
P        0.87006126       9.16827388       7.59478398       0.00000000 NULL       0.10683870      -0.13905216      -0.29107708
P        2.44532368       3.79472460       1.88544478       0.00000000 NULL      -0.10683871      -0.13905216       0.29107708
P        1.65251697       6.96556649       4.97910108       0.00000000 NULL       0.25477123       0.09917024      -0.20320696
P        1.66286797       1.59201720       4.50112768       0.00000000 NULL      -0.25477123       0.09917024       0.20320696
P        1.66286797       9.15508137       4.97910108       0.00000000 NULL      -0.25477123      -0.09917024      -0.20320696
P        1.65251697       3.78153209       4.50112768       0.00000000 NULL       0.25477123      -0.09917024       0.20320695
16
Lattice="3.3180196529557984 0.0 0.0 0.0 10.652479764103207 0.0 0.0 0.0 9.56894737982139" Properties=species:S:1:pos:R:3:initial_magmoms:R:1:castep_labels:S:1:forces:R:3 n_minim_iter=5 energy=-82.54543590702589 stress="-9.653204506594909e-05 2.395463992320842e-12 3.325012274203614e-13 2.395463992320842e-12 -0.002742130579976886 -8.77970743474956e-12 3.325012274203614e-13 -8.77970743474956e-12 -0.001982778666167764" free_energy=-82.54543590702589 pbc="T T T"
P        1.66286295       1.06315850      -0.15323822       0.00000000 NULL      -0.34454193       0.18641633      -0.00161905
P        1.65515670       6.38939838       9.72218560       0.00000000 NULL       0.34454193       0.18641633       0.00161905
P        1.65515670       4.26308138      -0.15323822       0.00000000 NULL       0.34454193      -0.18641633      -0.00161905
P        1.66286295       9.58932127       9.72218560       0.00000000 NULL      -0.34454193      -0.18641633       0.00161905
P        2.48182235      10.32164355       6.71922868       0.00000000 NULL       0.02096709      -0.18916388       0.25061285
P        0.83619730       4.99540367       2.84971870       0.00000000 NULL      -0.02096709      -0.18916388      -0.25061285
P        0.83619730       5.65707609       6.71922868       0.00000000 NULL      -0.02096709       0.18916388       0.25061285
P        2.48182235       0.33083621       2.84971870       0.00000000 NULL       0.02096709       0.18916388      -0.25061285
P        2.44789671       6.89925839       7.65889171       0.00000000 NULL      -0.17805031       0.10276117      -0.05900485
P        0.87012294       1.57301850       1.91005567       0.00000000 NULL       0.17805031       0.10276117       0.05900485
P        0.87012294       9.07946126       7.65889171       0.00000000 NULL       0.17805031      -0.10276117      -0.05900485
P        2.44789671       3.75322138       1.91005567       0.00000000 NULL      -0.17805031      -0.10276117       0.05900485
P        1.65405435       6.90702169       5.03280666       0.00000000 NULL       0.26122787      -0.04367769      -0.19972014
P        1.66396530       1.58078181       4.53614072       0.00000000 NULL      -0.26122787      -0.04367769       0.19972014
P        1.66396530       9.07169795       5.03280666       0.00000000 NULL      -0.26122787       0.04367769      -0.19972014
P        1.65405435       3.74545807       4.53614072       0.00000000 NULL       0.26122787       0.04367769       0.19972014
16
Lattice="3.348100349479144 0.0 0.0 0.0 10.773239840688158 0.0 0.0 0.0 9.571634164555823" Properties=species:S:1:pos:R:3:initial_magmoms:R:1:castep_labels:S:1:forces:R:3 n_minim_iter=6 energy=-82.74167246203332 stress="-0.0034259383846985125 2.425712921491245e-13 1.576748055978306e-12 2.425712921491245e-13 -0.003267645251670157 -1.983255492214696e-12 1.576748055978306e-12 -1.983255492214696e-12 -0.0017716322959479974" free_energy=-82.74167246203332 pbc="T T T"
P        1.59589781       1.08397710      -0.16399044       0.00000000 NULL      -0.39474254      -0.26347892       0.10157454
P        1.75220254       6.47059702       9.73562461       0.00000000 NULL       0.39474254      -0.26347892      -0.10157454
P        1.75220254       4.30264282      -0.16399044       0.00000000 NULL       0.39474254       0.26347892       0.10157454
P        1.59589781       9.68926274       9.73562461       0.00000000 NULL      -0.39474254       0.26347892      -0.10157454
P        2.50692907      10.37693328       6.73914114       0.00000000 NULL       0.13532921       0.20446859      -0.00271485
P        0.84117128       4.99031336       2.83249303       0.00000000 NULL      -0.13532921       0.20446859       0.00271485
P        0.84117128       5.78292648       6.73914114       0.00000000 NULL      -0.13532921      -0.20446859      -0.00271485
P        2.50692907       0.39630656       2.83249303       0.00000000 NULL       0.13532921      -0.20446859       0.00271485
P        2.44022183       7.01886572       7.63469675       0.00000000 NULL      -0.00852688       0.08922161       0.17700558
P        0.90787852       1.63224580       1.93693741       0.00000000 NULL       0.00852688       0.08922161      -0.17700558
P        0.90787852       9.14099404       7.63469675       0.00000000 NULL       0.00852688      -0.08922161       0.17700558
P        2.44022183       3.75437412       1.93693741       0.00000000 NULL      -0.00852688      -0.08922161      -0.17700558
P        1.71084712       6.99204171       5.03609493       0.00000000 NULL       0.14222751       0.08533301      -0.18463387
P        1.63725323       1.60542179       4.53553923       0.00000000 NULL      -0.14222751       0.08533301       0.18463387
P        1.63725323       9.16781805       5.03609493       0.00000000 NULL      -0.14222751      -0.08533301      -0.18463387
P        1.71084712       3.78119813       4.53553923       0.00000000 NULL       0.14222751      -0.08533301       0.18463387
16
Lattice="3.3443501050410402 0.0 0.0 0.0 10.972203760037791 0.0 0.0 0.0 9.613640374323502" Properties=species:S:1:pos:R:3:initial_magmoms:R:1:castep_labels:S:1:forces:R:3 n_minim_iter=7 energy=-82.93245586757553 stress="-0.006990924886816431 1.3416443552687897e-12 5.964531059194932e-12 1.3416443552687897e-12 -0.0007097418421718113 3.700899025857673e-13 5.964531059194932e-12 3.700899025857673e-13 0.005613854082856102" free_energy=-82.93245586757553 pbc="T T T"
P        1.47539861       1.06464380      -0.16508934       0.00000000 NULL      -0.51644758       0.29146389       0.03043651
P        1.86895150       6.55074568       9.77872971       0.00000000 NULL       0.51644758       0.29146389      -0.03043651
P        1.86895150       4.42145808      -0.16508934       0.00000000 NULL       0.51644758      -0.29146389       0.03043651
P        1.47539861       9.90755996       9.77872971       0.00000000 NULL      -0.51644758      -0.29146389      -0.03043651
P        2.52006006      10.53270958       6.77941472       0.00000000 NULL      -0.04730528       0.03096841      -0.20129204
P        0.82429004       5.04660770       2.83422566       0.00000000 NULL       0.04730528       0.03096841       0.20129204
P        0.82429004       5.92559606       6.77941472       0.00000000 NULL       0.04730528      -0.03096841      -0.20129204
P        2.52006006       0.43949418       2.83422566       0.00000000 NULL      -0.04730528      -0.03096841       0.20129204
P        2.41034050       7.19576968       7.65778101       0.00000000 NULL       0.05798629      -0.28355560       0.15229554
P        0.93400960       1.70966780       1.95585936       0.00000000 NULL      -0.05798629      -0.28355560      -0.15229554
P        0.93400960       9.26253596       7.65778101       0.00000000 NULL      -0.05798629       0.28355560       0.15229554
P        2.41034050       3.77643408       1.95585936       0.00000000 NULL       0.05798629       0.28355560      -0.15229554
P        1.75997902       7.13872358       5.04765277       0.00000000 NULL      -0.13973648       0.08238846       0.03517515
P        1.58437108       1.65262170       4.56598761       0.00000000 NULL       0.13973648       0.08238846      -0.03517515
P        1.58437108       9.31958206       5.04765277       0.00000000 NULL       0.13973648      -0.08238846       0.03517515
P        1.75997902       3.83348018       4.56598761       0.00000000 NULL      -0.13973648      -0.08238846      -0.03517515
16
Lattice="3.3470155894667166 0.0 0.0 0.0 11.26501067196994 0.0 0.0 0.0 9.669611606789097" Properties=species:S:1:pos:R:3:initial_magmoms:R:1:castep_labels:S:1:forces:R:3 n_minim_iter=8 energy=-83.33080049472119 stress="-0.008656661119690016 4.459444050288248e-12 5.122000475483735e-12 4.459444050288248e-12 0.008459508630530457 6.783386011047239e-13 5.122000475483735e-12 6.783386011047239e-13 0.0285057829538927" free_energy=-83.33080049472119 pbc="T T T"
P        1.18841704       1.06707844      -0.20011777       0.00000000 NULL      -0.56810853       0.45566082       0.58948638
P        2.15859855       6.69958377       9.86972938       0.00000000 NULL       0.56810853       0.45566082      -0.58948638
P        2.15859855       4.56542690      -0.20011777       0.00000000 NULL       0.56810853      -0.45566082       0.58948638
P        1.18841704      10.19793223       9.86972938       0.00000000 NULL      -0.56810853      -0.45566082      -0.58948638
P        2.52652992      10.75641232       6.79495758       0.00000000 NULL      -0.06412667       0.00167312      -0.27044241
P        0.82048567       5.12390699       2.87465403       0.00000000 NULL       0.06412667       0.00167312       0.27044241
P        0.82048567       6.14110369       6.79495758       0.00000000 NULL       0.06412667      -0.00167312      -0.27044241
P        2.52652992       0.50859835       2.87465403       0.00000000 NULL      -0.06412667      -0.00167312       0.27044241
P        2.38633168       7.40660241       7.66926645       0.00000000 NULL       0.43348679      -0.48733442       0.33891256
P        0.96068391       1.77409708       2.00034516       0.00000000 NULL      -0.43348679      -0.48733442      -0.33891256
P        0.96068391       9.49091359       7.66926645       0.00000000 NULL      -0.43348679       0.48733442       0.33891256
P        2.38633168       3.85840826       2.00034516       0.00000000 NULL       0.43348679       0.48733442      -0.33891256
P        1.82180719       7.36042812       5.05056307       0.00000000 NULL      -0.44564986       0.15588400       0.41136006
P        1.52520840       1.72792278       4.61904853       0.00000000 NULL       0.44564986       0.15588399      -0.41136006
P        1.52520840       9.53708789       5.05056307       0.00000000 NULL       0.44564986      -0.15588399       0.41136006
P        1.82180719       3.90458255       4.61904853       0.00000000 NULL      -0.44564986      -0.15588399      -0.41136005
16
Lattice="3.3593798082163038 0.0 0.0 0.0 11.411899618054875 0.0 0.0 0.0 9.55314367898151" Properties=species:S:1:pos:R:3:initial_magmoms:R:1:castep_labels:S:1:forces:R:3 n_minim_iter=9 energy=-83.52672426121953 stress="-0.009347724899747358 -1.237957893841689e-11 1.4341825769261665e-12 -1.237957893841689e-11 0.013639249009582861 -7.14148664984754e-13 1.4341825769261665e-12 -7.14148664984754e-13 0.03417624083823983" free_energy=-83.52672426121953 pbc="T T T"
P        1.02619496       1.07195829      -0.20786679       0.00000000 NULL      -0.37083212       0.35839305       0.64364274
P        2.33318484       6.77790810       9.76101047       0.00000000 NULL       0.37083212       0.35839305      -0.64364274
P        2.33318484       4.63399152      -0.20786679       0.00000000 NULL       0.37083212      -0.35839305       0.64364274
P        1.02619496      10.33994132       9.76101047       0.00000000 NULL      -0.37083212      -0.35839305      -0.64364274
P        2.54301911      10.87373056       6.70916580       0.00000000 NULL      -0.38734820      -0.09928600      -0.38060212
P        0.81636070       5.16778075       2.84397787       0.00000000 NULL       0.38734820      -0.09928600       0.38060212
P        0.81636070       6.24411887       6.70916580       0.00000000 NULL       0.38734820       0.09928600      -0.38060212
P        2.54301911       0.53816906       2.84397787       0.00000000 NULL      -0.38734820       0.09928600       0.38060212
P        2.43096935       7.52795176       7.53354484       0.00000000 NULL       0.35484111      -0.82986552       0.31443835
P        0.92841046       1.82200195       2.01959883       0.00000000 NULL      -0.35484111      -0.82986552      -0.31443835
P        0.92841046       9.58989767       7.53354484       0.00000000 NULL      -0.35484111       0.82986552       0.31443835
P        2.43096935       3.88394786       2.01959883       0.00000000 NULL       0.35484111       0.82986552      -0.31443835
P        1.86466478       7.46663124       4.96281032       0.00000000 NULL      -0.62304683       0.30634171       0.59608257
P        1.49471503       1.76068143       4.59033336       0.00000000 NULL       0.62304682       0.30634171      -0.59608257
P        1.49471503       9.65121819       4.96281032       0.00000000 NULL       0.62304682      -0.30634171       0.59608257
P        1.86466478       3.94526838       4.59033336       0.00000000 NULL      -0.62304682      -0.30634171      -0.59608257
16
Lattice="3.3880937278168046 0.0 0.0 0.0 11.590819620556855 0.0 0.0 0.0 9.425453040942807" Properties=species:S:1:pos:R:3:initial_magmoms:R:1:castep_labels:S:1:forces:R:3 n_minim_iter=10 energy=-83.65769953072167 stress="-0.008202296751743774 6.976146902628462e-12 -2.812068634537681e-12 6.976146902628462e-12 0.014809929593130145 4.15321450881648e-13 -2.812068634537681e-12 4.15321450881648e-13 0.03211114450508125" free_energy=-83.65769953072167 pbc="T T T"
P        0.95430404       1.06309913      -0.20898525       0.00000000 NULL      -0.24061345       0.56042509       0.62012329
P        2.43378969       6.85850894       9.63443829       0.00000000 NULL       0.24061345       0.56042509      -0.62012329
P        2.43378969       4.73231068      -0.20898525       0.00000000 NULL       0.24061345      -0.56042509       0.62012329
P        0.95430404      10.52772049       9.63443829       0.00000000 NULL      -0.24061345      -0.56042509      -0.62012329
P        2.53449692      11.02902339       6.62085571       0.00000000 NULL      -0.12958078      -0.06087485      -0.57506998
P        0.85359681       5.23361358       2.80459733       0.00000000 NULL       0.12958078      -0.06087485       0.57506998
P        0.85359681       6.35720605       6.62085571       0.00000000 NULL       0.12958078       0.06087485      -0.57506998
P        2.53449692       0.56179623       2.80459733       0.00000000 NULL      -0.12958078       0.06087485       0.57506998
P        2.46710466       7.63241882       7.39616602       0.00000000 NULL       0.60908110      -0.63165282       0.41794216
P        0.92098907       1.83700901       2.02928702       0.00000000 NULL      -0.60908110      -0.63165282      -0.41794216
P        0.92098907       9.75381061       7.39616602       0.00000000 NULL      -0.60908110       0.63165282       0.41794216
P        2.46710466       3.95840080       2.02928702       0.00000000 NULL       0.60908110       0.63165282      -0.41794216
P        1.90098918       7.60353380       4.87667291       0.00000000 NULL      -0.60217759       0.32907761       0.57558723
P        1.48710455       1.80812399       4.54878013       0.00000000 NULL       0.60217759       0.32907761      -0.57558723
P        1.48710455       9.78269563       4.87667291       0.00000000 NULL       0.60217759      -0.32907761       0.57558723
P        1.90098918       3.98728582       4.54878013       0.00000000 NULL      -0.60217759      -0.32907761      -0.57558723
16
Lattice="3.381850291368938 0.0 0.0 0.0 11.725685875383467 0.0 0.0 0.0 9.293713217675778" Properties=species:S:1:pos:R:3:initial_magmoms:R:1:castep_labels:S:1:forces:R:3 n_minim_iter=11 energy=-83.8537948321628 stress="-0.009866054903785776 -1.0008816642511456e-11 -2.816310647707243e-12 -1.0008816642511456e-11 0.011906327967133621 5.442826267771426e-12 -2.816310647707243e-12 5.442826267771426e-12 0.03101228841805276" free_energy=-83.8537948321628 pbc="T T T"
P        0.86851436       1.08038980      -0.20668010       0.00000000 NULL      -0.11578370       0.21609577       0.56476073
P        2.51333593       6.94323274       9.50039332       0.00000000 NULL       0.11578370       0.21609577      -0.56476073
P        2.51333593       4.78245313      -0.20668010       0.00000000 NULL       0.11578370      -0.21609577       0.56476073
P        0.86851436      10.64529607       9.50039332       0.00000000 NULL      -0.11578370      -0.21609577      -0.56476073
P        2.50359066      11.14163268       6.49515710       0.00000000 NULL      -0.16663167      -0.04492351      -0.56221741
P        0.87825963       5.27878974       2.79855612       0.00000000 NULL       0.16663167      -0.04492351       0.56221741
P        0.87825963       6.44689613       6.49515710       0.00000000 NULL       0.16663167       0.04492351      -0.56221741
P        2.50359066       0.58405320       2.79855612       0.00000000 NULL      -0.16663167       0.04492351       0.56221741
P        2.51441411       7.70434159       7.26974367       0.00000000 NULL       0.44126268      -0.55551981       0.38549626
P        0.86743618       1.84149866       2.02396955       0.00000000 NULL      -0.44126268      -0.55551981      -0.38549626
P        0.86743618       9.88418722       7.26974367       0.00000000 NULL      -0.44126268       0.55551981       0.38549627
P        2.51441411       4.02134428       2.02396955       0.00000000 NULL       0.44126268       0.55551981      -0.38549626
P        1.93477316       7.75588110       4.77022210       0.00000000 NULL      -0.48230422      -0.49994169       0.47222616
P        1.44707713       1.89303817       4.52349112       0.00000000 NULL       0.48230422      -0.49994169      -0.47222616
P        1.44707713       9.83264771       4.77022210       0.00000000 NULL       0.48230422       0.49994169       0.47222616
P        1.93477316       3.96980477       4.52349112       0.00000000 NULL      -0.48230422       0.49994169      -0.47222616
16
Lattice="3.4319755580520535 0.0 0.0 0.0 11.870971167683694 0.0 0.0 0.0 8.93724247672145" Properties=species:S:1:pos:R:3:initial_magmoms:R:1:castep_labels:S:1:forces:R:3 n_minim_iter=12 energy=-84.24523841995789 stress="-0.002073519234231173 -8.856904318065824e-12 -9.584255544121664e-12 -8.856904318065824e-12 0.014776529116769598 9.605279310551679e-12 -9.584255544121664e-12 9.605279310551679e-12 0.02031715091848926" free_energy=-84.24523841995789 pbc="T T T"
P        0.75463082       1.08171223      -0.21119018       0.00000000 NULL       0.03415602      -0.06015697       0.24581817
P        2.67734474       7.01719781       9.14843266       0.00000000 NULL      -0.03415602      -0.06015697      -0.24581817
P        2.67734474       4.85377336      -0.21119018       0.00000000 NULL      -0.03415602       0.06015697       0.24581817
P        0.75463082      10.78925894       9.14843266       0.00000000 NULL       0.03415602       0.06015697      -0.24581817
P        2.49040677      11.24801477       6.15876235       0.00000000 NULL      -0.39049009       0.17531744      -0.40221559
P        0.94156879       5.31252919       2.77848013       0.00000000 NULL       0.39049009       0.17531744       0.40221559
P        0.94156879       6.55844198       6.15876235       0.00000000 NULL       0.39049009      -0.17531744      -0.40221559
P        2.49040677       0.62295640       2.77848013       0.00000000 NULL      -0.39049009      -0.17531744       0.40221559
P        2.64793951       7.76375658       6.95658915       0.00000000 NULL       0.11978485      -0.10039753       0.26398090
P        0.78403605       1.82827100       1.98065333       0.00000000 NULL      -0.11978485      -0.10039753      -0.26398090
P        0.78403605      10.04270017       6.95658915       0.00000000 NULL      -0.11978485       0.10039753       0.26398090
P        2.64793951       4.10721458       1.98065333       0.00000000 NULL       0.11978485       0.10039753      -0.26398090
P        2.04388342       7.84380735       4.50636582       0.00000000 NULL      -0.60995534       0.20666382       0.18103403
P        1.38809214       1.90832176       4.43087665       0.00000000 NULL       0.60995534       0.20666382      -0.18103403
P        1.38809214       9.96264940       4.50636582       0.00000000 NULL       0.60995534      -0.20666382       0.18103403
P        2.04388342       4.02716382       4.43087665       0.00000000 NULL      -0.60995534      -0.20666382      -0.18103403
16