48
Lattice="8.129141245308967 0.2456191723999272 -0.23868149020088195 2.380977523662167 7.776516713532443 -0.23868149020087992 1.9123639711402944 1.4596641557601007 16.189656399918416" Properties=species:S:1:pos:R:3:initial_magmoms:R:1:castep_labels:S:1:forces:R:3 n_minim_iter=1 energy=-252.5222177826817 stress="0.0021071787272557967 -0.0013474424385632618 -9.973942595830104e-05 -0.0013474424385632618 0.002844044231172778 -7.612884879341504e-05 -9.973942595830104e-05 -7.612884879341504e-05 0.0010249105462276208" free_energy=-252.5222177826817 pbc="T T T"
P        6.43346157       2.19435959       5.34625905       0.00000000 NULL      -0.05424900       0.21275703      -0.10163671
P        4.77873774       6.89051676       2.27120618       0.00000000 NULL      -0.19091544       0.10844264       0.10163671
P        5.98902117       7.28744045      10.36603438       0.00000000 NULL       0.05424900      -0.21275704       0.10163671
P        7.64374500       2.59128328      13.44108725       0.00000000 NULL       0.19091544      -0.10844264      -0.10163671
P        4.04120970       4.25695869       9.15377111       0.00000000 NULL       0.09514710       0.01685974       0.03943416
P        2.95151391       3.42521855      14.89203201       0.00000000 NULL      -0.04135774      -0.08733132      -0.03943416
P        8.38127304       5.22484135       6.55852232       0.00000000 NULL      -0.09514710      -0.01685974      -0.03943416
P        9.47096883       6.05658149       0.82026142       0.00000000 NULL       0.04135774       0.08733132       0.03943416
P        1.63743383       1.41613878       3.92245141       0.00000000 NULL       0.05111942       0.13631950       0.16407158
P        4.41337423       3.53495129       3.93369531       0.00000000 NULL      -0.14497531      -0.01335517      -0.16407158
P       10.78504891       8.06566126      11.78984202       0.00000000 NULL      -0.05111942      -0.13631950      -0.16407158
P        8.00910851       5.94684876      11.77859812       0.00000000 NULL       0.14497531       0.01335517       0.16407158
P        2.57170371       4.75539049       3.52428592       0.00000000 NULL       0.01546110      -0.17976905       0.15424521
P        9.07508942       3.76010725       4.09317930       0.00000000 NULL       0.16932580      -0.06232761      -0.15424521
P        9.85077903       4.72640955      12.18800750       0.00000000 NULL      -0.01546110       0.17976905      -0.15424522
P        3.34739332       5.72169280      11.61911412       0.00000000 NULL      -0.16932580       0.06232761       0.15424521
P        3.82415638       4.09465289       6.97765214       0.00000000 NULL       0.14593725      -0.18811582       0.03877838
P        1.25295636       2.13211408       0.87849457       0.00000000 NULL       0.14296403      -0.19038522      -0.03877838
P        8.59832636       5.38714715       8.73464128       0.00000000 NULL      -0.14593725       0.18811582      -0.03877838
P       11.16952638       7.34968596      14.83379885       0.00000000 NULL      -0.14296403       0.19038522       0.03877838
P        4.80577317       2.45842409       8.14302033       0.00000000 NULL       0.11593160       0.14092682       0.06477401
P        2.57234761       0.75370088      -0.28687361       0.00000000 NULL      -0.16651366      -0.07465726      -0.06477401
P        7.61670957       7.02337595       7.56927310       0.00000000 NULL      -0.11593160      -0.14092682      -0.06477401
P        9.85013513       8.72809916      15.99916704       0.00000000 NULL       0.16651366       0.07465726       0.06477401
P        7.75449069       2.76681015       9.84997767       0.00000000 NULL      -0.14492631       0.08420739       0.07597245
P        5.79050038       7.22691121      13.95714395       0.00000000 NULL      -0.04300150       0.16200430      -0.07597245
P        4.66799205       6.71498989       5.86231575       0.00000000 NULL       0.14492631      -0.08420739      -0.07597245
P        6.63198236       2.25488883       1.75514947       0.00000000 NULL       0.04300150      -0.16200430       0.07597245
P        6.27220323       5.68761408       8.92677289       0.00000000 NULL       0.09996008       0.26570799      -0.10845396
P       11.49321198       9.67269195      14.64166725       0.00000000 NULL      -0.28266401      -0.02634032       0.10845396
P        6.15027951       3.79418596       6.78552054       0.00000000 NULL      -0.09996008      -0.26570799       0.10845396
P        0.92927076      -0.19089191       1.07062618       0.00000000 NULL       0.28266401       0.02634032      -0.10845395
P        2.87828072       7.23690812       8.76598103       0.00000000 NULL      -0.20859291      -0.05505454       0.17358147
P        8.51294370       5.57854847      15.04114060       0.00000000 NULL       0.10812136       0.18668631      -0.17358147
P        9.54420203       2.24489192       6.94631240       0.00000000 NULL       0.20859291       0.05505454      -0.17358147
P        3.90953904       3.90325157       0.67115283       0.00000000 NULL      -0.10812136      -0.18668631       0.17358147
P        7.95605648       7.21591625      13.59579922       0.00000000 NULL       0.10949761      -0.16687442      -0.05917526
P        9.57490993       8.45155046       9.97264091       0.00000000 NULL       0.13208569      -0.14963345       0.05917526
P        4.46642626       2.26588379       2.11649420       0.00000000 NULL      -0.10949761       0.16687443       0.05917526
P        2.84757281       1.03024958       5.73965251       0.00000000 NULL      -0.13208569       0.14963345      -0.05917526
P        4.66767344       8.56338452       8.98446669       0.00000000 NULL      -0.21563622       0.07549728      -0.25348537
P        6.76148506       4.20237312      14.82265493       0.00000000 NULL      -0.01595011       0.22791316       0.25348537
P        7.75480930       0.91841553       6.72782673       0.00000000 NULL       0.21563622      -0.07549728       0.25348537
P        5.66099768       5.27942692       0.88963849       0.00000000 NULL       0.01595011      -0.22791316      -0.25348537
P        7.04336473       4.27991805       2.33436994       0.00000000 NULL       0.02533548       0.17809343       0.11754316
P        2.60616474       6.85227411       5.28309529       0.00000000 NULL      -0.17846958       0.02253363      -0.11754316
P        5.37911801       5.20188200      13.37792349       0.00000000 NULL      -0.02533548      -0.17809343      -0.11754316
P        9.81631800       2.62952593      10.42919814       0.00000000 NULL       0.17846958      -0.02253363       0.11754316
48
Lattice="8.113614633156907 0.2550582406001292 -0.23768961473023104 2.385987233072216 7.75905033139316 -0.23768961473022907 1.9119493095207687 1.4593476539268069 16.174606884797036" Properties=species:S:1:pos:R:3:initial_magmoms:R:1:castep_labels:S:1:forces:R:3 n_minim_iter=2 energy=-252.53169506817179 stress="-0.0003495440042911446 -5.147838877425171e-06 -0.00021986892982398733 -5.147838877425171e-06 -0.0003467288400205719 -0.00016782097746402842 -0.00021986892982398733 -0.00016782097746402842 -0.0010496954955734705" free_energy=-252.53169506817179 pbc="T T T"
P        6.42411954       2.19716258       5.34185192       0.00000000 NULL      -0.03280228       0.16701193      -0.14599798
P        4.77804188       6.87862900       2.27007230       0.00000000 NULL      -0.15244667       0.07569007       0.14599798
P        5.98743163       7.27629364      10.35737574       0.00000000 NULL       0.03280228      -0.16701193       0.14599798
P        7.63350930       2.59482723      13.42915536       0.00000000 NULL       0.15244667      -0.07569007      -0.14599798
P        4.03956858       4.25146710       9.14581151       0.00000000 NULL       0.06826889       0.05370077       0.08524120
P        2.95136345       3.42086474      14.87840920       0.00000000 NULL      -0.06980516      -0.05168804      -0.08524120
P        8.37198259       5.22198912       6.55341615       0.00000000 NULL      -0.06826889      -0.05370077      -0.08524120
P        9.46018773       6.05259148       0.82081846       0.00000000 NULL       0.06980516       0.05168804       0.08524120
P        1.63641649       1.41485595       3.91913663       0.00000000 NULL       0.05219178       0.09440356       0.13907941
P        4.40941418       3.53142235       3.93047721       0.00000000 NULL      -0.10482639      -0.02544486      -0.13907941
P       10.77513468       8.05860028      11.78009104       0.00000000 NULL      -0.05219178      -0.09440356      -0.13907941
P        8.00213700       5.94203388      11.76875045       0.00000000 NULL       0.10482639       0.02544486       0.13907941
P        2.57294909       4.74619143       3.52165996       0.00000000 NULL      -0.02084630      -0.13014258       0.14251837
P        9.06264190       3.76174688       4.09026426       0.00000000 NULL       0.13103259      -0.01421686      -0.14251837
P        9.83860209       4.72726480      12.17756771       0.00000000 NULL       0.02084630       0.13014258      -0.14251837
P        3.34890928       5.71170935      11.60896340       0.00000000 NULL      -0.13103259       0.01421685       0.14251837
P        3.82258106       4.08897931       6.97172088       0.00000000 NULL       0.09816969      -0.15765080      -0.00276716
P        1.25337876       2.12796531       0.87789295       0.00000000 NULL       0.12617639      -0.13627391       0.00276716
P        8.58897012       5.38447692       8.72750678       0.00000000 NULL      -0.09816969       0.15765080       0.00276716
P       11.15817242       7.34549092      14.82133471       0.00000000 NULL      -0.12617639       0.13627391      -0.00276716
P        4.80033630       2.45864354       8.13598466       0.00000000 NULL       0.14455159       0.03214724       0.07206971
P        2.56810412       0.75483121      -0.28637082       0.00000000 NULL      -0.06913433      -0.13095439      -0.07206971
P        7.61121487       7.01481269       7.56324301       0.00000000 NULL      -0.14455159      -0.03214724      -0.07206971
P        9.84344706       8.71862502      15.98559848       0.00000000 NULL       0.06913433       0.13095439       0.07206971
P        7.74362333       2.76995248       9.84162921       0.00000000 NULL      -0.19149913       0.11247242       0.06600533
P        5.78946485       7.21626777      13.94490189       0.00000000 NULL      -0.05798215       0.21438291      -0.06600533
P        4.66792784       6.70350375       5.85759845       0.00000000 NULL       0.19149913      -0.11247242      -0.06600533
P        6.62208633       2.25718846       1.75432577       0.00000000 NULL       0.05798215      -0.21438291       0.06600533
P        6.26798451       5.68134908       8.91920030       0.00000000 NULL       0.07251590       0.21863290      -0.13132684
P       11.48397049       9.66259317      14.62964119       0.00000000 NULL      -0.23001740      -0.01228393       0.13132684
P        6.14356667       3.79210715       6.78002736       0.00000000 NULL      -0.07251590      -0.21863290       0.13132684
P        0.92758069      -0.18913695       1.06958647       0.00000000 NULL       0.23001741       0.01228393      -0.13132684
P        2.88229326       7.22205868       8.75861243       0.00000000 NULL      -0.18852066      -0.10066067       0.15139295
P        8.50480198       5.57571214      15.02791867       0.00000000 NULL       0.14681859       0.15529620      -0.15139295
P        9.52925792       2.25139755       6.94061523       0.00000000 NULL       0.18852066       0.10066067      -0.15139295
P        3.90674920       3.89774409       0.67130899       0.00000000 NULL      -0.14681859      -0.15529620       0.15139295
P        7.95089999       7.20766974      13.58411314       0.00000000 NULL       0.11748444      -0.12059469      -0.07040833
P        9.56782711       8.44183364       9.96472835       0.00000000 NULL       0.08533814      -0.14513123       0.07040833
P        4.46065119       2.26578648       2.11511452       0.00000000 NULL      -0.11748444       0.12059469       0.07040833
P        2.84372406       1.03162259       5.73449931       0.00000000 NULL      -0.08533814       0.14513123      -0.07040833
P        4.66986792       8.54741068       8.97676246       0.00000000 NULL      -0.19381482       0.06597145      -0.28713709
P        6.75490743       4.20099392      14.80976865       0.00000000 NULL      -0.01251696       0.20435201       0.28713709
P        7.74168326       0.92604555       6.72246521       0.00000000 NULL       0.19381482      -0.06597145       0.28713709
P        5.65664374       5.27246231       0.88945901       0.00000000 NULL       0.01251696      -0.20435201      -0.28713709
P        7.03522247       4.27776275       2.33321574       0.00000000 NULL       0.04547240       0.20916451       0.14734363
P        2.60993517       6.83792132       5.27870848       0.00000000 NULL      -0.21375157       0.01130471      -0.14734363
P        5.37632871       5.19569348      13.36601192       0.00000000 NULL      -0.04547240      -0.20916451      -0.14734363
P        9.80161600       2.63553490      10.42051918       0.00000000 NULL       0.21375157      -0.01130471       0.14734363
48
Lattice="8.110333803655536 0.26566116330956585 -0.2289810042512665 2.3953494031284364 7.753089158351069 -0.22898100425126472 1.9319928230258572 1.4746464143408222 16.243746069935753" Properties=species:S:1:pos:R:3:initial_magmoms:R:1:castep_labels:S:1:forces:R:3 n_minim_iter=3 energy=-252.54094956791025 stress="-0.00024284553516699885 0.0007184322945561381 0.0006468166061596816 0.0007184322945561381 -0.0006357290807486049 0.0004937004798508183 0.0006468166061596816 0.0004937004798508183 0.001796530881192581" free_energy=-252.54094956791025 pbc="T T T"
P        6.43048774       2.20915090       5.37215796       0.00000000 NULL      -0.00741420       0.18218583      -0.08830267
P        4.78722305       6.87965729       2.29175307       0.00000000 NULL      -0.17377937       0.05520306       0.08830267
P        6.00718829       7.28424584      10.41362610       0.00000000 NULL       0.00741420      -0.18218583       0.08830267
P        7.65045298       2.61373945      13.49403100       0.00000000 NULL       0.17377937      -0.05520306      -0.08830267
P        4.05478967       4.26045969       9.19184146       0.00000000 NULL       0.05120590       0.05641030      -0.00354223
P        2.97178067       3.43382342      14.94479665       0.00000000 NULL      -0.06791840      -0.03451459       0.00354223
P        8.38288637       5.23293705       6.59394261       0.00000000 NULL      -0.05120591      -0.05641030       0.00354223
P        9.46589536       6.05957331       0.84098742       0.00000000 NULL       0.06791840       0.03451459      -0.00354223
P        1.64254220       1.41951785       3.93902433       0.00000000 NULL       0.07441054       0.05831464       0.17837209
P        4.41636413       3.53671338       3.95386771       0.00000000 NULL      -0.07587552      -0.05639531      -0.17837209
P       10.79513383       8.07387889      11.84675974       0.00000000 NULL      -0.07441054      -0.05831464      -0.17837209
P        8.02131190       5.95668336      11.83191636       0.00000000 NULL       0.07587552       0.05639531       0.17837209
P        2.58240047       4.74653813       3.54399076       0.00000000 NULL      -0.04401579      -0.07852983       0.12078206
P        9.06959627       3.77329478       4.11992027       0.00000000 NULL       0.08735832       0.02174506      -0.12078206
P        9.85527556       4.74685861      12.24179331       0.00000000 NULL       0.04401579       0.07852983      -0.12078206
P        3.36807976       5.72010196      11.66586379       0.00000000 NULL      -0.08735832      -0.02174506       0.12078206
P        3.83532411       4.09473087       7.00811220       0.00000000 NULL       0.10526097      -0.12944687       0.09106676
P        1.25753231       2.12716070       0.88477984       0.00000000 NULL       0.09710081      -0.13567534      -0.09106676
P        8.60235192       5.39866587       8.77767187       0.00000000 NULL      -0.10526097       0.12944687      -0.09106676
P       11.18014372       7.36623603      14.90100423       0.00000000 NULL      -0.09710081       0.13567533       0.09106676
P        4.81199405       2.46988427       8.17717305       0.00000000 NULL       0.14363816       0.00229011       0.09357618
P        2.56724911       0.75652124      -0.28428101       0.00000000 NULL      -0.04009348      -0.13794810      -0.09357618
P        7.62568198       7.02351247       7.60861102       0.00000000 NULL      -0.14363816      -0.00229011      -0.09357618
P        9.87042692       8.73687550      16.07006508       0.00000000 NULL       0.04009348       0.13794809       0.09357618
P        7.75462930       2.78669604       9.89342022       0.00000000 NULL      -0.16300624       0.12724563       0.09000546
P        5.81287945       7.22937546      14.01423688       0.00000000 NULL      -0.07974724       0.19079534      -0.09000546
P        4.68304673       6.70670069       5.89236384       0.00000000 NULL       0.16300624      -0.12724563      -0.09000546
P        6.62479658       2.26402128       1.77154719       0.00000000 NULL       0.07974724      -0.19079534       0.09000546
P        6.28400570       5.69255252       8.96699769       0.00000000 NULL       0.07394465       0.22843273      -0.10354714
P       11.50812545       9.68000494      14.71167840       0.00000000 NULL      -0.23984707      -0.01107738       0.10354714
P        6.15367034       3.80084422       6.81878637       0.00000000 NULL      -0.07394465      -0.22843273       0.10354714
P        0.92955058      -0.18660821       1.07410566       0.00000000 NULL       0.23984707       0.01107738      -0.10354714
P        2.90009217       7.22486410       8.80480884       0.00000000 NULL      -0.17198132      -0.09184073       0.14974914
P        8.52722655       5.59515532      15.10284826       0.00000000 NULL       0.13394872       0.14166875      -0.14974914
P        9.53758386       2.26853264       6.98097523       0.00000000 NULL       0.17198132       0.09184073      -0.14974914
P        3.91044948       3.89824142       0.68293581       0.00000000 NULL      -0.13394871      -0.14166875       0.14974914
P        7.97396383       7.22152345      13.65448813       0.00000000 NULL       0.12322911      -0.12442744      -0.09382449
P        9.58756815       8.45315113      10.02418797       0.00000000 NULL       0.08752003      -0.15168338       0.09382449
P        4.46371220       2.27187328       2.13129594       0.00000000 NULL      -0.12322911       0.12442744       0.09382449
P        2.85010788       1.04024561       5.76159610       0.00000000 NULL      -0.08752003       0.15168338      -0.09382449
P        4.68896503       8.55223118       9.02459019       0.00000000 NULL      -0.17316118       0.06779750      -0.25295041
P        6.77504589       4.21971635      14.88306692       0.00000000 NULL      -0.01972573       0.18491130       0.25295041
P        7.74871100       0.94116556       6.76119388       0.00000000 NULL       0.17316118      -0.06779750       0.25295041
P        5.66263014       5.27368038       0.90271715       0.00000000 NULL       0.01972573      -0.18491130      -0.25295041
P        7.04113561       4.28566475       2.35549364       0.00000000 NULL       0.00332664       0.17481197       0.10106386
P        2.62317798       6.83831079       5.30841739       0.00000000 NULL      -0.16949949       0.04289768      -0.10106386
P        5.39654042       5.20773199      13.43029043       0.00000000 NULL      -0.00332664      -0.17481197      -0.10106386
P        9.81449805       2.65508595      10.47736667       0.00000000 NULL       0.16949950      -0.04289769       0.10106386
48
Lattice="8.111656805093306 0.2521364907600634 -0.25262134073843173 2.382652562904598 7.757932437065525 -0.25262134073843 1.883158974641176 1.4373726426369766 16.21780329715077" Properties=species:S:1:pos:R:3:initial_magmoms:R:1:castep_labels:S:1:forces:R:3 n_minim_iter=4 energy=-252.62846421182965 stress="-0.00035312346792510594 -0.0003141309582172108 7.018466473122539e-05 -0.0003141309582172108 -0.0001813370971030565 5.357037029015857e-05 7.018466473122539e-05 5.357037029015857e-05 -6.104678880571652e-05" free_energy=-252.62846421182965 pbc="T T T"
P        6.41003025       2.20168410       5.33385204       0.00000000 NULL       0.06914061      -0.05523996      -0.02189526
P        4.75702042       6.87928673       2.26980694       0.00000000 NULL       0.03504820      -0.08126193       0.02189526
P        5.96743809       7.24575748      10.37870859       0.00000000 NULL      -0.06914061       0.05523996       0.02189526
P        7.62044792       2.56815484      13.44275368       0.00000000 NULL      -0.03504820       0.08126193      -0.02189526
P        4.02651367       4.24162915       9.16521522       0.00000000 NULL       0.07344486       0.02216730      -0.03889323
P        2.91846453       3.39588031      14.90886839       0.00000000 NULL      -0.04075342      -0.06499765       0.03889323
P        8.35095468       5.20581242       6.54734540       0.00000000 NULL      -0.07344486      -0.02216730       0.03889323
P        9.45900381       6.05156127       0.80369223       0.00000000 NULL       0.04075342       0.06499765      -0.03889323
P        1.63332889       1.41625733       3.93851012       0.00000000 NULL      -0.02018586      -0.04769115      -0.07574976
P        4.39183536       3.52176291       3.91777020       0.00000000 NULL       0.05132647       0.00689259       0.07574976
P       10.74413945       8.03118425      11.77405051       0.00000000 NULL       0.02018586       0.04769115       0.07574976
P        7.98563298       5.92567866      11.79479042       0.00000000 NULL      -0.05132647      -0.00689259      -0.07574976
P        2.56252021       4.73038116       3.53277030       0.00000000 NULL      -0.03947215       0.06180456      -0.04226957
P        9.06164371       3.75170746       4.07088867       0.00000000 NULL      -0.04920539       0.05437540       0.04226957
P        9.81494814       4.71706041      12.17979032       0.00000000 NULL       0.03947215      -0.06180456       0.04226957
P        3.31582464       5.69573411      11.64167195       0.00000000 NULL       0.04920539      -0.05437540      -0.04226957
P        3.81646155       4.06575651       6.98287575       0.00000000 NULL       0.03309122      -0.07111673       0.03861775
P        1.26035186       2.11473582       0.87340457       0.00000000 NULL       0.05987079      -0.05067649      -0.03861775
P        8.56100680       5.38168506       8.72968488       0.00000000 NULL      -0.03309122       0.07111673      -0.03861775
P       11.11711648       7.33270576      14.83915605       0.00000000 NULL      -0.05987079       0.05067649       0.03861775
P        4.79536793       2.44908928       8.15506166       0.00000000 NULL       0.09213481      -0.05938780       0.19363908
P        2.56158906       0.74409641      -0.29878134       0.00000000 NULL       0.03298446      -0.10453592      -0.19363908
P        7.58210042       6.99835229       7.55749897       0.00000000 NULL      -0.09213481       0.05938780      -0.19363908
P        9.81587928       8.70334517      16.01134196       0.00000000 NULL      -0.03298446       0.10453592       0.19363908
P        7.70926584       2.76283382       9.86013683       0.00000000 NULL       0.17246750      -0.08998606       0.22454789
P        5.75622678       7.21143093      13.96132544       0.00000000 NULL       0.04131158      -0.19009440      -0.22454789
P        4.66820250       6.68460775       5.85242379       0.00000000 NULL      -0.17246750       0.08998606      -0.22454789
P        6.62124156       2.23601064       1.75123518       0.00000000 NULL      -0.04131158       0.19009441       0.22454789
P        6.25491058       5.68509796       8.91792780       0.00000000 NULL       0.00709061       0.09233846      -0.10005899
P       11.43267834       9.63717096      14.65091313       0.00000000 NULL      -0.09093902       0.01751467       0.10005899
P        6.12255776       3.76234361       6.79463282       0.00000000 NULL      -0.00709061      -0.09233846       0.10005899
P        0.94479001      -0.18972939       1.06164750       0.00000000 NULL       0.09093902      -0.01751467      -0.10005899
P        2.84861757       7.20158487       8.78288461       0.00000000 NULL      -0.09223739      -0.06286912      -0.05729931
P        8.48564319       5.56489136      15.03857766       0.00000000 NULL       0.08497055       0.07238970       0.05729931
P        9.52885077       2.24585670       6.92967602       0.00000000 NULL       0.09223739       0.06286912       0.05729931
P        3.89182515       3.88255021       0.67398296       0.00000000 NULL      -0.08497055      -0.07238970      -0.05729931
P        7.93202005       7.17612529      13.59565969       0.00000000 NULL      -0.04262140       0.13108347       0.03134128
P        9.55210994       8.41270325       9.97318124       0.00000000 NULL      -0.11520060       0.07568540      -0.03134128
P        4.44544829       2.27131628       2.11690093       0.00000000 NULL       0.04262140      -0.13108347      -0.03134128
P        2.82535841       1.03473832       5.73937938       0.00000000 NULL       0.11520060      -0.07568540       0.03134128
P        4.63451011       8.53871286       8.96236714       0.00000000 NULL      -0.03498581       0.03039987      -0.11387944
P        6.72483330       4.19490162      14.85909514       0.00000000 NULL      -0.02009597       0.04176495       0.11387944
P        7.74295824       0.90872871       6.75019349       0.00000000 NULL       0.03498581      -0.03039987       0.11387944
P        5.65263505       5.25253995       0.85346549       0.00000000 NULL       0.02009597      -0.04176495      -0.11387944
P        7.03015105       4.28736709       2.33314760       0.00000000 NULL      -0.05717929      -0.15895432      -0.09211035
P        2.58163240       6.83122108       5.27051138       0.00000000 NULL       0.16840695       0.01323055       0.09211035
P        5.34731729       5.16007448      13.37941302       0.00000000 NULL       0.05717929       0.15895433       0.09211035
P        9.79583594       2.61622049      10.44204925       0.00000000 NULL      -0.16840695      -0.01323055      -0.09211035
48
Lattice="8.125929574975503 0.2676200804295177 -0.2581137430508202 2.4013523314297136 7.767616040024617 -0.25811374305081836 1.8782517011600377 1.433627031806074 16.210314745881554" Properties=species:S:1:pos:R:3:initial_magmoms:R:1:castep_labels:S:1:forces:R:3 n_minim_iter=5 energy=-252.63291508966077 stress="0.0008057438244710227 0.0009860247316844067 -0.0003174763317910728 0.0009860247316844067 0.0002665240546073556 -0.0002423225063867317 -0.0003174763317910728 -0.0002423225063867317 -0.00038343682095385895" free_energy=-252.63291508966077 pbc="T T T"
P        6.42168075       2.21276946       5.32604511       0.00000000 NULL       0.06376518      -0.06224078      -0.03437814
P        4.77598717       6.89136691       2.26288478       0.00000000 NULL       0.04321889      -0.07792330       0.03437814
P        5.98385285       7.25609369      10.36804215       0.00000000 NULL      -0.06376518       0.06224078       0.03437814
P        7.62954644       2.57749625      13.43120248       0.00000000 NULL      -0.04321889       0.07792330      -0.03437814
P        4.03580878       4.24761595       9.15719068       0.00000000 NULL       0.07942297       0.03865925      -0.03065033
P        2.91936349       3.39545851      14.90016770       0.00000000 NULL      -0.05823813      -0.06641435       0.03065033
P        8.36972482       5.22124721       6.53689659       0.00000000 NULL      -0.07942297      -0.03865926       0.03065033
P        9.48617012       6.07340464       0.79391956       0.00000000 NULL       0.05823813       0.06641435      -0.03065033
P        1.63621182       1.41830738       3.93548699       0.00000000 NULL      -0.01312075      -0.04939939      -0.09913397
P        4.40313015       3.53023355       3.91155664       0.00000000 NULL       0.05111081      -0.00037290       0.09913397
P       10.76932179       8.05055577      11.75860027       0.00000000 NULL       0.01312075       0.04939939       0.09913397
P        8.00240345       5.93862960      11.78253062       0.00000000 NULL      -0.05111081       0.00037290      -0.09913397
P        2.57303455       4.73640265       3.52768930       0.00000000 NULL      -0.09392915       0.03802568      -0.02482902
P        9.08136768       3.76934796       4.06124060       0.00000000 NULL      -0.01190549       0.10063249       0.02482902
P        9.83249906       4.73246050      12.16639797       0.00000000 NULL       0.09392915      -0.03802568       0.02482902
P        3.32416593       5.69951519      11.63284667       0.00000000 NULL       0.01190549      -0.10063249      -0.02482902
P        3.82643432       4.07107103       6.97621069       0.00000000 NULL       0.05204087      -0.07189636       0.02954716
P        1.26662784       2.11722866       0.87083295       0.00000000 NULL       0.05562486      -0.06916078      -0.02954716
P        8.57909929       5.39779212       8.71787657       0.00000000 NULL      -0.05204087       0.07189636      -0.02954717
P       11.13890577       7.35163449      14.82325432       0.00000000 NULL      -0.05562486       0.06916078       0.02954716
P        4.80363001       2.45535759       8.14922271       0.00000000 NULL       0.11287873      -0.06067443       0.16697877
P        2.56739622       0.74849093      -0.30217908       0.00000000 NULL       0.02875434      -0.12488468      -0.16697877