39
Lattice="5.9698845193825765 7.054066611231429e-43 4.379797547178828e-42 -1.4245600900265901e-42 12.056108479095142 7.023019901263542e-13 -6.947669067660969e-42 -6.02805423954818 10.44089621367701" Properties=species:S:1:pos:R:3:initial_magmoms:R:1:castep_labels:S:1:forces:R:3 n_minim_iter=1 energy=-207.6819387669286 stress="-0.0031522462109987957 1.756881608134269e-12 -2.995570343814002e-12 1.756881608134269e-12 -0.0016215775648688072 -2.456204374082715e-12 -2.995570343814002e-12 -2.456204374082715e-12 -0.001621577554931201" free_energy=-207.6819387669286 pbc="T T T"
P        5.33947085       9.04378032       2.27877020       0.00000000 NULL      -0.01537354      -0.36863834      -0.16695161
P        1.35954783       3.47963697       1.46936762       0.00000000 NULL      -0.01537354       0.03973484       0.40272597
P        3.34950934       5.56074545       6.69275840       0.00000000 NULL      -0.01537354       0.32890350      -0.23577436
P        3.05299421      -2.00579680      10.60043932       0.00000000 NULL       0.12046403       0.24555157       0.18450252
P        5.04295572       4.15509391       6.87774754       0.00000000 NULL       0.12046403       0.03700808      -0.30490516
P        1.06303270      -2.14929710       3.40360557       0.00000000 NULL       0.12046403      -0.28255966       0.12040264
P        4.32459489       4.39626019       3.59870297       0.00000000 NULL       0.33893288       0.47590846      -0.15449030
P        0.34467188       6.94649234       4.83427172       0.00000000 NULL       0.33893288      -0.37174675      -0.33490367
P        2.33463339       6.74141020       2.00792152       0.00000000 NULL       0.33893288      -0.10416171       0.48939397
P        1.95923664      -0.39415834       9.47447211       0.00000000 NULL      -0.15415509      -0.05728084      -0.08187707
P        3.94919815       2.37415847       6.04501130       0.00000000 NULL      -0.15415509      -0.04226720       0.09054520
P       -0.03072487      -1.98000012       5.36230902       0.00000000 NULL      -0.15415509       0.09954804      -0.00866813
P        0.28131565       0.03111159       6.32005076       0.00000000 NULL       0.05484443       0.09468057       0.14013893
P        2.27127716      -0.57028552       7.25392742       0.00000000 NULL       0.05484444       0.07402359      -0.15206525
P        4.26123867       0.53917394       7.30781426       0.00000000 NULL       0.05484444      -0.16870416       0.01192632
P        5.15604837       0.62334613       3.30096727       0.00000000 NULL      -0.01590244      -0.12892560      -0.03342416
P        1.17612536       8.57510269       8.25057900       0.00000000 NULL      -0.01590244       0.03551663       0.12836492
P        3.16608687       8.88571391      -1.11065006       0.00000000 NULL      -0.01590244       0.09340897      -0.09494076
P        6.29477419      -4.00866055      10.71132697       0.00000000 NULL      -0.16209411      -0.06305459      -0.09085031
P        2.31485118       5.25255731       8.55683460       0.00000000 NULL      -0.16209411      -0.04715138       0.10003203
P        4.30481268      -1.24389675       1.61363085       0.00000000 NULL      -0.16209411       0.11020597      -0.00918172
P        3.89889714       0.74651711       9.51103951       0.00000000 NULL       0.25097330       0.30622100       0.01597463
P       -0.08102587       1.83548904       5.03887369       0.00000000 NULL       0.25097330      -0.13927607      -0.27318248
P        1.90893564      -2.58200614       6.33187923       0.00000000 NULL       0.25097330      -0.16694494       0.25720785
P        4.38440778       5.95226738       2.03567441       0.00000000 NULL      -0.31229918      -0.35119976       0.02546023
P        0.40448476       4.81486631       4.26824425       0.00000000 NULL      -0.31229918       0.19764909       0.29141780
P        2.39444627       7.31702904       4.13697755       0.00000000 NULL      -0.31229918       0.15355068      -0.31687803
P        0.43047467       6.48463031       7.81513970       0.00000000 NULL      -0.05428902       0.03098003      -0.16552406
P        2.42043617       9.55384860       0.91747178       0.00000000 NULL      -0.05428902      -0.15883806       0.05593254
P        4.41039768       2.04568382       1.70828474       0.00000000 NULL      -0.05428902       0.12785803       0.10959152
P        4.37876144       7.50476025       6.98308703       0.00000000 NULL      -0.31987358      -0.35076767      -0.04215782
P        0.39883843       8.32320488       0.45003968       0.00000000 NULL      -0.31987358       0.13887409       0.32485262
P        2.38879994       2.25619759       3.00776951       0.00000000 NULL      -0.31987358       0.21189358      -0.28269480
P        5.25088838       5.66575830       9.80258151       0.00000000 NULL       0.11680509      -0.11946450      -0.07722641
P        1.27096537      -0.37164877       0.63291485       0.00000000 NULL       0.11680509      -0.00714778       0.14207250
P        3.26092688      -5.29410951      10.44629607       0.00000000 NULL       0.11680509       0.12661229      -0.06484609
P        5.23826701       9.59057371      -1.34022159       0.00000000 NULL       0.15196722      -0.15062301      -0.13065270
P        1.25834399       0.07210144       2.80532655       0.00000000 NULL       0.15196722      -0.03783706       0.19576970
P        3.24830550       8.42148758       8.97579127       0.00000000 NULL       0.15196722       0.18846006      -0.06511700
39
Lattice="5.992228615179962 7.059236046766312e-43 4.3845116937027304e-42 -1.4311503520896629e-42 12.079299907405158 7.011609934837217e-13 -6.979634757986108e-42 -6.0396499537031865 10.460980579743529" Properties=species:S:1:pos:R:3:initial_magmoms:R:1:castep_labels:S:1:forces:R:3 n_minim_iter=2 energy=-207.69204965937507 stress="0.0008613005563885397 2.167708440247411e-12 1.1931999123590596e-11 2.167708440247411e-12 0.0014272623865548223 3.141041227140324e-12 1.1931999123590596e-11 3.141041227140324e-12 0.0014272623733446888" free_energy=-207.69204965937507 pbc="T T T"
P        5.35943109       9.06059466       2.28288989       0.00000000 NULL       0.03168390      -0.31139578      -0.17985668
P        1.36461202       3.48639327       1.47283049       0.00000000 NULL       0.03168390      -0.00006256       0.35960500
P        3.36202156       5.57196194       6.70526020       0.00000000 NULL       0.03168390       0.31145835      -0.17974832
P        3.06461165      -2.00926720      10.62112213       0.00000000 NULL       0.04339426       0.23587276       0.18210399
P        5.06202119       4.16314523       6.89049596       0.00000000 NULL       0.04339426       0.03977030      -0.29532380
P        1.06720212      -2.15387802       3.41034308       0.00000000 NULL       0.04339426      -0.27564306       0.11321981
P        4.34131752       4.40546894       3.60538141       0.00000000 NULL       0.38378536       0.51314218      -0.15026856
P        0.34649844       6.95926738       4.84304186       0.00000000 NULL       0.38378536      -0.38670748      -0.36925988
P        2.34390798       6.75421355       2.01255731       0.00000000 NULL       0.38378536      -0.12643470       0.51952844
P        1.96632565      -0.39500706       9.49256807       0.00000000 NULL      -0.06979140      -0.05718396      -0.09954245
P        3.96373519       2.37865867       6.05678270       0.00000000 NULL      -0.06979140      -0.05761431       0.09929398
P       -0.03108389      -1.98365160       5.37261039       0.00000000 NULL      -0.06979140       0.11479827       0.00024846
P        0.28245538       0.03132104       6.33242960       0.00000000 NULL       0.04685447       0.08481228       0.12926467
P        2.27986492      -0.57126557       7.26764097       0.00000000 NULL       0.04685447       0.06954035      -0.13808192
P        4.27727446       0.53994454       7.32189060       0.00000000 NULL       0.04685447      -0.15435263       0.00881725
P        5.17532127       0.62434149       3.30726428       0.00000000 NULL       0.04532930      -0.10941874      -0.06170148
P        1.18050219       8.59165409       8.26665285       0.00000000 NULL       0.04532930       0.00127432       0.12561015
P        3.17791173       8.90295429      -1.11293655       0.00000000 NULL       0.04532930       0.10814442      -0.06390866
P        6.31807769      -4.01647134      10.73178799       0.00000000 NULL      -0.13746330      -0.04463329      -0.04456660
P        2.32325861       5.26258675       8.57345280       0.00000000 NULL      -0.13746330      -0.01627916       0.06093686
P        4.32066815      -1.24611540       1.61672037       0.00000000 NULL      -0.13746330       0.06091245      -0.01637027
P        3.91388723       0.74843699       9.52936042       0.00000000 NULL       0.19251689       0.30612091      -0.01653188
P       -0.08093185       1.83879976       5.04813493       0.00000000 NULL       0.19251689      -0.16737748      -0.25684254
P        1.91647769      -2.58723674       6.34446581       0.00000000 NULL       0.19251689      -0.13874342       0.27337442
P        4.40032338       5.96316237       2.03963052       0.00000000 NULL      -0.37753171      -0.33577964       0.05242333
P        0.40550430       4.82444061       4.27691523       0.00000000 NULL      -0.37753171       0.21328976       0.26458203
P        2.40291384       7.33134689       4.14443484       0.00000000 NULL      -0.37753171       0.12248988      -0.31700536
P        0.43199991       6.49715326       7.82991155       0.00000000 NULL      -0.04976123       0.05435428      -0.14250153
P        2.42940945       9.57197564       0.91932503       0.00000000 NULL      -0.04976123      -0.15058708       0.02417857
P        4.42681899       2.04982097       1.71174400       0.00000000 NULL      -0.04976123       0.09623280       0.11832295
P        4.39464393       7.51864234       6.99645325       0.00000000 NULL      -0.31770572      -0.38434803      -0.03313381
P        0.39982485       8.33943504       0.45141869       0.00000000 NULL      -0.31770572       0.16347930       0.34942206
P        2.39723439       2.26087249       3.01310864       0.00000000 NULL      -0.31770572       0.22086873      -0.31628826
P        5.27072632       5.67646832       9.82131597       0.00000000 NULL       0.12028265      -0.14009839      -0.05816194
P        1.27590724      -0.37237498       0.63435683       0.00000000 NULL       0.12028265       0.01967948       0.15040973
P        3.27331678      -5.30409333      10.46628836       0.00000000 NULL       0.12028265       0.12041891      -0.09224779
P        5.25811337       9.60878437      -1.34300612       0.00000000 NULL       0.08840652      -0.12431234      -0.11565199
P        1.26329429       0.07218035       2.81103228       0.00000000 NULL       0.08840652      -0.03800139       0.16548364
P        3.26070383       8.43798515       8.99295443       0.00000000 NULL       0.08840652       0.16231373      -0.04983165
39
Lattice="6.044786373793977 6.9763423492948315e-43 6.151172539503033e-42 -1.4534115942525395e-42 12.010700284520205 6.788562347030573e-13 -8.851919020403205e-42 -6.00535014226069 10.401571563635137" Properties=species:S:1:pos:R:3:initial_magmoms:R:1:castep_labels:S:1:forces:R:3 n_minim_iter=3 energy=-207.7430799443511 stress="0.004670206615736671 4.641461262727902e-13 1.8633300362652487e-12 4.641461262727902e-13 -0.003259113427619294 6.8238933992202125e-12 1.8633300362652487e-12 6.8238933992202125e-12 -0.0032591134447670102" free_energy=-207.7430799443511 pbc="T T T"
P        5.40676284       9.00215338       2.26623176       0.00000000 NULL       0.04145678      -0.21636853      -0.02027972
P        1.37690525       3.46688774       1.47236217       0.00000000 NULL       0.04145678       0.09062151       0.19752050
P        3.39183404       5.54700932       6.66297763       0.00000000 NULL       0.04145678       0.12574702      -0.17724078
P        3.09300299      -1.99281526      10.56465793       0.00000000 NULL      -0.05460631       0.25146014       0.22696067
P        5.10793178       4.14031965       6.84507124       0.00000000 NULL      -0.05460631       0.07082364      -0.33125121
P        1.07807420      -2.14750438       3.39341395       0.00000000 NULL      -0.05460631      -0.32228378       0.10429054
P        4.38728428       4.39098410       3.58170894       0.00000000 NULL       0.31863463       0.26595428       0.03276589
P        0.35742670       6.91170903       4.80801332       0.00000000 NULL       0.31863463      -0.10460105      -0.24670611
P        2.37235549       6.71335730       2.01184930       0.00000000 NULL       0.31863462      -0.16135323       0.21394022
P        1.98143968      -0.39396922       9.43669277       0.00000000 NULL       0.07870833       0.05208564      -0.03873594
P        3.99636847       2.36405014       6.02441254       0.00000000 NULL       0.07870833      -0.05958913      -0.02573952
P       -0.03348911      -1.97008091       5.34203783       0.00000000 NULL       0.07870833       0.00750349       0.06447546
P        0.28599752       0.03300319       6.29927106       0.00000000 NULL       0.05932851       0.06938583       0.25179981
P        2.30092631      -0.56652297       7.22335443       0.00000000 NULL       0.05932851       0.18337212      -0.18598979
P        4.31585510       0.53351979       7.28051764       0.00000000 NULL       0.05932851      -0.25275794      -0.06581001
P        5.22122378       0.61834582       3.28739195       0.00000000 NULL       0.13034902      -0.20078496      -0.08986350
P        1.19136620       8.54314218       8.22237240       0.00000000 NULL       0.13034901       0.02256841       0.21881663
P        3.20629499       8.85456243      -1.10819279       0.00000000 NULL       0.13034902       0.17821655      -0.12895313
P        6.37036076      -3.99473842      10.66955860       0.00000000 NULL      -0.14245304      -0.01236741      -0.02739304
P        2.34050318       5.23212786       8.52633722       0.00000000 NULL      -0.14245304      -0.01753937       0.02440701
P        4.35543197      -1.23738944       1.60724731       0.00000000 NULL      -0.14245304       0.02990678       0.00298603
P        3.95278398       0.75063649       9.47513516       0.00000000 NULL       0.05815450       0.14277336       0.02961339
P       -0.07707360       1.82503937       5.01393372       0.00000000 NULL       0.05815450      -0.04574073      -0.13845205
P        1.93785519      -2.57567585       6.31407425       0.00000000 NULL       0.05815450      -0.09703262       0.10883866
P        4.43131725       5.92210844       2.02895154       0.00000000 NULL      -0.34193181      -0.13152600      -0.13164758
P        0.40145966       4.80141951       4.25839944       0.00000000 NULL      -0.34193181      -0.04824715       0.17972865
P        2.41638846       7.29252249       4.11422058       0.00000000 NULL      -0.34193181       0.17977315      -0.04808106
P        0.43468805       6.46122686       7.78227162       0.00000000 NULL      -0.04636311      -0.00185714      -0.21090379
P        2.44961685       9.51438163       0.91484916       0.00000000 NULL      -0.04636311      -0.18171947       0.10706023
P        4.46454564       2.04044194       1.70445079       0.00000000 NULL      -0.04636311       0.18357661       0.10384356
P        4.42636206       7.46809515       6.95595463       0.00000000 NULL      -0.16960149      -0.18558628      -0.04188262
P        0.39650448       8.29533599       0.45603414       0.00000000 NULL      -0.16960149       0.05652173       0.18166375
P        2.41143327       2.25261930       2.98958280       0.00000000 NULL      -0.16960149       0.12906456      -0.13978113
P        5.31950814       5.64143268       9.76417285       0.00000000 NULL       0.11055763      -0.06690196       0.03089083
P        1.28965056      -0.37004474       0.63386113       0.00000000 NULL       0.11055763       0.06020322       0.04249338
P        3.30457935      -5.27138792      10.40510915       0.00000000 NULL       0.11055763       0.00669874      -0.07338421
P        5.30660693       9.55140083      -1.33792689       0.00000000 NULL      -0.04223363      -0.17823719      -0.12031928
P        1.27674934       0.07097105       2.79877925       0.00000000 NULL      -0.04223363      -0.01508096       0.21451757
P        3.29167813       8.39367855       8.94071921       0.00000000 NULL      -0.04223363       0.19331815      -0.09419829
39
Lattice="5.996731852252406 7.26173343130194e-43 6.051250918794365e-42 -1.3928357278856864e-42 12.07658991089367 6.512238285729558e-13 -9.026296586090267e-42 -6.038294955447399 10.458633653920439" Properties=species:S:1:pos:R:3:initial_magmoms:R:1:castep_labels:S:1:forces:R:3 n_minim_iter=4 energy=-207.83289730092613 stress="-0.000389684571455311 3.9601134706828355e-12 1.483505604110412e-12 3.9601134706828355e-12 -0.00040223238317086985 -8.727472036037217e-13 1.483505604110412e-12 -8.727472036037217e-13 -0.0004022323914550452" free_energy=-207.83289730092613 pbc="T T T"
P        5.36462931       9.03776456       2.27198154       0.00000000 NULL      -0.18576706       0.07886191       0.18616421
P        1.36680808       3.48700641       1.49570918       0.00000000 NULL      -0.18576706       0.12179198      -0.16137852
P        3.36571869       5.59011391       6.69094293       0.00000000 NULL      -0.18576706      -0.20065389      -0.02478569
P        3.07068548      -1.99318583      10.63091509       0.00000000 NULL      -0.02303108       0.19004153       0.15405290
P        5.06959609       4.16494050       6.86932567       0.00000000 NULL      -0.02303108       0.03839296      -0.24160724
P        1.07177486      -2.17175466       3.41702654       0.00000000 NULL      -0.02303108      -0.22843449       0.08755434
P        4.36831524       4.43547742       3.59590107       0.00000000 NULL      -0.16810798       0.00787648       0.09254371
P        0.37049401       6.93469792       4.81944700       0.00000000 NULL      -0.16810798       0.07620697      -0.05309309
P        2.36940462       6.74470953       2.04328559       0.00000000 NULL      -0.16810798      -0.08408345      -0.03945063
P        1.96249036      -0.39793153       9.48472196       0.00000000 NULL       0.14802983       0.08665437      -0.04684299
P        3.96140098       2.37468098       6.06089149       0.00000000 NULL       0.14802983      -0.08389441      -0.05162339
P       -0.03642025      -1.97674944       5.37165386       0.00000000 NULL       0.14802983      -0.00275997       0.09846638
P        0.28597590       0.03692899       6.34042520       0.00000000 NULL       0.04225902       0.05299034       0.03233633
P        2.28488652      -0.56579015       7.25643962       0.00000000 NULL       0.04225902       0.00150891      -0.06205915
P        4.28379714       0.52886117       7.32040249       0.00000000 NULL       0.04225902      -0.05449925       0.02972282
P        5.18147787       0.61610004       3.30290771       0.00000000 NULL       0.00851569      -0.08453041      -0.07326043
P        1.18365664       8.59064693       8.27362151       0.00000000 NULL       0.00851568      -0.02118019       0.10983569
P        3.18256726       8.90813791      -1.11789557       0.00000000 NULL       0.00851569       0.10571060      -0.03657526
P        6.31330368      -4.01863958      10.72564825       0.00000000 NULL      -0.03218416       0.07059938       0.10007351
P        2.31548244       5.25970870       8.57605350       0.00000000 NULL      -0.03218416       0.05136651      -0.11117761
P        4.31439306      -1.24106911       1.61556556       0.00000000 NULL      -0.03218416      -0.12196589       0.01110411
P        3.92972472       0.76711409       9.52711052       0.00000000 NULL      -0.04638063       0.04471638      -0.04504328
P       -0.06809651       1.82886774       5.03073811       0.00000000 NULL      -0.04638063      -0.06136681      -0.01620388
P        1.93081411      -2.59598182       6.35941868       0.00000000 NULL      -0.04638063       0.01665043       0.06124716
P        4.38052703       5.94100277       2.04084016       0.00000000 NULL       0.14287037      -0.11235663      -0.26362182
P        0.38270580       4.83521300       4.29315426       0.00000000 NULL       0.14287037      -0.17212488       0.22911460
P        2.38161642       7.33866911       4.12463924       0.00000000 NULL       0.14287037       0.28448151       0.03450722
P        0.42900181       6.49838776       7.81797959       0.00000000 NULL      -0.05278254       0.05008621      -0.08902859
P        2.42791243       9.55967001       0.92187498       0.00000000 NULL      -0.05278254      -0.10214412       0.00113837
P        4.42682305       2.05682711       1.71877909       0.00000000 NULL      -0.05278254       0.05205791       0.08789022
P        4.37811260       7.49394293       6.99248887       0.00000000 NULL      -0.02677182       0.05631697      -0.00346232
P        0.38029136       8.34699649       0.47244427       0.00000000 NULL      -0.02677182      -0.03115694      -0.04704077
P        2.37920198       2.27394546       2.99370052       0.00000000 NULL      -0.02677182      -0.02516003       0.05050309
P        5.28241349       5.66698289       9.81551756       0.00000000 NULL       0.11210569      -0.10389053      -0.01571288
P        1.28459226      -0.37129884       0.64312373       0.00000000 NULL       0.11210569       0.03833751       0.09782828
P        3.28350288      -5.29568404      10.45862602       0.00000000 NULL       0.11210569       0.06555302      -0.08211539
P        5.26828572       9.59766196      -1.35055914       0.00000000 NULL       0.08124467      -0.03018945      -0.11380190
P        1.27046449       0.06984545       2.82209416       0.00000000 NULL       0.08124467      -0.08346061       0.08304578
P        3.26937511       8.44737746       8.98709865       0.00000000 NULL       0.08124467       0.11365006       0.03075612
39
Lattice="5.982007877872315 7.241436267775252e-43 2.6847001109509588e-42 -1.3934394978713516e-42 12.076061534397573 5.969043648846298e-13 -1.4049952930866123e-42 -6.038030767199302 10.458176066452081" Properties=species:S:1:pos:R:3:initial_magmoms:R:1:castep_labels:S:1:forces:R:3 n_minim_iter=5 energy=-208.00465723476205 stress="0.0003389477197782321 1.808075641263225e-12 -2.3283162998826678e-12 1.808075641263225e-12 0.00041042719432236163 -1.3664092589200183e-12 -2.3283162998826678e-12 -1.3664092589200183e-12 0.00041042720095987634" free_energy=-208.00465723476205 pbc="T T T"
P        5.30905523       9.03515485       2.30469190       0.00000000 NULL      -0.00709533      -0.17910318       0.01360198
P        1.32104998       3.51637508       1.48115649       0.00000000 NULL      -0.00709533       0.10133125       0.14830691
P        3.31505260       5.56256238       6.67232767       0.00000000 NULL      -0.00709533       0.07777193      -0.16190889
P        3.05982671      -1.93066917      10.68057737       0.00000000 NULL       0.17553509      -0.10111628       0.02882298
P        5.05382934       4.17695515       6.78989593       0.00000000 NULL       0.17553509       0.07551957       0.07315778
P        1.06582409      -2.24628597       3.44587884       0.00000000 NULL       0.17553509       0.02559671      -0.10198076
P        4.34399376       4.47247735       3.60825206       0.00000000 NULL       0.03630726      -0.17555107       0.17410527
P        0.35598851       6.92663005       4.78077104       0.00000000 NULL       0.03630727       0.23855512       0.06497905
P        2.34999113       6.71498492       2.06915297       0.00000000 NULL       0.03630727      -0.06300405      -0.23908432
P        1.98960651      -0.38059882       9.46616547       0.00000000 NULL      -0.10789058       0.17274963       0.00727545
P        3.98360914       2.35020842       6.05470158       0.00000000 NULL      -0.10789058      -0.08007409      -0.15324330
P       -0.00439611      -1.96960959       5.39548508       0.00000000 NULL      -0.10789058      -0.09267554       0.14596784
P        0.29881220       0.05555638       6.35748769       0.00000000 NULL       0.06413781      -0.00882621      -0.05446789
P        2.29281483      -0.56006311       7.23131899       0.00000000 NULL       0.06413781      -0.04275747       0.03487767
P        4.28681745       0.50450674       7.32754546       0.00000000 NULL       0.06413781       0.05158368       0.01959023
P        5.17469150       0.58772033       3.28049521       0.00000000 NULL      -0.04701897      -0.05295907       0.03264460
P        1.18668624       8.58516279       8.30894773       0.00000000 NULL      -0.04701896       0.05475059       0.02954160
P        3.18068887       8.94120919      -1.13126687       0.00000000 NULL      -0.04701897      -0.00179152      -0.06218620
P        6.28042150      -4.00435603      10.74648093       0.00000000 NULL      -0.01113548      -0.04041875      -0.13590213
P        2.29241625       5.27087273       8.55280965       0.00000000 NULL      -0.01113548      -0.09748533       0.10295473
P        4.28641888      -1.26651670       1.61706156       0.00000000 NULL      -0.01113548       0.13790408       0.03294740
P        3.92158422       0.79873432       9.51469048       0.00000000 NULL       0.04011958      -0.02011544      -0.05046348
P       -0.06642103       1.80256574       5.00910662       0.00000000 NULL       0.04011958      -0.03364493       0.04265222
P        1.92758160      -2.60130005       6.39255504       0.00000000 NULL       0.04011958       0.05376037       0.00781126
P        4.37747497       5.89094325       1.98027175       0.00000000 NULL      -0.18853779      -0.03056807      -0.36711417
P        0.38946972       4.80752479       4.36633369       0.00000000 NULL      -0.18853779      -0.30264617       0.21002981
P        2.38347235       7.41562427       4.11157062       0.00000000 NULL      -0.18853779       0.33321423       0.15708436
P        0.41170789       6.51389521       7.78598471       0.00000000 NULL      -0.08153557       0.04041906       0.04927549
P        2.40571052       9.52394372       0.92398499       0.00000000 NULL      -0.08153557       0.02246430      -0.05964168
P        4.39971314       2.07625339       1.74820637       0.00000000 NULL      -0.08153557      -0.06288336       0.01036619
P        4.33908670       7.48078167       6.98902756       0.00000000 NULL      -0.06262511       0.03439451      -0.06860156
P        0.35108145       8.35031535       0.48511533       0.00000000 NULL      -0.06262511      -0.07660795       0.00451426
P        2.34508407       2.28299530       2.98403318       0.00000000 NULL      -0.06262511       0.04221344       0.06408730
P        5.30502557       5.63202143       9.80767224       0.00000000 NULL       0.06990436       0.06937756      -0.01542484
P        1.31702032      -0.36034817       0.67686632       0.00000000 NULL       0.06990436      -0.04804708      -0.05237030
P        3.31102295      -5.27167325      10.43181358       0.00000000 NULL       0.06990436      -0.02133047       0.06779515
P        5.28036205       9.58113099      -1.38601568       0.00000000 NULL       0.11983473       0.02653398      -0.07513635
P        1.29235679       0.04714049       2.85368108       0.00000000 NULL       0.11983473      -0.07833698       0.01458908
P        3.28635942       8.48582084       8.99051067       0.00000000 NULL       0.11983473       0.05180300       0.06054727
39
Lattice="5.966650640164826 7.247676325918371e-43 2.679527678334773e-42 -1.383500279576245e-42 12.03391259590654 5.606549775136959e-13 -1.3128306421106023e-42 -6.016956297953754 10.421674014976318" Properties=species:S:1:pos:R:3:initial_magmoms:R:1:castep_labels:S:1:forces:R:3 n_minim_iter=6 energy=-208.09527029701977 stress="0.0003654493727256734 6.465943397247835e-12 6.242023775979313e-12 6.465943397247835e-12 0.00033528877616658656 2.104896025033995e-12 6.242023775979313e-12 2.104896025033995e-12 0.0003352887863036853" free_energy=-208.09527029701977 pbc="T T T"
P        5.27122059       8.98271529       2.31611836       0.00000000 NULL       0.02044734      -0.04279731      -0.05106784
P        1.29345350       3.53141600       1.48435520       0.00000000 NULL       0.02044733      -0.02282739       0.06259748
P        3.28233704       5.53673762       6.62120045       0.00000000 NULL       0.02044733       0.06562470      -0.01152964
P        3.06946645      -1.90043707      10.67380910       0.00000000 NULL       0.11303369       0.01612939       0.00527542
P        5.05834999       4.17705208       6.73059625       0.00000000 NULL       0.11303369      -0.00349605      -0.01660617
P        1.08058290      -2.27661500       3.43894268       0.00000000 NULL       0.11303369      -0.01263334       0.01133076
P        4.32910675       4.45810858       3.62101382       0.00000000 NULL      -0.14003350       0.00232360      -0.27827351
P        0.35133966       6.92379197       4.75033183       0.00000000 NULL      -0.14003350      -0.24215373       0.13712445
P        2.34022321       6.66896836       2.05032837       0.00000000 NULL      -0.14003350       0.23983013       0.14114905
P        1.98969611      -0.35144966       9.42425771       0.00000000 NULL      -0.04185782      -0.03801950       0.11322994
P        3.97857965       2.32041512       6.01390950       0.00000000 NULL      -0.04185782       0.11706976      -0.02368911
P        0.00081256      -1.96896545       5.40518083       0.00000000 NULL      -0.04185782      -0.07905025      -0.08954083
P        0.31234821       0.06468534       6.33938771       0.00000000 NULL       0.05996234      -0.15166221      -0.01768720