36
Lattice="7.2983862397826185 1.1155871897882078e-15 4.1315685709443264e-43 -3.64919311989131 6.320587890282533 1.1183279528286962e-41 -8.928239048654709e-43 -2.842094544647119e-41 15.771670226278799" Properties=species:S:1:pos:R:3:initial_magmoms:R:1:castep_labels:S:1:forces:R:3 n_minim_iter=1 energy=-193.17717165491777 stress="0.0001698918568788474 5.599766025384254e-12 -3.1506514442064316e-12 5.599766025384254e-12 0.0001698918767514882 2.030735055252221e-14 -3.1506514442064316e-12 2.030735055252221e-14 -6.599600384358586e-05" free_energy=-193.17717165491777 pbc="T T T"
P        4.25570558       2.69898223       5.97094210       0.00000000 NULL       0.00057535       0.00082757       0.00339659
P        2.83314627       2.33605803      11.22816551       0.00000000 NULL      -0.00100437       0.00008448       0.00339659
P        3.85872750       1.28554763       0.71371870       0.00000000 NULL       0.00042903      -0.00091205       0.00339659
P        6.78039206       0.80726575      11.23134039       0.00000000 NULL       0.00039819       0.01430662      -0.00315554
P        3.20907756       5.46835889      16.48856380       0.00000000 NULL      -0.01258899      -0.00680847      -0.00315554
P        0.95810974       0.04496324       5.97411698       0.00000000 NULL       0.01219080      -0.00749815      -0.00315554
P        0.59197776       4.90721224       2.80744763       0.00000000 NULL      -0.02173133       0.01376748      -0.01673655
P       -0.89656622       4.37964955       8.06467104       0.00000000 NULL      -0.00105732      -0.02570363      -0.01673655
P        0.30458846       3.35431399      13.32189445       0.00000000 NULL       0.02278865       0.01193615      -0.01673655
P        0.92344168       7.12009866       2.76584910       0.00000000 NULL       0.01027456      -0.00919648      -0.01033284
P       -2.97871404       3.56026252       8.02307251       0.00000000 NULL       0.00282710       0.01349627      -0.01033284
P        2.05527235       1.96081460      13.28029592       0.00000000 NULL      -0.01310166      -0.00429979      -0.01033284
P        4.04873635       3.60749826      14.26031389       0.00000000 NULL       0.02304755      -0.00655412       0.01342911
P        2.14983292       1.70255940       3.74586707       0.00000000 NULL      -0.00584775       0.02323682       0.01342911
P        4.74901008       1.01053022       9.00309048       0.00000000 NULL      -0.01719980      -0.01668271       0.01342911
P       -0.71567409       5.20776627       5.98457162       0.00000000 NULL      -0.02706349       0.00028379      -0.00671172
P       -0.50302773       3.09691282      11.24179503       0.00000000 NULL       0.01328598      -0.02357957      -0.00671172
P        1.21870181       4.33649669       0.72734821       0.00000000 NULL       0.01377752       0.02329578      -0.00671172
P        4.79208725       0.65884341      12.30103734       0.00000000 NULL       0.00674858      -0.01527115       0.00671688
P        4.33176748       3.82064759       1.78659052       0.00000000 NULL       0.00985092       0.01348002       0.00671688
P        1.82372463       1.84109689       7.04381393       0.00000000 NULL      -0.01659949       0.00179114       0.00671688
P        3.34978722       0.25962194      10.58337301       0.00000000 NULL      -0.01451616       0.01353769       0.00712773
P        5.39865343       2.77118986      15.84059642       0.00000000 NULL      -0.00446590      -0.01934021       0.00712773
P        2.19913870       3.28977609       5.32614960       0.00000000 NULL       0.01898206       0.00580252       0.00712773
P        0.46522133       2.14097304       2.46129005       0.00000000 NULL      -0.01866187      -0.02651693      -0.02312428
P        1.56244541       5.65299486       7.71851346       0.00000000 NULL       0.03229527      -0.00290319      -0.02312428
P       -2.02766675       4.84720788      12.97573687       0.00000000 NULL      -0.01363340       0.02942012      -0.02312427
P        0.18272695       2.42810050       8.43385487       0.00000000 NULL       0.01134390       0.00527488       0.00740237
P        1.45503292       5.26478382      13.69107828       0.00000000 NULL      -0.01024013       0.00718667       0.00740237
P       -1.63775988       4.94829146       3.17663146       0.00000000 NULL      -0.00110377      -0.01246155       0.00740237
P        0.48311580       0.41565282      13.17949430       0.00000000 NULL      -0.00149799      -0.00293142       0.00750537
P        6.69686243       0.21056414       2.66504748       0.00000000 NULL       0.00328767       0.00016841       0.00750537
P        3.76760112       5.69437092       7.92227089       0.00000000 NULL      -0.00178969       0.00276300       0.00750537
P        1.34122488       3.50204636      10.04889267       0.00000000 NULL       0.00328377      -0.01856223       0.01448287
P       -0.05428044       5.73109953      15.30611607       0.00000000 NULL       0.01443348       0.01212494       0.01448288
P       -1.28694445       3.40802989       4.79166926       0.00000000 NULL      -0.01771724       0.00643729       0.01448287
36
Lattice="7.296796572492085 7.868381477445553e-17 4.155998286103926e-43 -3.6483982862460427 6.319211198025367 1.1185909612387486e-41 -8.871907402220854e-43 -2.840687087111816e-41 15.773004877566649" Properties=species:S:1:pos:R:3:initial_magmoms:R:1:castep_labels:S:1:forces:R:3 n_minim_iter=2 energy=-193.17724622826543 stress="-8.799410076920503e-05 -6.9181594985060765e-12 -5.8110057611430925e-12 -6.9181594985060765e-12 -8.799409806638323e-05 4.240461861116211e-12 -5.8110057611430925e-12 4.240461861116211e-12 -9.772607586157031e-05" free_energy=-193.17724622826543 pbc="T T T"
P        4.25477965       2.69839582       5.97145337       0.00000000 NULL       0.00106246      -0.00128140       0.00533814
P        2.83252741       2.33554936      11.22912166       0.00000000 NULL       0.00057849       0.00156082       0.00533814
P        3.85788779       1.28526602       0.71378508       0.00000000 NULL      -0.00164096      -0.00027942       0.00533814
P        6.77891591       0.80711513      11.23228526       0.00000000 NULL       0.00280877       0.01097003      -0.00325900
P        3.20835640       5.46715583      16.48995356       0.00000000 NULL      -0.01090471      -0.00305256      -0.00325900
P        0.95792253       0.04494024       5.97461697       0.00000000 NULL       0.00809595      -0.00791748      -0.00325900
P        0.59181053       4.90616765       2.80765571       0.00000000 NULL      -0.01969066       0.00996143      -0.01759022
P       -0.89637281       4.37865033       8.06532400       0.00000000 NULL       0.00121848      -0.02203333      -0.01759022
P        0.30456227       3.35360441      13.32299229       0.00000000 NULL       0.01847218       0.01207190      -0.01759022
P        0.92325865       7.11853162       2.76606495       0.00000000 NULL       0.00673270      -0.00347403      -0.01086073
P       -2.97806026       3.55951084       8.02373324       0.00000000 NULL      -0.00035775       0.00756771      -0.01086073
P        2.05480160       1.96037994      13.28140153       0.00000000 NULL      -0.00637495      -0.00409368      -0.01086073
P        4.04789510       3.60670096      14.26154432       0.00000000 NULL       0.02116485      -0.00681647       0.01495817
P        2.14935436       1.70222951       3.74620773       0.00000000 NULL      -0.00467919       0.02173753       0.01495817
P        4.74794539       1.01028072       9.00387602       0.00000000 NULL      -0.01648566      -0.01492106       0.01495817
P       -0.71556589       5.20663246       5.98506623       0.00000000 NULL      -0.02377480       0.00083781      -0.00644204
P       -0.50289475       3.09619673      11.24273452       0.00000000 NULL       0.01116184      -0.02100848      -0.00644204
P        1.21846064       4.33559320       0.72739793       0.00000000 NULL       0.01261296       0.02017068      -0.00644204
P        4.79105537       0.65867300      12.30209013       0.00000000 NULL       0.00427357      -0.01344138       0.00595057
P        4.33084133       3.81983916       1.78675355       0.00000000 NULL       0.00950379       0.01042171       0.00595057
P        1.82329815       1.84069903       7.04442184       0.00000000 NULL      -0.01377736       0.00301967       0.00595056
P        3.34903202       0.25958924      10.58428118       0.00000000 NULL      -0.01653244       0.00897669       0.00696745
P        5.39746968       2.77055219      15.84194947       0.00000000 NULL       0.00049218      -0.01880586       0.00696745
P        2.19869315       3.28906976       5.32661288       0.00000000 NULL       0.01604026       0.00982917       0.00696745
P        0.46508712       2.14045999       2.46145758       0.00000000 NULL      -0.01771490      -0.02314689      -0.02380670
P        1.56216199       5.65175846       7.71912587       0.00000000 NULL       0.02890324      -0.00376811      -0.02380670
P       -2.02724912       4.84620394      12.97679417       0.00000000 NULL      -0.01118834       0.02691500      -0.02380670
P        0.18270714       2.42758093       8.43458162       0.00000000 NULL       0.01021331       0.00214119       0.00844428
P        1.45469796       5.26364976      13.69224991       0.00000000 NULL      -0.00696098       0.00777439       0.00844428
P       -1.63740510       4.94719171       3.17691333       0.00000000 NULL      -0.00325233      -0.00991558       0.00844428
P        0.48300793       0.41555712      13.18062282       0.00000000 NULL      -0.00692153      -0.00309528       0.00679936
P        6.69540958       0.21051858       2.66528623       0.00000000 NULL       0.00614136      -0.00444658       0.00679936
P        3.76677734       5.69313549       7.92295453       0.00000000 NULL       0.00078018       0.00754186       0.00679936
P        1.34093854       3.50125087      10.04976856       0.00000000 NULL       0.00524282      -0.01592134       0.01350073
P       -0.05424319       5.72987260      15.30743685       0.00000000 NULL       0.01116687       0.01250108       0.01350073
P       -1.28669536       3.40729892       4.79210027       0.00000000 NULL      -0.01640969       0.00342026       0.01350073
36
Lattice="7.296773406449787 -1.9027534526017526e-15 5.8244618630825095e-43 -3.648386703224892 6.319191135644231 1.151957813102292e-41 -5.124109107687366e-43 -2.7336816719165906e-41 15.780232285688946" Properties=species:S:1:pos:R:3:initial_magmoms:R:1:castep_labels:S:1:forces:R:3 n_minim_iter=3 energy=-193.17729653567434 stress="5.9096483707714914e-08 -3.4024774634936128e-12 -1.1655053611157062e-11 -3.4024774634936128e-12 5.906739915560748e-08 -3.5897758643786008e-12 -1.1655053611157062e-11 -3.5897758643786008e-12 0.00032828025891690606" free_energy=-193.17729653567434 pbc="T T T"
P        4.25477264       2.69838322       5.97422348       0.00000000 NULL       0.00104032      -0.00111545       0.00938334
P        2.83251867       2.33554958      11.23430091       0.00000000 NULL       0.00044585       0.00145867       0.00938334
P        3.85786880       1.28525833       0.71414605       0.00000000 NULL      -0.00148617      -0.00034322       0.00938334
P        6.77890875       0.80720042      11.23740865       0.00000000 NULL       0.00418840       0.00796732       0.00248922
P        3.20826295       5.46710698      16.49748608       0.00000000 NULL      -0.00899410      -0.00035640       0.00248922
P        0.95798840       0.04488373       5.97733123       0.00000000 NULL       0.00480570      -0.00761092       0.00248922
P        0.59166079       4.90623379       2.80881667       0.00000000 NULL      -0.01886452       0.00771557      -0.02387089
P       -0.89636679       4.37846752       8.06889410       0.00000000 NULL       0.00275038      -0.02019494      -0.02387089
P        0.30470599       3.35368096      13.32897153       0.00000000 NULL       0.01611414       0.01247937      -0.02387089
P        0.92331336       7.11846957       2.76725489       0.00000000 NULL       0.00401939      -0.00193233      -0.01485566
P       -2.97804547       3.55956918       8.02733231       0.00000000 NULL      -0.00033625       0.00444706      -0.01485566
P        2.05473210       1.96034352      13.28740974       0.00000000 NULL      -0.00368315      -0.00251473      -0.01485566
P        4.04804041       3.60664074      14.26818391       0.00000000 NULL       0.02397790      -0.00632947       0.01431083
P        2.14931069       1.70238546       3.74802905       0.00000000 NULL      -0.00650747       0.02393020       0.01431083
P        4.74780900       1.01016493       9.00810648       0.00000000 NULL      -0.01747043      -0.01760074       0.01431083
P       -0.71574420       5.20662063       5.98776124       0.00000000 NULL      -0.02195391      -0.00227144      -0.00292314
P       -0.50280693       3.09602816      11.24783867       0.00000000 NULL       0.01294408      -0.01787692      -0.00292314
P        1.21855113       4.33573348       0.72768381       0.00000000 NULL       0.00900983       0.02014836      -0.00292314
P        4.79107731       0.65856889      12.30777222       0.00000000 NULL       0.00285083      -0.01434236       0.00311822
P        4.33089736       3.81991022       1.78761736       0.00000000 NULL       0.01099543       0.00964007       0.00311822
P        1.82318543       1.84071202       7.04769479       0.00000000 NULL      -0.01384626       0.00470229       0.00311822
P        3.34890653       0.25966487      10.58918201       0.00000000 NULL      -0.01326846       0.00888927       0.00734083
P        5.39744376       2.77040570      15.84925944       0.00000000 NULL      -0.00106410      -0.01593546       0.00734083
P        2.19880981       3.28912056       5.32910458       0.00000000 NULL       0.01433256       0.00704619       0.00734083
P        0.46495483       2.14027696       2.46241436       0.00000000 NULL      -0.01299636      -0.02125376      -0.01876906
P        1.56237506       5.65171535       7.72249179       0.00000000 NULL       0.02490447      -0.00062830      -0.01876906
P       -2.02732990       4.84638996      12.98256922       0.00000000 NULL      -0.01190812       0.02188205      -0.01876906
P        0.18278343       2.42759655       8.43850515       0.00000000 NULL       0.01257800       0.00242773       0.01039544
P        1.45463470       5.26368795      13.69858258       0.00000000 NULL      -0.00839147       0.00967900       0.01039544
P       -1.63741814       4.94709776       3.17842772       0.00000000 NULL      -0.00418653      -0.01210673       0.01039544
P        0.48296972       0.41553377      13.18671347       0.00000000 NULL      -0.00966872      -0.00187501       0.00142835
P        6.69542574       0.21049716       2.66655862       0.00000000 NULL       0.00645816      -0.00743585       0.00142835
P        3.76676464       5.69316020       7.92663604       0.00000000 NULL       0.00321055       0.00931086       0.00142834
P        1.34096741       3.50111773      10.05447394       0.00000000 NULL       0.00253813      -0.01742982       0.01195254
P       -0.05415391       5.72994412      15.31455137       0.00000000 NULL       0.01382560       0.01091299       0.01195254
P       -1.28681352       3.40732042       4.79439651       0.00000000 NULL      -0.01636373       0.00651683       0.01195254
36
Lattice="7.298985780226835 -2.4345768831697835e-14 5.814488412275555e-43 -3.6494928901133967 6.321107107537833 1.1521333983046543e-41 -5.143416313312165e-43 -2.7334459035996326e-41 15.775388432237866" Properties=species:S:1:pos:R:3:initial_magmoms:R:1:castep_labels:S:1:forces:R:3 n_minim_iter=4 energy=-193.1780089615509 stress="2.2665348604233714e-05 6.627673157246214e-12 8.740810233723772e-12 6.627673157246214e-12 2.26653552211085e-05 6.799665278717389e-12 8.740810233723772e-12 6.799665278717389e-12 -3.947966477044035e-06" free_energy=-193.1780089615509 pbc="T T T"
P        4.25614703       2.69913631       5.97290804       0.00000000 NULL      -0.00315016      -0.00848998       0.00382624
P        2.83339165       2.33636329      11.23137085       0.00000000 NULL       0.00892762       0.00151688       0.00382624
P        3.85893998       1.28560750       0.71444523       0.00000000 NULL      -0.00577746       0.00697311       0.00382624
P        6.78119081       0.80844703      11.23378297       0.00000000 NULL      -0.00216374      -0.01536995       0.00258189
P        3.20825470       5.46846000      16.49224578       0.00000000 NULL       0.01439264       0.00581112       0.00258189
P        0.95903315       0.04420007       5.97532016       0.00000000 NULL      -0.01222890       0.00955883       0.00258189
P        0.59003868       4.90865800       2.80626370       0.00000000 NULL      -0.00987185       0.00141373      -0.00596294
P       -0.89654898       4.37776659       8.06472651       0.00000000 NULL       0.00371160      -0.00925613      -0.00596294
P        0.30651030       3.35578962      13.32318932       0.00000000 NULL       0.00616025       0.00784241      -0.00596294
P        0.92422409       7.12021847       2.76535919       0.00000000 NULL      -0.00186954      -0.00624006       0.01036840
P       -2.97890923       3.56139941       8.02382200       0.00000000 NULL       0.00633882       0.00150096       0.01036840
P        2.05468514       1.96059633      13.28228481       0.00000000 NULL      -0.00446928       0.00473910       0.01036840
P        4.05127115       3.60713623      14.26510436       0.00000000 NULL       0.01532040       0.00561789      -0.01042383
P        2.14947859       1.70493562       3.74817873       0.00000000 NULL      -0.01252544       0.01045891      -0.01042383
P        4.74772892       1.00903525       9.00664155       0.00000000 NULL      -0.00279496      -0.01607680      -0.01042383
P       -0.71813830       5.20820024       5.98540741       0.00000000 NULL       0.00791211       0.00398037       0.00319737
P       -0.50187168       3.09508098      11.24387022       0.00000000 NULL      -0.00740316       0.00486190       0.00319737
P        1.22000997       4.33893300       0.72694460       0.00000000 NULL      -0.00050895      -0.00884227       0.00319737
P        4.79294138       0.65749982      12.30449063       0.00000000 NULL       0.00300741       0.00091669      -0.00837465
P        4.33310354       3.82205909       1.78756501       0.00000000 NULL      -0.00229758       0.00214614      -0.00837465
P        1.82243374       1.84154820       7.04602782       0.00000000 NULL      -0.00070982      -0.00306284      -0.00837465
P        3.34854379       0.26065154      10.58657013       0.00000000 NULL      -0.00907370      -0.00864994       0.01030810
P        5.39898302       2.76959822      15.84503294       0.00000000 NULL       0.01202791      -0.00353308       0.01030810
P        2.20095184       3.29085734       5.32810732       0.00000000 NULL      -0.00295422       0.01218302       0.01030810
P        0.46357428       2.13880496       2.45963033       0.00000000 NULL       0.00931810      -0.00131497      -0.00366176
P        1.56544632       5.65317173       7.71809314       0.00000000 NULL      -0.00352025       0.00872719      -0.00366176
P       -2.02902060       4.85023752      12.97655595       0.00000000 NULL      -0.00579785      -0.00741222      -0.00366176
P        0.18383067       2.42860088       8.43669121       0.00000000 NULL       0.00207493      -0.00519748       0.00409675
P        1.45434749       5.26600870      13.69515402       0.00000000 NULL       0.00346368       0.00439568       0.00409675
P       -1.63817817       4.94760463       3.17822840       0.00000000 NULL      -0.00553861       0.00080180       0.00409675
P        0.48255903       0.41540915      13.18318643       0.00000000 NULL      -0.00835008       0.01339219       0.00028943
P        6.69795139       0.21020380       2.66626081       0.00000000 NULL      -0.00742294      -0.01392747       0.00028943
P        3.76796825       5.69549415       7.92472362       0.00000000 NULL       0.01577302       0.00053528       0.00028943
P        1.34174828       3.50065707      10.05259450       0.00000000 NULL       0.00315420      -0.00185133      -0.00624500
P       -0.05303921       5.73276667      15.31105731       0.00000000 NULL       0.00002620       0.00365729      -0.00624500
P       -1.28870908       3.40879047       4.79413169       0.00000000 NULL      -0.00318040      -0.00180595      -0.00624500
36
Lattice="7.298857498642352 -3.339964999177394e-14 5.821651190939379e-43 -3.649428749321147 6.3209960124268365 1.1522578656745828e-41 -5.1296606980070276e-43 -2.73342273093338e-41 15.777670216025694" Properties=species:S:1:pos:R:3:initial_magmoms:R:1:castep_labels:S:1:forces:R:3 n_minim_iter=5 energy=-193.17833980704225 stress="2.2760676586617324e-05 1.8646048355192444e-12 -5.5245753392072935e-12 1.8646048355192444e-12 2.2760659325330866e-05 -4.004768303481721e-12 -5.5245753392072935e-12 -4.004768303481721e-12 1.7194744363695158e-06" free_energy=-193.17833980704225 pbc="T T T"
P        4.25574979       2.69805282       5.97447675       0.00000000 NULL      -0.00089975      -0.00366056       0.00577101
P        2.83440031       2.33656102      11.23370016       0.00000000 NULL       0.00362001       0.00105107       0.00577102
P        3.85813614       1.28638217       0.71525335       0.00000000 NULL      -0.00272026       0.00260949       0.00577101
P        6.78094890       0.80707267      11.23563096       0.00000000 NULL       0.00204539      -0.00107686      -0.00536803
P        3.20943760       5.46893767      16.49485436       0.00000000 NULL      -0.00009010       0.00230979      -0.00536803
P        0.95789974       0.04498566       5.97640755       0.00000000 NULL      -0.00195528      -0.00123293      -0.00536803
P        0.58807581       4.90912687       2.80518710       0.00000000 NULL      -0.00304339      -0.01155432       0.00256145
P       -0.89603774       4.37572117       8.06441051       0.00000000 NULL       0.01152802       0.00314151       0.00256145
P        0.30796192       3.35714399      13.32363391       0.00000000 NULL      -0.00848464       0.00841281       0.00256145
P        0.92424350       7.11923754       2.76647507       0.00000000 NULL      -0.00843785       0.00345394       0.00382517
P       -2.97813357       3.56179560       8.02569847       0.00000000 NULL       0.00122772      -0.00903436       0.00382517
P        2.05389006       1.96095889      13.28492188       0.00000000 NULL       0.00721012       0.00558042       0.00382517
P        4.05388253       3.60744874      14.26656751       0.00000000 NULL       0.00155038      -0.01318161       0.00485137
P        2.14777398       1.70704089       3.74812070       0.00000000 NULL       0.01064042       0.00793348       0.00485137
P        4.74662973       1.00650638       9.00734411       0.00000000 NULL      -0.01219080       0.00524814       0.00485137
P       -0.71817231       5.20857402       5.98641359       0.00000000 NULL       0.00280034      -0.00095403      -0.00649008
P       -0.50224252       3.09475353      11.24563700       0.00000000 NULL      -0.00057396       0.00290218      -0.00649008
P        1.22041483       4.33866446       0.72719019       0.00000000 NULL      -0.00222638      -0.00194815      -0.00649008
P        4.79336997       0.65702952      12.30551528       0.00000000 NULL      -0.00370960      -0.00052960      -0.00303305
P        4.33316825       3.82266541       1.78706846       0.00000000 NULL       0.00231345      -0.00294781      -0.00303305
P        1.82174801       1.84130108       7.04629187       0.00000000 NULL       0.00139615       0.00347741      -0.00303305
P        3.34678227       0.26001481      10.58959085       0.00000000 NULL       0.00295571      -0.01118465      -0.00042741
P        5.40028693       2.76839106      15.84881426       0.00000000 NULL       0.00820833       0.00815204      -0.00042741
P        2.20121705       3.29259014       5.33036745       0.00000000 NULL      -0.01116404       0.00303261      -0.00042741
P        0.46396343       2.13767581       2.45862769       0.00000000 NULL      -0.01294757       0.00221018      -0.00597249
P        1.56616547       5.65396223       7.71785109       0.00000000 NULL       0.00455972      -0.01231802      -0.00597249
P       -2.03012891       4.85035398      12.97707450       0.00000000 NULL       0.00838786       0.01010784      -0.00597249
P        0.18451459       2.42804764       8.43875555       0.00000000 NULL       0.00049715      -0.01262538       0.00000242
P        1.45442051       5.26676652      13.69797895       0.00000000 NULL       0.01068533       0.00674323       0.00000242
P       -1.63893511       4.94717786       3.17953214       0.00000000 NULL      -0.01118247       0.00588215       0.00000242
P        0.48127036       0.41684158      13.18535434       0.00000000 NULL       0.00243054      -0.00534311       0.00475722
P        6.69722691       0.20837157       2.66690752       0.00000000 NULL       0.00341200       0.00477647       0.00475722
P        3.76978896       5.69578286       7.92613093       0.00000000 NULL      -0.00584254       0.00056665       0.00475722
P        1.34227931       3.49970638      10.05386594       0.00000000 NULL      -0.00039846       0.00101348      -0.00047758
P       -0.05254554       5.73359080      15.31308935       0.00000000 NULL      -0.00067847      -0.00085182      -0.00047758
P       -1.28973378       3.40869484       4.79464254       0.00000000 NULL       0.00107693      -0.00016166      -0.00047758
36
Lattice="7.296846763346519 -3.986124674180121e-14 5.824891791000233e-43 -3.6484233816732234 6.319254664580361 1.1520372757096878e-41 -5.122340402983628e-43 -2.733436914371801e-41 15.779046316177261" Properties=species:S:1:pos:R:3:initial_magmoms:R:1:castep_labels:S:1:forces:R:3 n_minim_iter=6 energy=-193.17861036868118 stress="1.6504204689916404e-05 4.921304600307935e-12 4.773217669242694e-12 4.921304600307935e-12 1.6504218368557537e-05 2.800222348966007e-12 4.773217669242694e-12 2.800222348966007e-12 3.346714988564264e-06" free_energy=-193.17861036868118 pbc="T T T"
P        4.25420097       2.69595276       5.97639320       0.00000000 NULL      -0.00342126       0.00418638       0.00036781
P        2.83498269       2.33626974      11.23607530       0.00000000 NULL      -0.00191488      -0.00505608       0.00036781
P        3.85608647       1.28703216       0.71671109       0.00000000 NULL       0.00533614       0.00086971       0.00036781
P        6.77930357       0.80558027      11.23601663       0.00000000 NULL       0.00398428       0.01070115       0.00235524
P        3.20954200       5.46825898      16.49569874       0.00000000 NULL      -0.01125960      -0.00190009       0.00235524
P        0.95642457       0.04541542       5.97633453       0.00000000 NULL       0.00727533      -0.00880106       0.00235524
P        0.58600573       4.90648848       2.80465782       0.00000000 NULL      -0.00055787      -0.00405891       0.00150535
P       -0.89372316       4.37350628       8.06433992       0.00000000 NULL       0.00379406       0.00154632       0.00150535
P        0.30771741       3.35851457      13.32402203       0.00000000 NULL      -0.00323619       0.00251259       0.00150535
P        0.92275316       7.11717760       2.76783350       0.00000000 NULL      -0.00067333      -0.00479417      -0.00358405
P       -2.97660981       3.55979355       8.02751561       0.00000000 NULL       0.00448854       0.00181396      -0.00358405
P        2.05385664       1.96153818      13.28719771       0.00000000 NULL      -0.00381521       0.00298021      -0.00358405
P        4.05502860       3.60486075      14.26803849       0.00000000 NULL       0.00708142       0.00033066      -0.00533910
P        2.14743147       1.70932741       3.74867428       0.00000000 NULL      -0.00382707       0.00596736      -0.00533910
P        4.74281007       1.00506650       9.00835639       0.00000000 NULL      -0.00325435      -0.00629802      -0.00533910
P       -0.71753647       5.20737007       5.98612431       0.00000000 NULL      -0.00883021      -0.00212660      -0.00403810
P       -0.50252316       3.09416482      11.24580642       0.00000000 NULL       0.00625679      -0.00658388      -0.00403810
P        1.22005962       4.33697443       0.72644220       0.00000000 NULL       0.00257341       0.00871048      -0.00403810
P        4.79188117       0.65645500      12.30554588       0.00000000 NULL       0.00246729      -0.00089562       0.00016857
P        4.33239946       3.82166332       1.78618167       0.00000000 NULL      -0.00045801       0.00258455       0.00016857
P        1.82098950       1.84113634       7.04586377       0.00000000 NULL      -0.00200928      -0.00168893       0.00016857
P        3.34495678       0.25777715      10.59160321       0.00000000 NULL      -0.00224887      -0.00399011      -0.00156119
P        5.40112681       2.76792897      15.85128532       0.00000000 NULL       0.00457998       0.00004748      -0.00156119
P        2.19918655       3.29354854       5.33192111       0.00000000 NULL      -0.00233111       0.00394264      -0.00156119
P        0.46232146       2.13662546       2.45694908       0.00000000 NULL       0.00360560       0.00543811       0.00727801
P        1.56689072       5.65132407       7.71663119       0.00000000 NULL      -0.00651234       0.00040349       0.00727801
P       -2.02921219       4.85055980      12.97631329       0.00000000 NULL       0.00290674      -0.00584160       0.00727801
P        0.18504354       2.42512692       8.44015091       0.00000000 NULL      -0.00470614      -0.00575862      -0.00147210