20
Lattice="6.201229999999997 0.0 -3.102152722467166e-16 0.0 7.83031 0.0 -1.5445720911347678 0.0 9.277889425493688" Properties=species:S:1:pos:R:3:initial_magmoms:R:1:castep_labels:S:1 n_minim_iter=1 pbc="T T T"
P        4.42346700       6.81661843       3.39770413       0.00000000 NULL
P        4.42346700       1.01369157       3.39770413       0.00000000 NULL
P        0.83471283       4.91892009       2.57303707       0.00000000 NULL
P        0.83471283       2.91138991       2.57303707       0.00000000 NULL
P        2.13040350       5.61094096       4.72970010       0.00000000 NULL
P        2.13040350       2.21936904       4.72970010       0.00000000 NULL
P        2.00769116       4.94593231       7.69435781       0.00000000 NULL
P        2.00769116       2.88437769       7.69435781       0.00000000 NULL
P       -0.89676543       6.80314246       8.52849852       0.00000000 NULL
P       -0.89676543       1.02716754       8.52849852       0.00000000 NULL
P        2.95216938       4.94464266       2.62278697       0.00000000 NULL
P        2.95216938       2.88566734       2.62278697       0.00000000 NULL
P        4.99443053       2.87897164       2.84020689       0.00000000 NULL
P        4.99443053       4.95133836       2.84020689       0.00000000 NULL
P        0.51196829       6.82654648       3.20681805       0.00000000 NULL
P        0.51196829       1.00376352       3.20681805       0.00000000 NULL
P        4.91510469       4.92340138       6.95332072       0.00000000 NULL
P        4.91510469       2.90690862       6.95332072       0.00000000 NULL
P        0.34770619       4.92332699       5.44901487       0.00000000 NULL
P        0.34770619       2.90698301       5.44901487       0.00000000 NULL
20
Lattice="6.22736639198327 0.0 -0.0029387022196057763 0.0 7.885644820350602 0.0 -1.55547871705709 0.0 9.282436632270539" Properties=species:S:1:pos:R:3:initial_magmoms:R:1:castep_labels:S:1 n_minim_iter=2 pbc="T T T"
P        4.44049878       6.86482272       3.39707547       0.00000000 NULL
P        4.44049878       1.02082210       3.39707547       0.00000000 NULL
P        0.83710674       4.95376015       2.57353986       0.00000000 NULL
P        0.83710674       2.93188467       2.57353986       0.00000000 NULL
P        2.13736762       5.65075134       4.73059819       0.00000000 NULL
P        2.13736762       2.23489348       4.73059819       0.00000000 NULL
P        2.01250427       4.98088953       7.69647434       0.00000000 NULL
P        2.01250427       2.90475529       7.69647434       0.00000000 NULL
P       -0.90456897       6.85128667       8.53245547       0.00000000 NULL
P       -0.90456897       1.03435815       8.53245547       0.00000000 NULL
P        2.96320310       4.97977103       2.62241070       0.00000000 NULL
P        2.96320310       2.90587379       2.62241070       0.00000000 NULL
P        5.01417945       2.89936157       2.83891923       0.00000000 NULL
P        5.01417945       4.98628325       2.83891923       0.00000000 NULL
P        0.51264050       6.87484528       3.20798721       0.00000000 NULL
P        0.51264050       1.01079954       3.20798721       0.00000000 NULL
P        4.93245025       4.95859900       6.95394421       0.00000000 NULL
P        4.93245025       2.92704582       6.95394421       0.00000000 NULL
P        0.34641646       4.95830161       5.45124685       0.00000000 NULL
P        0.34641646       2.92734321       5.45124685       0.00000000 NULL
20
Lattice="6.472768226930777 0.0 -0.03155229503943335 0.0 8.405557380259108 0.0 -1.6594120618325026 0.0 9.315804562666552" Properties=species:S:1:pos:R:3:initial_magmoms:R:1:castep_labels:S:1 n_minim_iter=3 pbc="T T T"
P        4.59997668       7.31781521       3.38689746       0.00000000 NULL
P        4.59997668       1.08774217       3.38689746       0.00000000 NULL
P        0.85921840       5.28117054       2.57547101       0.00000000 NULL
P        0.85921840       3.12438684       2.57547101       0.00000000 NULL
P        2.20205487       6.02491100       4.73377036       0.00000000 NULL
P        2.20205487       2.38064638       4.73377036       0.00000000 NULL
P        2.05643376       5.30909691       7.70796533       0.00000000 NULL
P        2.05643376       3.09646047       7.70796533       0.00000000 NULL
P       -0.97924633       7.30390229       8.56095892       0.00000000 NULL
P       -0.97924633       1.10165509       8.56095892       0.00000000 NULL
P        3.06621804       5.30981215       2.61571932       0.00000000 NULL
P        3.06621804       3.09574523       2.61571932       0.00000000 NULL
P        5.19919439       3.09096554       2.82307889       0.00000000 NULL
P        5.19919439       5.31459184       2.82307889       0.00000000 NULL
P        0.51836495       7.32874328       3.21555369       0.00000000 NULL
P        0.51836495       1.07681410       3.21555369       0.00000000 NULL
P        5.09413257       5.28951346       6.95185447       0.00000000 NULL
P        5.09413257       3.11604392       6.95185447       0.00000000 NULL
P        0.33334043       5.28689622       5.46659818       0.00000000 NULL
P        0.33334043       3.11866116       5.46659818       0.00000000 NULL
20
Lattice="6.533574825932549 0.0 -0.04943743431693309 0.0 8.481478454877541 0.0 -1.7013160906060147 0.0 9.24028358216528" Properties=species:S:1:pos:R:3:initial_magmoms:R:1:castep_labels:S:1 n_minim_iter=4 pbc="T T T"
P        4.63487557       7.38441218       3.34489754       0.00000000 NULL
P        4.63487557       1.09706628       3.34489754       0.00000000 NULL
P        0.86065267       5.32960025       2.55016441       0.00000000 NULL
P        0.86065267       3.15187821       2.55016441       0.00000000 NULL
P        2.21044877       6.07998423       4.68638074       0.00000000 NULL
P        2.21044877       2.40149422       4.68638074       0.00000000 NULL
P        2.05405196       5.35488504       7.63455485       0.00000000 NULL
P        2.05405196       3.12659341       7.63455485       0.00000000 NULL
P       -1.01260579       7.37163506       8.49021236       0.00000000 NULL
P       -1.01260579       1.10984339       8.49021236       0.00000000 NULL
P        3.08597405       5.35784762       2.58472263       0.00000000 NULL
P        3.08597405       3.12363084       2.58472263       0.00000000 NULL
P        5.24033385       3.11894763       2.78388873       0.00000000 NULL
P        5.24033385       5.36253083       2.78388873       0.00000000 NULL
P        0.51348240       7.39556282       3.18675972       0.00000000 NULL
P        0.51348240       1.08591563       3.18675972       0.00000000 NULL
P        5.12175505       5.33887030       6.87842590       0.00000000 NULL
P        5.12175505       3.14260816       6.87842590       0.00000000 NULL
P        0.32018272       5.33446018       5.42005049       0.00000000 NULL
P        0.32018272       3.14701827       5.42005049       0.00000000 NULL
20
Lattice="6.572066371886794 0.0 -0.0712352275873505 0.0 8.501064241972994 0.0 -1.7435158611851183 0.0 9.127933980002583" Properties=species:S:1:pos:R:3:initial_magmoms:R:1:castep_labels:S:1 n_minim_iter=5 pbc="T T T"
P        4.65245631       7.40217442       3.28613734       0.00000000 NULL
P        4.65245631       1.09888983       3.28613734       0.00000000 NULL
P        0.85752642       5.34288395       2.51380215       0.00000000 NULL
P        0.85752642       3.15818029       2.51380215       0.00000000 NULL
P        2.20834600       6.09464100       4.61821888       0.00000000 NULL
P        2.20834600       2.40642325       4.61821888       0.00000000 NULL
P        2.03963005       5.36414088       7.52814444       0.00000000 NULL
P        2.03963005       3.13692336       7.52814444       0.00000000 NULL
P       -1.04818147       7.39100192       8.38539904       0.00000000 NULL
P       -1.04818147       1.11006232       8.38539904       0.00000000 NULL
P        3.09305949       5.37013743       2.54133353       0.00000000 NULL
P        3.09305949       3.13092681       2.54133353       0.00000000 NULL
P        5.26170937       3.12609077       2.72997440       0.00000000 NULL
P        5.26170937       5.37497347       2.72997440       0.00000000 NULL
P        0.50432873       7.41350755       3.14456547       0.00000000 NULL
P        0.50432873       1.08755669       3.14456547       0.00000000 NULL
P        5.12721249       5.35288756       6.77354890       0.00000000 NULL
P        5.12721249       3.14817668       6.77354890       0.00000000 NULL
P        0.30228313       5.34629575       5.35154320       0.00000000 NULL
P        0.30228313       3.15476849       5.35154320       0.00000000 NULL
20
Lattice="6.65496440421271 3.4860289719651056e-20 -0.14433342094371948 0.0 8.519799912848221 -4.16015463749523e-18 -1.873528607415197 -4.466925057473137e-18 8.780488486471949" Properties=species:S:1:pos:R:3:initial_magmoms:R:1:castep_labels:S:1 n_minim_iter=6 pbc="T T T"
P        4.67909788       7.42101603       3.09948503       0.00000000 NULL
P        4.67909788       1.09878388       3.09948503       0.00000000 NULL
P        0.84051148       5.35809698       2.40027447       0.00000000 NULL
P        0.84051148       3.16170293       2.40027447       0.00000000 NULL
P        2.18530977       6.10989962       4.40479586       0.00000000 NULL
P        2.18530977       2.40990029       4.40479586       0.00000000 NULL
P        1.97610094       5.36534163       7.19584945       0.00000000 NULL
P        1.97610094       3.15445828       7.19584945       0.00000000 NULL
P       -1.16101599       7.41538552       8.06106726       0.00000000 NULL
P       -1.16101599       1.10441439       8.06106726       0.00000000 NULL
P        3.09521812       5.38158312       2.40416714       0.00000000 NULL
P        3.09521812       3.13821679       2.40416714       0.00000000 NULL
P        5.29603762       3.13262161       2.55830804       0.00000000 NULL
P        5.29603762       5.38717831       2.55830804       0.00000000 NULL
P        0.46938230       7.43314153       3.01302821       0.00000000 NULL
P        0.46938230       1.08665839       3.01302821       0.00000000 NULL
P        5.10914630       5.37009803       6.44307874       0.00000000 NULL
P        5.10914630       3.14970188       6.44307874       0.00000000 NULL
P        0.23987536       5.35637885       5.13912374       0.00000000 NULL
P        0.23987536       3.16342106       5.13912374       0.00000000 NULL
20
Lattice="6.738046023995084 3.5122887989590517e-20 -0.2515167676736961 7.504829360425159e-20 8.583978516506903 -4.051910015941627e-18 -2.0545831385996856 -4.500573853896663e-18 8.583257546373938" Properties=species:S:1:pos:R:3:initial_magmoms:R:1:castep_labels:S:1 n_minim_iter=7 pbc="T T T"
P        4.69312889       7.48131426       2.93949862       0.00000000 NULL
P        4.69312889       1.10266426       2.93949862       0.00000000 NULL
P        0.80901314       5.40441144       2.32005441       0.00000000 NULL
P        0.80901314       3.17956708       2.32005441       0.00000000 NULL
P        2.13844051       6.15884645       4.25223915       0.00000000 NULL
P        2.13844051       2.42513207       4.25223915       0.00000000 NULL
P        1.86860112       5.39026338       6.96856269       0.00000000 NULL
P        1.86860112       3.19371514       6.96856269       0.00000000 NULL
P       -1.32185979       7.48506924       7.87310002       0.00000000 NULL
P       -1.32185979       1.09890928       7.87310002       0.00000000 NULL
P        3.08278283       5.42114083       2.28953833       0.00000000 NULL
P        3.08278283       3.16283768       2.28953833       0.00000000 NULL
P        5.31480678       3.15565371       2.40246328       0.00000000 NULL
P        5.31480678       5.42832480       2.40246328       0.00000000 NULL
P        0.41306475       7.49684760       2.92707049       0.00000000 NULL
P        0.41306475       1.08713092       2.92707049       0.00000000 NULL
P        5.05375645       5.41848516       6.19093718       0.00000000 NULL
P        5.05375645       3.16549336       6.19093718       0.00000000 NULL
P        0.14607249       5.39455202       5.01324334       0.00000000 NULL
P        0.14607249       3.18942649       5.01324334       0.00000000 NULL
20
Lattice="6.698807388841039 3.396541883602134e-20 -0.30390929983535664 1.119797343048454e-19 8.4889679107793 -4.015925417589948e-18 -2.1231961749431765 -4.450123507941016e-18 8.523046391688462" Properties=species:S:1:pos:R:3:initial_magmoms:R:1:castep_labels:S:1 n_minim_iter=8 pbc="T T T"
P        4.64325624       7.40047920       2.87442082       0.00000000 NULL
P        4.64325624       1.08848872       2.87442082       0.00000000 NULL
P        0.78237220       5.34739479       2.29064288       0.00000000 NULL
P        0.78237220       3.14157312       2.29064288       0.00000000 NULL
P        2.08747976       6.09171951       4.19614018       0.00000000 NULL
P        2.08747976       2.39724840       4.19614018       0.00000000 NULL
P        1.78931667       5.32379029       6.88835119       0.00000000 NULL
P        1.78931667       3.16517762       6.88835119       0.00000000 NULL
P       -1.38904281       7.40953436       7.81425589       0.00000000 NULL
P       -1.38904281       1.07943355       7.81425589       0.00000000 NULL
P        3.04041205       5.36005528       2.24329976       0.00000000 NULL
P        3.04041205       3.12891263       2.24329976       0.00000000 NULL
P        5.25936137       3.12044195       2.33767910       0.00000000 NULL
P        5.25936137       5.36852596       2.33767910       0.00000000 NULL
P        0.37867463       7.41775445       2.89727153       0.00000000 NULL
P        0.37867463       1.07121346       2.89727153       0.00000000 NULL
P        4.96441688       5.36089681       6.09429995       0.00000000 NULL
P        4.96441688       3.12807110       6.09429995       0.00000000 NULL
P        0.09545558       5.33385576       4.97362230       0.00000000 NULL
P        0.09545558       3.15511215       4.97362230       0.00000000 NULL
20
Lattice="6.721631413710799 3.485764654987424e-20 -0.3295049931664698 1.3067399262282442e-19 8.552733716993558 -4.0088464624771795e-18 -2.16717573453315 -4.483147882250567e-18 8.516559577771053" Properties=species:S:1:pos:R:3:initial_magmoms:R:1:castep_labels:S:1 n_minim_iter=9 pbc="T T T"
P        4.64778639       7.45662860       2.85119980       0.00000000 NULL
P        4.64778639       1.09610512       2.85119980       0.00000000 NULL
P        0.77499837       5.38847867       2.28270589       0.00000000 NULL
P        0.77499837       3.16425504       2.28270589       0.00000000 NULL
P        2.07689511       6.13804071       4.18058179       0.00000000 NULL
P        2.07689511       2.41469301       4.18058179       0.00000000 NULL
P        1.76423871       5.36212818       6.86860681       0.00000000 NULL
P        1.76423871       3.19060554       6.86860681       0.00000000 NULL
P       -1.42782133       7.46778736       7.80646324       0.00000000 NULL
P       -1.42782133       1.08494636       7.80646324       0.00000000 NULL
P        3.03992780       5.40005675       2.22715996       0.00000000 NULL
P        3.03992780       3.15267697       2.22715996       0.00000000 NULL
P        5.26623960       3.14396528       2.31297535       0.00000000 NULL
P        5.26623960       5.40876844       2.31297535       0.00000000 NULL
P        0.36604404       7.47484296       2.89069894       0.00000000 NULL
P        0.36604404       1.07789076       2.89069894       0.00000000 NULL
P        4.95399169       5.40234902       6.06422879       0.00000000 NULL
P        4.95399169       3.15038469       6.06422879       0.00000000 NULL
P        0.07308549       5.37404290       4.96710915       0.00000000 NULL
P        0.07308549       3.17869082       4.96710915       0.00000000 NULL
20
Lattice="6.725306081441242 3.482807611942876e-20 -0.35432405373034237 1.4823172481443543e-19 8.557878494558572 -3.9967290049247825e-18 -2.2052237167523008 -4.485341771699231e-18 8.498976504971715" Properties=species:S:1:pos:R:3:initial_magmoms:R:1:castep_labels:S:1 n_minim_iter=10 pbc="T T T"
P        4.63910021       7.46169578       2.82447419       0.00000000 NULL
P        4.63910021       1.09618272       2.82447419       0.00000000 NULL
P        0.76535034       5.39261871       2.27194078       0.00000000 NULL
P        0.76535034       3.16525978       2.27194078       0.00000000 NULL
P        2.06022269       6.14215909       4.15966555       0.00000000 NULL
P        2.06022269       2.41571940       4.15966555       0.00000000 NULL
P        1.73390787       5.36349854       6.84011770       0.00000000 NULL
P        1.73390787       3.19437995       6.84011770       0.00000000 NULL
P       -1.46274859       7.47491996       7.78850322       0.00000000 NULL
P       -1.46274859       1.08295853       7.78850322       0.00000000 NULL
P        3.03078937       5.40288208       2.20836968       0.00000000 NULL
P        3.03078937       3.15499641       2.20836968       0.00000000 NULL
P        5.25798089       3.14587212       2.28563510       0.00000000 NULL
P        5.25798089       5.41200637       2.28563510       0.00000000 NULL
P        0.35222162       7.48066334       2.88041165       0.00000000 NULL
P        0.35222162       1.07721515       2.88041165       0.00000000 NULL
P        4.92933759       5.40647663       6.02653763       0.00000000 NULL
P        4.92933759       3.15140187       6.02653763       0.00000000 NULL
P        0.05030010       5.37717379       4.95420191       0.00000000 NULL
P        0.05030010       3.18070471       4.95420191       0.00000000 NULL
20
Lattice="6.748411420477626 3.4233695636232974e-20 -0.5184286200690252 2.6391024020174258e-19 8.57760615824106 -3.910625338761608e-18 -2.456501589455088 -4.491932483513695e-18 8.370706397053185" Properties=species:S:1:pos:R:3:initial_magmoms:R:1:castep_labels:S:1 n_minim_iter=11 pbc="T T T"
P        4.58001108       7.48244412       2.64304949       0.00000000 NULL
P        4.58001108       1.09516203       2.64304949       0.00000000 NULL
P        0.70153707       5.41061381       2.19773241       0.00000000 NULL
P        0.70153707       3.16699234       2.19773241       0.00000000 NULL
P        1.94940500       6.15889188       4.01514994       0.00000000 NULL
P        1.94940500       2.41871428       4.01514994       0.00000000 NULL
P        1.53307383       5.36472977       6.64254261       0.00000000 NULL
P        1.53307383       3.21287639       6.64254261       0.00000000 NULL
P       -1.69345028       7.50881593       7.65853870       0.00000000 NULL
P       -1.69345028       1.06879023       7.65853870       0.00000000 NULL
P        2.97033033       5.41242961       2.08093274       0.00000000 NULL
P        2.97033033       3.16517655       2.08093274       0.00000000 NULL
P        5.20243997       3.15328490       2.10124035       0.00000000 NULL
P        5.20243997       5.42432126       2.10124035       0.00000000 NULL
P        0.26131986       7.50613913       2.80851970       0.00000000 NULL
P        0.26131986       1.07146703       2.80851970       0.00000000 NULL
P        4.76560213       5.42416812       5.76802814       0.00000000 NULL
P        4.76560213       3.15343804       5.76802814       0.00000000 NULL
P       -0.10112788       5.38904398       4.86108570       0.00000000 NULL
P       -0.10112788       3.18856218       4.86108570       0.00000000 NULL
20
Lattice="6.824013697987567 3.1342222712587687e-20 -0.7173744722946375 4.007482893682206e-19 8.605457087371155 -3.738820106843036e-18 -2.772982478968606 -4.499468493097738e-18 8.077229476746238" Properties=species:S:1:pos:R:3:initial_magmoms:R:1:castep_labels:S:1 n_minim_iter=12 pbc="T T T"
P        4.53902255       7.50941533       2.37159544       0.00000000 NULL
P        4.53902255       1.09604175       2.37159544       0.00000000 NULL
P        0.63086603       5.43278860       2.07018162       0.00000000 NULL
P        0.63086603       3.17266849       2.07018162       0.00000000 NULL
P        1.83176054       6.18121598       3.76994379       0.00000000 NULL
P        1.83176054       2.42424111       3.76994379       0.00000000 NULL
P        1.30464640       5.37601821       6.29266516       0.00000000 NULL
P        1.30464640       3.22943887       6.29266516       0.00000000 NULL
P       -1.97957344       7.54949220       7.37364317       0.00000000 NULL
P       -1.97957344       1.05596488       7.37364317       0.00000000 NULL
P        2.92223645       5.42543484       1.88809803       0.00000000 NULL
P        2.92223645       3.18002225       1.88809803       0.00000000 NULL
P        5.17365766       3.16449036       1.83565417       0.00000000 NULL
P        5.17365766       5.44096672       1.83565417       0.00000000 NULL
P        0.15778493       7.53806316       2.67441919       0.00000000 NULL
P        0.15778493       1.06739393       2.67441919       0.00000000 NULL
P        4.60629071       5.44559657       5.34918401       0.00000000 NULL
P        4.60629071       3.15986052       5.34918401       0.00000000 NULL
P       -0.28641916       5.40690126       4.66402673       0.00000000 NULL
P       -0.28641916       3.19855583       4.66402673       0.00000000 NULL
20
Lattice="6.962751778579379 2.6244457754118325e-20 -0.8882161620020252 5.138934964173935e-19 8.671658617168948 -3.567247842404657e-18 -3.063141249668833 -4.5256053773555436e-18 7.7788305287115795" Properties=species:S:1:pos:R:3:initial_magmoms:R:1:castep_labels:S:1 n_minim_iter=13 pbc="T T T"
P        4.56132103       7.57189620       2.11936347       0.00000000 NULL
P        4.56132103       1.09976242       2.11936347       0.00000000 NULL
P        0.57869901       5.47652386       1.94242870       0.00000000 NULL
P        0.57869901       3.19513476       1.94242870       0.00000000 NULL
P        1.76432446       6.23359117       3.53630614       0.00000000 NULL
P        1.76432446       2.43806744       3.53630614       0.00000000 NULL
P        1.13218966       5.41820384       5.95936970       0.00000000 NULL
P        1.13218966       3.25345478       5.95936970       0.00000000 NULL
P       -2.23587280       7.62704805       7.08703971       0.00000000 NULL
P       -2.23587280       1.04461057       7.08703971       0.00000000 NULL
P        2.91742097       5.45944454       1.70706557       0.00000000 NULL
P        2.91742097       3.21221407       1.70706557       0.00000000 NULL
P        5.20790336       3.19212449       1.59280189       0.00000000 NULL
P        5.20790336       5.47953412       1.59280189       0.00000000 NULL
P        0.07313711       7.60507381       2.54382415       0.00000000 NULL
P        0.07313711       1.06658480       2.54382415       0.00000000 NULL
P        4.53436117       5.48999251       4.95294570       0.00000000 NULL
P        4.53436117       3.18166611       4.95294570       0.00000000 NULL
P       -0.45832819       5.44868389       4.47231336       0.00000000 NULL
P       -0.45832819       3.22297472       4.47231336       0.00000000 NULL
20
Lattice="6.938151665486752 2.7326090271918895e-20 -0.8148706995747443 4.6337297408929e-19 8.645898699522311 -3.65544145022401e-18 -2.947279116126996 -4.515544952040998e-18 7.937367538400552" Properties=species:S:1:pos:R:3:initial_magmoms:R:1:castep_labels:S:1 n_minim_iter=14 pbc="T T T"
P        4.59006422       7.55205843       2.23571797       0.00000000 NULL
P        4.59006422       1.09384027       2.23571797       0.00000000 NULL
P        0.60262779       5.45846946       1.99501776       0.00000000 NULL
P        0.60262779       3.18742923       1.99501776       0.00000000 NULL
P        1.82065253       6.21881404       3.65229259       0.00000000 NULL
P        1.82065253       2.42708466       3.65229259       0.00000000 NULL
P        1.21549326       5.40410706       6.13169954       0.00000000 NULL
P        1.21549326       3.24179164       6.13169954       0.00000000 NULL
P       -2.13149553       7.61277978       7.24020956       0.00000000 NULL
P       -2.13149553       1.03311892       7.24020956       0.00000000 NULL
P        2.93769258       5.43963913       1.78926805       0.00000000 NULL
P        2.93769258       3.20625957       1.78926805       0.00000000 NULL
P        5.22114517       3.18434804       1.70501267       0.00000000 NULL
P        5.22114517       5.46155066       1.70501267       0.00000000 NULL
P        0.10546331       7.58528885       2.61092552       0.00000000 NULL
P        0.10546331       1.06060985       2.61092552       0.00000000 NULL
P        4.60299236       5.47314378       5.14134007       0.00000000 NULL
P        4.60299236       3.17275492       5.14134007       0.00000000 NULL
P       -0.40996023       5.43144421       4.58942636       0.00000000 NULL
P       -0.40996023       3.21445449       4.58942636       0.00000000 NULL
20
Lattice="6.871604139521209 2.986222008405508e-20 -0.8187686956758916 4.70298620414395e-19 8.630997301521642 -3.623053442068987e-18 -2.936535719327814 -4.509343605332154e-18 7.868397306098919" Properties=species:S:1:pos:R:3:initial_magmoms:R:1:castep_labels:S:1 n_minim_iter=15 pbc="T T T"
P        4.54459526       7.54065432       2.20611406       0.00000000 NULL
P        4.54459526       1.09034298       2.20611406       0.00000000 NULL
P        0.59142809       5.44944229       1.97241327       0.00000000 NULL
P        0.59142809       3.18155501       1.97241327       0.00000000 NULL
P        1.79892357       6.20969135       3.61474240       0.00000000 NULL
P        1.79892357       2.42130595       3.61474240       0.00000000 NULL
P        1.18807422       5.39529225       6.07390189       0.00000000 NULL
P        1.18807422       3.23570505       6.07390189       0.00000000 NULL
P       -2.12743273       7.60563780       7.17729369       0.00000000 NULL
P       -2.12743273       1.02535950       7.17729369       0.00000000 NULL
P        2.90488217       5.42817071       1.76661426       0.00000000 NULL
P        2.90488217       3.20282659       1.76661426       0.00000000 NULL
P        5.16555597       3.17976813       1.68021005       0.00000000 NULL
P        5.16555597       5.45122917       1.68021005       0.00000000 NULL
P        0.09627201       7.57343560       2.58667922       0.00000000 NULL
P        0.09627201       1.05756170       2.58667922       0.00000000 NULL
P        4.54947861       5.46360979       5.08412143       0.00000000 NULL
P        4.54947861       3.16738751       5.08412143       0.00000000 NULL
P       -0.42573087       5.42178949       4.55303970       0.00000000 NULL
P       -0.42573087       3.20920781       4.55303970       0.00000000 NULL
20
Lattice="6.903481111741858 -8.039378126309871e-19 -0.8256960149974963 4.756672909414508e-19 8.67061806118472 5.168866086138745e-18 -2.9548396984291925 3.4909948058564535e-18 7.884993648029135" Properties=species:S:1:pos:R:3:initial_magmoms:R:1:castep_labels:S:1 n_minim_iter=16 pbc="T T T"
P        4.56652073       7.57607759       2.20591596       0.00000000 NULL
P        4.56652073       1.09454047       2.20591596       0.00000000 NULL
P        0.59237685       5.47431933       1.97374152       0.00000000 NULL
P        0.59237685       3.19629873       1.97374152       0.00000000 NULL
P        1.80756745       6.23928913       3.61970003       0.00000000 NULL
P        1.80756745       2.43132893       3.61970003       0.00000000 NULL
P        1.18935078       5.42055119       6.08476166       0.00000000 NULL
P        1.18935078       3.25006687       6.08476166       0.00000000 NULL
P       -2.14171183       7.64335945       7.19249243       0.00000000 NULL
P       -2.14171183       1.02725861       7.19249243       0.00000000 NULL
P        2.91710458       5.45199509       1.76682619       0.00000000 NULL
P        2.91710458       3.21862297       1.76682619       0.00000000 NULL
P        5.18810986       3.19507006       1.67892195       0.00000000 NULL
P        5.18810986       5.47554800       1.67892195       0.00000000 NULL
P        0.09406203       7.60880644       2.59134887       0.00000000 NULL
P        0.09406203       1.06181162       2.59134887       0.00000000 NULL
P        4.56865424       5.48865779       5.08905997       0.00000000 NULL
P        4.56865424       3.18196028       5.08905997       0.00000000 NULL
P       -0.43537866       5.44656566       4.56446747       0.00000000 NULL
P       -0.43537866       3.22405240       4.56446747       0.00000000 NULL
20
Lattice="6.902482358753747 -8.038106675195799e-19 -0.8284907942044886 4.722463335341558e-19 8.666457543105581 5.163098038235159e-18 -2.9587723063891875 3.4894669082694926e-18 7.878125185864959" Properties=species:S:1:pos:R:3:initial_magmoms:R:1:castep_labels:S:1 n_minim_iter=17 pbc="T T T"
P        4.56664298       7.57316270       2.20054842       0.00000000 NULL
P        4.56664298       1.09329484       2.20054842       0.00000000 NULL
P        0.59068966       5.47165326       1.96987551       0.00000000 NULL
P        0.59068966       3.19480428       1.96987551       0.00000000 NULL
P        1.80736305       6.23713013       3.61461298       0.00000000 NULL
P        1.80736305       2.42932741       3.61461298       0.00000000 NULL
P        1.18516580       5.41809786       6.07823283       0.00000000 NULL
P        1.18516580       3.24835969       6.07823283       0.00000000 NULL
P       -2.14552549       7.64234442       7.18637937       0.00000000 NULL
P       -2.14552549       1.02411312       7.18637937       0.00000000 NULL
P        2.91549864       5.44832069       1.76283481       0.00000000 NULL
P        2.91549864       3.21813685       1.76283481       0.00000000 NULL
P        5.18600008       3.19410255       1.67417896       0.00000000 NULL
P        5.18600008       5.47235499       1.67417896       0.00000000 NULL