9
Lattice="4.949940111464065 -0.45252839160542807 0.6071750847496125 0.2554145814371296 5.890122025496508 -0.6605618450348197 2.736869566741286 0.41588545674428185 6.548185092473152" Properties=species:S:1:pos:R:3:initial_magmoms:R:1:castep_labels:S:1:forces:R:3 n_minim_iter=1 energy=-48.34045395189799 stress="0.0049573863955859 0.0033092579369686567 -0.001567832530322706 0.0033092579369686567 0.003062658444700391 0.002613582046626899 -0.001567832530322706 0.002613582046626899 -0.0013957771914389957" free_energy=-48.34045395189799 pbc="T T T"
P        3.84114118       1.96996122       5.39409157       0.00000000 NULL      -0.22599128      -0.23071323       0.08216471
P        3.45394394       2.72901661       0.92744538       0.00000000 NULL       0.13867971       0.01851157      -0.07638858
P        1.45882311      -0.22595326       2.47674869       0.00000000 NULL       0.20644145       0.17336271       0.00350454
P        1.63619754       4.86122608      -0.28398536       0.00000000 NULL      -0.00351210      -0.03921552       0.11631488
P        3.28491958       4.25074421       2.61856071       0.00000000 NULL       0.06497802      -0.25455817       0.08479409
P        2.35781827       2.64324253       3.87901194       0.00000000 NULL      -0.08062342       0.12959837      -0.19655866
P        0.75607522       2.96058064       0.50017032       0.00000000 NULL      -0.21055610      -0.14569710       0.08233903
P        3.26889205       1.12522437       2.48209052       0.00000000 NULL      -0.13353115       0.16838953      -0.11746966
P        2.64430696       6.24347165       5.35627000       0.00000000 NULL       0.24411487       0.18032185       0.02129965
9
Lattice="4.924181013004335 -0.47188993043073857 0.6186624918214236 0.22997435197895955 5.870131496651926 -0.6792185527190373 2.731480214388739 0.3837739897424915 6.562704485267328" Properties=species:S:1:pos:R:3:initial_magmoms:R:1:castep_labels:S:1:forces:R:3 n_minim_iter=2 energy=-48.350908172069694 stress="-0.0015939916933177015 -0.00040964251675882165 0.00043240101923929956 -0.00040964251675882165 -0.0016764476182481527 0.0006737817971099139 0.00043240101923929956 0.0006737817971099139 -0.0020225999117386984" free_energy=-48.350908172069694 pbc="T T T"
P        3.81981853       1.93011292       5.40451106       0.00000000 NULL      -0.13219665      -0.18527188      -0.02345020
P        3.42601311       2.70320939       0.92647720       0.00000000 NULL       0.04283023       0.00669815      -0.09773210
P        1.45711697      -0.23727278       2.48421483       0.00000000 NULL       0.09503090       0.09238433       0.04396443
P        1.60741922       4.83817161      -0.29559028       0.00000000 NULL       0.05881982       0.03326097       0.06646437
P        3.25474156       4.21324473       2.61643133       0.00000000 NULL       0.06774251      -0.13741279       0.05456610
P        2.34059392       2.61364656       3.88036975       0.00000000 NULL      -0.11349659       0.07710573      -0.09052895
P        0.73986130       2.94463925       0.49383986       0.00000000 NULL      -0.16859516      -0.14252926       0.14571847
P        3.24935820       1.10205334       2.48798088       0.00000000 NULL      -0.01936145       0.20574163      -0.16265448
P        2.61629414       6.19570131       5.35094625       0.00000000 NULL       0.16922639       0.05002311       0.06365235
9
Lattice="4.929011441373955 -0.47665227999769744 0.6213477127212359 0.22721780277176554 5.882144163273504 -0.6948812285319247 2.732782276208377 0.368749802086636 6.588362627091709" Properties=species:S:1:pos:R:3:initial_magmoms:R:1:castep_labels:S:1:forces:R:3 n_minim_iter=3 energy=-48.35413642833472 stress="0.0005922215485867704 -0.0009723636432318206 0.0009440702476047331 -0.0009723636432318206 0.002169449645980011 -0.0013323080189384887 0.0009440702476047331 -0.0013323080189384887 0.001978985323788831" free_energy=-48.35413642833472 pbc="T T T"
P        3.81982617       1.91761231       5.42178249       0.00000000 NULL      -0.18339192      -0.14955595      -0.04840523
P        3.42838417       2.70442231       0.92265212       0.00000000 NULL       0.03276309      -0.03928827      -0.02615102
P        1.45953659      -0.24264359       2.49511727       0.00000000 NULL       0.12778757       0.06208491       0.00880708
P        1.60700870       4.84698899      -0.30678212       0.00000000 NULL       0.01239751       0.00310155       0.12504858
P        3.25598129       4.21164368       2.61811936       0.00000000 NULL       0.02354259      -0.10540171       0.04505204
P        2.33953638       2.60974327       3.88889523       0.00000000 NULL      -0.03615821       0.06536801      -0.07647538
P        0.73690841       2.94685521       0.49089900       0.00000000 NULL      -0.13848949      -0.09160182       0.06658559
P        3.25097389       1.09928485       2.49337053       0.00000000 NULL      -0.03425722       0.22783228      -0.16819192
P        2.61674470       6.19475276       5.35960618       0.00000000 NULL       0.19580607       0.02746101       0.07373025
9
Lattice="4.927474643524061 -0.46135460457738714 0.6009894714782643 0.24682942914468503 5.860964231061023 -0.7006462294864464 2.705520068933825 0.3721225116175252 6.5971229894909325" Properties=species:S:1:pos:R:3:initial_magmoms:R:1:castep_labels:S:1:forces:R:3 n_minim_iter=4 energy=-48.363471127025605 stress="-0.0023003911189948922 0.000854328514537535 -0.0014754199731170246 0.000854328514537535 -0.00022723490733725442 0.00010562527555375383 -0.0014754199731170246 0.00010562527555375383 0.0022823232132222165" free_energy=-48.363471127025605 pbc="T T T"
P        3.79381301       1.90911553       5.41990629       0.00000000 NULL      -0.09010424      -0.02071523       0.02366250
P        3.43620625       2.70284738       0.90509122       0.00000000 NULL      -0.02180491      -0.00130399      -0.08865021
P        1.45492388      -0.23393914       2.49803698       0.00000000 NULL       0.12867320       0.06590525      -0.05615267
P        1.62455831       4.83408699      -0.31181507       0.00000000 NULL       0.03271962      -0.13640744       0.24588661
P        3.26034510       4.19623333       2.61303754       0.00000000 NULL       0.03661384       0.02844783       0.05973148
P        2.32613625       2.60910985       3.88435061       0.00000000 NULL      -0.04736823       0.05785184      -0.09422228
P        0.73446945       2.93088566       0.49398086       0.00000000 NULL       0.03511520      -0.03932993      -0.05638326
P        3.24241699       1.11488072       2.47699230       0.00000000 NULL      -0.02831663       0.04651919      -0.03419086
P        2.62147431       6.17929828       5.36600306       0.00000000 NULL      -0.04552786      -0.00096752       0.00031869
9
Lattice="4.952681702153076 -0.46431850769948885 0.6049031274760315 0.24360373132170343 5.855030322117295 -0.7011781416079327 2.72606316976546 0.36673877912760067 6.579434056582067" Properties=species:S:1:pos:R:3:initial_magmoms:R:1:castep_labels:S:1:forces:R:3 n_minim_iter=5 energy=-48.36686051108272 stress="0.001545352516198578 -0.00033131175950159723 5.033026145008863e-05 -0.00033131175950159723 -0.0018341943943866806 -0.0005099337153191264 5.033026145008863e-05 -0.0005099337153191264 -6.886720580482302e-05" free_energy=-48.36686051108272 pbc="T T T"
P        3.81263561       1.89770676       5.40609580       0.00000000 NULL      -0.06695666       0.05189326      -0.03820825
P        3.45336040       2.69714131       0.90217619       0.00000000 NULL       0.06831232       0.02555242      -0.16513003
P        1.46927165      -0.23308855       2.49196284       0.00000000 NULL       0.15059659       0.05116417       0.01065154
P        1.63033799       4.82692263      -0.30644067       0.00000000 NULL      -0.04638953      -0.13076433       0.13444113
P        3.27831765       4.18556138       2.60840750       0.00000000 NULL       0.00786398       0.13780781       0.02313869
P        2.33795828       2.60547328       3.87018107       0.00000000 NULL      -0.02782380       0.01939367       0.00701046
P        0.73344461       2.92381664       0.49373461       0.00000000 NULL      -0.02385545       0.00871613      -0.02325601
P        3.25926590       1.11590722       2.46810294       0.00000000 NULL      -0.03352463      -0.06675399      -0.00500996
P        2.64049667       6.16973061       5.35059432       0.00000000 NULL      -0.02822283      -0.09700914       0.05636243
9
Lattice="4.945725386798324 -0.4648179782368107 0.6083350338344241 0.24363923216966127 5.884097683303348 -0.6913088203837605 2.7296919263000263 0.3778273409594562 6.563429231965419" Properties=species:S:1:pos:R:3:initial_magmoms:R:1:castep_labels:S:1:forces:R:3 n_minim_iter=6 energy=-48.37011403797818 stress="-0.00024621869681920236 -0.0005856702968288689 0.0003564439674050218 -0.0005856702968288689 0.0008513462313235027 0.00039271947430139095 0.0003564439674050218 0.00039271947430139095 -0.0009479998923966415" free_energy=-48.37011403797818 pbc="T T T"
P        3.80820179       1.91273341       5.39596481       0.00000000 NULL      -0.01206704       0.11903213      -0.00586706
P        3.45177021       2.71317275       0.90162246       0.00000000 NULL      -0.00100584       0.07736276      -0.13516558
P        1.47641467      -0.22735704       2.48600263       0.00000000 NULL       0.10074675       0.00269459       0.06951105
P        1.62856612       4.84785861      -0.29038622       0.00000000 NULL      -0.03959252      -0.14852107       0.04020058
P        3.27871453       4.21128507       2.61192379       0.00000000 NULL       0.02517243       0.10378999      -0.03655478
P        2.33695854       2.62687961       3.86192591       0.00000000 NULL      -0.04690803      -0.01791554       0.00272137
P        0.73033050       2.93699824       0.49789961       0.00000000 NULL       0.02828721       0.01399210      -0.01129903
P        3.25570545       1.12885842       2.46240741       0.00000000 NULL       0.00731579      -0.05481226       0.01579609
P        2.64668334       6.20806904       5.34790919       0.00000000 NULL      -0.06194875      -0.09562270       0.06065735
9
Lattice="4.951206228496643 -0.44948090616667985 0.6104344325173486 0.2621141401758251 5.872745943167581 -0.7015798984134031 2.7358420885421735 0.374512943404042 6.5686719890162735" Properties=species:S:1:pos:R:3:initial_magmoms:R:1:castep_labels:S:1:forces:R:3 n_minim_iter=7 energy=-48.373957989868984 stress="-0.0003649477106268493 0.0009267639935849382 0.0005151092300393639 0.0009267639935849382 -0.00011377144512979747 -0.0010989839363639373 0.0005151092300393639 -0.0010989839363639373 -0.000792055757895266" free_energy=-48.373957989868984 pbc="T T T"
P        3.81334967       1.91241836       5.39687601       0.00000000 NULL      -0.00011788      -0.01358994      -0.03739961
P        3.46725665       2.71950338       0.88717372       0.00000000 NULL      -0.00741692       0.04591195      -0.01484894
P        1.48985626      -0.22225848       2.49110172       0.00000000 NULL       0.01036368       0.03885578       0.07236317
P        1.64456965       4.83226688      -0.28784894       0.00000000 NULL      -0.06247833      -0.06409006      -0.04637284
P        3.29956959       4.21134050       2.60886669       0.00000000 NULL       0.02133291       0.02503968      -0.03010662
P        2.34428289       2.62423916       3.85751749       0.00000000 NULL      -0.01763786       0.02469675       0.01995973
P        0.73805121       2.92915045       0.49412267       0.00000000 NULL       0.01290615       0.02741559       0.05798111
P        3.26232994       1.13451502       2.45940672       0.00000000 NULL       0.06432742      -0.03965114      -0.06968618
P        2.67137259       6.18922554       5.34738958       0.00000000 NULL      -0.02127917      -0.04458861       0.04811017
9
Lattice="4.956872490608747 -0.4536820860610795 0.607788050106816 0.2563803222267757 5.866276067980013 -0.6951498976973948 2.7346332134393414 0.3794516203364385 6.576330998534058" Properties=species:S:1:pos:R:3:initial_magmoms:R:1:castep_labels:S:1:forces:R:3 n_minim_iter=8 energy=-48.3749815893495 stress="-0.0001701034781934957 -4.693384323313144e-05 0.0004580067098952524 -4.693384323313144e-05 -0.0005162353839311546 0.00021503673328546153 0.0004580067098952524 0.00021503673328546153 0.0005940418335459283" free_energy=-48.3749815893495 pbc="T T T"
P        3.81043399       1.91348873       5.40376119       0.00000000 NULL      -0.01128531       0.02565534      -0.01800422
P        3.46809656       2.71569385       0.88670533       0.00000000 NULL       0.01042923       0.06114634       0.02078174
P        1.49353129      -0.21906388       2.49456731       0.00000000 NULL      -0.01191300      -0.00928914       0.02195045
P        1.64038493       4.82240652      -0.28055350       0.00000000 NULL      -0.06626456       0.01949597      -0.04283798
P        3.29807064       4.20837677       2.61587602       0.00000000 NULL       0.03605934       0.01001179      -0.04980971
P        2.34031519       2.62508291       3.86379214       0.00000000 NULL       0.00781277      -0.02058633       0.00457570
P        0.73486588       2.92584057       0.49875631       0.00000000 NULL      -0.02253934      -0.03178774       0.03818361
P        3.26338531       1.13331272       2.46059889       0.00000000 NULL       0.06945738       0.01561835      -0.02626595
P        2.66443670       6.18600309       5.36263004       0.00000000 NULL      -0.01175650      -0.07026459       0.05142637
9
Lattice="4.959724402998733 -0.461314819540831 0.5980575828327466 0.24939971633923252 5.868778492432832 -0.6986344559642753 2.723845527057977 0.37124196751419525 6.560845134466851" Properties=species:S:1:pos:R:3:initial_magmoms:R:1:castep_labels:S:1:forces:R:3 n_minim_iter=9 energy=-48.37574208013673 stress="-0.00021289938016408506 -0.0003903638279687398 -0.0004505269259396885 -0.0003903638279687398 -0.00019368250141535515 -0.00036137284120134897 -0.0004505269259396885 -0.00036137284120134897 -0.00016770252107788797" free_energy=-48.37574208013673 pbc="T T T"
P        3.79861578       1.90584644       5.38640583       0.00000000 NULL      -0.01594475       0.00965121       0.01423318
P        3.46550971       2.71364325       0.87534805       0.00000000 NULL       0.01313449       0.04037912       0.01431365
P        1.49238284      -0.22205710       2.48950577       0.00000000 NULL      -0.01086395      -0.03711716       0.01668684
P        1.63287322       4.82021316      -0.28570464       0.00000000 NULL      -0.05568850       0.01982651      -0.05721248
P        3.29098356       4.20449903       2.60171770       0.00000000 NULL       0.03023081       0.00455359      -0.01047895
P        2.33016312       2.62043447       3.85099778       0.00000000 NULL       0.02303968      -0.01840888      -0.04742976
P        0.72934199       2.92453620       0.49589406       0.00000000 NULL      -0.03329325      -0.02001470       0.05244846
P        3.26099814       1.12801502       2.44827322       0.00000000 NULL       0.07129544       0.05224719      -0.00555679
P        2.64726254       6.17862021       5.34748312       0.00000000 NULL      -0.02190998      -0.05111687       0.02299584
9
Lattice="4.965985347880892 -0.46636626866291636 0.605473756674764 0.24197805509259554 5.869476513010718 -0.6920477294434954 2.7376675642020483 0.37389745618470277 6.554883875715608" Properties=species:S:1:pos:R:3:initial_magmoms:R:1:castep_labels:S:1:forces:R:3 n_minim_iter=10 energy=-48.37765400150035 stress="-0.0006676555910182197 -9.62726738498577e-05 0.00012526378339882609 -9.62726738498577e-05 -0.00029069321086615425 -7.923182483511434e-05 0.00012526378339882609 -7.923182483511434e-05 8.711237492842551e-05" free_energy=-48.37765400150035 pbc="T T T"
P        3.80406668       1.90903495       5.38530685       0.00000000 NULL      -0.03533000      -0.01237314       0.02863032
P        3.47003222       2.72005901       0.87879765       0.00000000 NULL       0.00682344       0.02445011      -0.01829946
P        1.50355108      -0.22145531       2.49240959       0.00000000 NULL       0.01619350      -0.05361519      -0.02407531
P        1.61929166       4.81530041      -0.27984206       0.00000000 NULL       0.07556355       0.03149754       0.01676575
P        3.30008661       4.20633878       2.60323749       0.00000000 NULL      -0.00965085       0.03845533      -0.00050038
P        2.33566195       2.62141538       3.84569695       0.00000000 NULL       0.03993874      -0.02986959      -0.00916776
P        0.72318113       2.92074584       0.50536673       0.00000000 NULL      -0.03968849      -0.01788185       0.04858328
P        3.27546149       1.13138391       2.44626814       0.00000000 NULL       0.01487827      -0.00896019      -0.00930580
P        2.65071911       6.17270623       5.35582151       0.00000000 NULL      -0.06872816       0.02829697      -0.03263065
9
Lattice="4.973424704281045 -0.47661743357271386 0.6017724635686336 0.22944356124995655 5.865922798622592 -0.6847989503269566 2.737440467851257 0.37465867262810876 6.543897046064244" Properties=species:S:1:pos:R:3:initial_magmoms:R:1:castep_labels:S:1:forces:R:3 n_minim_iter=11 energy=-48.37936702387335 stress="-0.0009474160419432405 -0.00020715134617532878 7.172822247138252e-05 -0.00020715134617532878 -0.0003703782265115645 -5.086796668439273e-05 7.172822247138252e-05 -5.086796668439273e-05 0.00020954401628085103" free_energy=-48.37936702387335 pbc="T T T"
P        3.79277949       1.90655115       5.38071434       0.00000000 NULL      -0.00929979       0.01143118       0.08599188
P        3.47244240       2.72302089       0.87322482       0.00000000 NULL      -0.01991268      -0.01634218      -0.01878144
P        1.51233963      -0.22765455       2.48930647       0.00000000 NULL      -0.00035857      -0.01193014      -0.05407118
P        1.61023281       4.80867665      -0.27501687       0.00000000 NULL      -0.01892887       0.02296545      -0.00637495
P        3.29770190       4.20632594       2.59891769       0.00000000 NULL       0.03003142      -0.01042847       0.03197594
P        2.33560982       2.61554572       3.83583586       0.00000000 NULL       0.00291802      -0.01164226      -0.02692866
P        0.70820563       2.91326958       0.51846606       0.00000000 NULL       0.01621224       0.02155665      -0.00578114
P        3.28438419       1.12821178       2.43765842       0.00000000 NULL      -0.01240816       0.00741516      -0.00183237
P        2.62895530       6.16565966       5.35582704       0.00000000 NULL       0.01174639      -0.01302538      -0.00419807
9
Lattice="4.985748240285468 -0.48942462866521086 0.5856031155660499 0.21587473988036626 5.8656425236542695 -0.6758549996292903 2.7239268462790935 0.3771130099741297 6.528290305082551" Properties=species:S:1:pos:R:3:initial_magmoms:R:1:castep_labels:S:1:forces:R:3 n_minim_iter=12 energy=-48.38104760237286 stress="-0.001117330256928589 -0.0003157561474401359 -1.9665228938288366e-05 -0.0003157561474401359 -0.00043155628031364365 3.164944544436466e-05 -1.9665228938288366e-05 3.164944544436466e-05 0.00034453868719170054" free_energy=-48.38104760237286 pbc="T T T"
P        3.77020280       1.90794158       5.38326730       0.00000000 NULL       0.01018520       0.02420926       0.01690042
P        3.47417462       2.72318006       0.85713214       0.00000000 NULL      -0.02110715      -0.03890185       0.04189548
P        1.51794789      -0.23372624       2.47523633       0.00000000 NULL       0.01302294      -0.00646702      -0.02628317
P        1.59529503       4.80646153      -0.27510960       0.00000000 NULL       0.03903264      -0.05243982       0.01194198
P        3.29494980       4.20578405       2.59417096       0.00000000 NULL       0.03925015      -0.04483847      -0.01183571
P        2.32797330       2.61068661       3.81888144       0.00000000 NULL      -0.01579177      -0.02203969      -0.00911324
P        0.69383360       2.91286520       0.52882252       0.00000000 NULL      -0.00753418       0.05886702       0.00935566
P        3.28642766       1.12378019       2.42282399       0.00000000 NULL      -0.00205436       0.07725888       0.00354568
P        2.59838668       6.16182914       5.35336345       0.00000000 NULL      -0.05500345       0.00435169      -0.03640711
9
Lattice="4.993321094219477 -0.5023891055916958 0.5656079943472785 0.20333347590048287 5.87389638577507 -0.668289648092318 2.7031064947581442 0.3790259147725217 6.509066127307855" Properties=species:S:1:pos:R:3:initial_magmoms:R:1:castep_labels:S:1:forces:R:3 n_minim_iter=13 energy=-48.382703623256795 stress="-0.0009419517594870218 -0.00031738696146283357 -0.00012918437822863403 -0.00031738696146283357 -0.00017034069152301366 7.996709846984617e-05 -0.00012918437822863403 7.996709846984617e-05 0.0005411789219959283" free_energy=-48.382703623256795 pbc="T T T"
P        3.74118980       1.91398001       5.38129333       0.00000000 NULL      -0.01120592       0.01063937       0.02338214
P        3.47249792       2.72403492       0.84233973       0.00000000 NULL      -0.05659669      -0.02973132       0.01183542
P        1.52299839      -0.23999241       2.45886081       0.00000000 NULL       0.05734907      -0.03699961      -0.00734252
P        1.58232962       4.80407365      -0.27795775       0.00000000 NULL       0.00924644      -0.01000747      -0.02381153
P        3.29165400       4.20607545       2.58281358       0.00000000 NULL      -0.00136217      -0.01491843       0.00049077
P        2.31436394       2.60711045       3.79877665       0.00000000 NULL      -0.03726898       0.04225486       0.00457555
P        0.67640163       2.92383889       0.53944428       0.00000000 NULL       0.02810361      -0.01269235      -0.00772888
P        3.28328848       1.12744403       2.40506248       0.00000000 NULL       0.00576175       0.03144688       0.04591929
P        2.55704365       6.16668647       5.34313930       0.00000000 NULL       0.00597289       0.02000808      -0.04732023
9
Lattice="5.005421388074156 -0.5247961075264886 0.5285676845123702 0.1828153160408134 5.900771940231364 -0.6529668105088751 2.6656274185708098 0.3843576963865854 6.458311969946158" Properties=species:S:1:pos:R:3:initial_magmoms:R:1:castep_labels:S:1:forces:R:3 n_minim_iter=14 energy=-48.38504443024706 stress="-0.00028961962152529143 -0.0001211328307087236 -0.00048771834871185556 -0.0001211328307087236 0.0004269587612919116 0.0003094453400315846 -0.00048771834871185556 0.0003094453400315846 0.0004397377459478966" free_energy=-48.38504443024706 pbc="T T T"
P        3.68501421       1.93036049       5.36528222       0.00000000 NULL       0.01776695       0.02767643      -0.04459846
P        3.45940481       2.72946689       0.81482651       0.00000000 NULL      -0.00722040      -0.05420097      -0.02381044
P        1.54801849      -0.25966196       2.42769865       0.00000000 NULL      -0.01669412       0.00851513      -0.03611481
P        1.55921711       4.80937232      -0.29423627       0.00000000 NULL       0.01238227      -0.02063567       0.00635605
P        3.28219701       4.21608918       2.55414454       0.00000000 NULL       0.05922613      -0.06336681       0.04003507
P        2.28184321       2.62045524       3.75854808       0.00000000 NULL      -0.05361950       0.02345510      -0.00906922
P        0.65056301       2.94381200       0.55836223       0.00000000 NULL      -0.00619180       0.02418844      -0.03164384
P        3.27981097       1.13686274       2.37804880       0.00000000 NULL      -0.00143955       0.06156834       0.10566856
P        2.48994701       6.19482687       5.30218381       0.00000000 NULL      -0.00420998      -0.00720000      -0.00682291
9
Lattice="5.009957808225632 -0.5336376998887783 0.5159078874558972 0.1737379069210645 5.903861348111091 -0.6467513625670089 2.652989693614684 0.38579242572414396 6.44026947014664" Properties=species:S:1:pos:R:3:initial_magmoms:R:1:castep_labels:S:1:forces:R:3 n_minim_iter=15 energy=-48.386005572289164 stress="2.0213019899164244e-05 -0.00022995175718291781 -0.0006216302949049813 -0.00022995175718291781 0.0005431701213282292 0.0003898886918010715 -0.0006216302949049813 0.0003898886918010715 0.0003507269471360211" free_energy=-48.386005572289164 pbc="T T T"
P        3.66742475       1.93378970       5.35282480       0.00000000 NULL       0.01119625       0.03687702       0.00794838
P        3.45538033       2.72438300       0.80160716       0.00000000 NULL      -0.00267933      -0.05776214       0.04351030
P        1.55249774      -0.26564905       2.41468343       0.00000000 NULL       0.01946210       0.00567475       0.00689565
P        1.55217793       4.80805216      -0.29938100       0.00000000 NULL       0.00632912      -0.02534887       0.01033098
P        3.28080523       4.21209159       2.54823118       0.00000000 NULL       0.02105967      -0.03523846      -0.01529097
P        2.26696440       2.62396232       3.74704458       0.00000000 NULL      -0.06418682       0.01554484      -0.02742517
P        0.63911921       2.94809743       0.56413825       0.00000000 NULL       0.02233000      -0.00197826      -0.07345293
P        3.27865595       1.13824629       2.37649558       0.00000000 NULL      -0.02738772       0.06917959       0.05511227
P        2.46511320       6.19775023       5.28948492       0.00000000 NULL       0.01387672      -0.00694846      -0.00762851
9
Lattice="5.010763090888553 -0.5403580357406317 0.5094209643695041 0.16594251125066112 5.905769618090047 -0.6395748746568127 2.645056864420665 0.39030204471805596 6.437369566359276" Properties=species:S:1:pos:R:3:initial_magmoms:R:1:castep_labels:S:1:forces:R:3 n_minim_iter=16 energy=-48.38722360106844 stress="0.0002500688735113861 -6.915218406903427e-05 -0.0004890508470805033 -6.915218406903427e-05 0.0005823647634267953 0.0004477483997074758 -0.0004890508470805033 0.0004477483997074758 0.00023284676743527043" free_energy=-48.38722360106844 pbc="T T T"
P        3.65618457       1.94097766       5.35369416       0.00000000 NULL      -0.01955112       0.00528914      -0.05938961
P        3.45312705       2.71320791       0.80211682       0.00000000 NULL      -0.04357769       0.00571878       0.02559672
P        1.55475916      -0.26846705       2.41215103       0.00000000 NULL       0.02032855      -0.03558761      -0.01664001
P        1.55119028       4.81090376      -0.30008366       0.00000000 NULL      -0.02748717      -0.04105036       0.02798580
P        3.27822851       4.21158776       2.54695534       0.00000000 NULL      -0.02419505      -0.06137297       0.01017475
P        2.24792848       2.62963076       3.74727663       0.00000000 NULL       0.01826720       0.02037262      -0.04540703
P        0.63320882       2.94835084       0.56166924       0.00000000 NULL       0.06146751       0.04907846      -0.01970025
P        3.27232295       1.14249587       2.38435292       0.00000000 NULL      -0.03173316       0.06883267       0.07730890
P        2.44843897       6.20243996       5.29300879       0.00000000 NULL       0.04648093      -0.01128073       0.00007073
9
Lattice="5.00939321761498 -0.5517068563108951 0.5004498643887757 0.15384351232433963 5.913711782928471 -0.6359292739529891 2.6303737096116464 0.39099863770591564 6.446893290480444" Properties=species:S:1:pos:R:3:initial_magmoms:R:1:castep_labels:S:1:forces:R:3 n_minim_iter=17 energy=-48.389290004307924 stress="0.0005376498071540948 0.0002020382789315269 -0.00034808207996759444 0.0002020382789315269 0.0006307830266936812 0.0005367541573932131 -0.00034808207996759444 0.0005367541573932131 -1.3146359521435801e-05" free_energy=-48.389290004307924 pbc="T T T"
P        3.63456138       1.94511162       5.35377547       0.00000000 NULL      -0.02505066       0.02861771      -0.01878856
P        3.44235188       2.69979405       0.80575311       0.00000000 NULL       0.01831176       0.03081959       0.01969441
P        1.55522317      -0.28101718       2.41264576       0.00000000 NULL       0.00003109      -0.00633187      -0.00166677
P        1.54878331       4.81904446      -0.30183195       0.00000000 NULL      -0.01415471      -0.02928290      -0.00127187
P        3.26383689       4.20809817       2.54658331       0.00000000 NULL       0.01570570      -0.04027314       0.02368878
P        2.22327398       2.63713494       3.75034091       0.00000000 NULL      -0.02519508       0.02011458       0.03258496
P        0.63352302       2.95640016       0.55425411       0.00000000 NULL      -0.01452862      -0.01299633      -0.03372059
P        3.25469802       1.15108776       2.40624517       0.00000000 NULL       0.01178696       0.00050300      -0.00311045
P        2.42681961       6.20756838       5.30543190       0.00000000 NULL       0.03309357       0.00882936      -0.01740991
9
Lattice="5.009140692518697 -0.5516450995454696 0.5035781722701236 0.1536239346515328 5.914011116377713 -0.6368265955536289 2.633161514405209 0.39090318945238656 6.456736636918592" Properties=species:S:1:pos:R:3:initial_magmoms:R:1:castep_labels:S:1:forces:R:3 n_minim_iter=18 energy=-48.38991351842756 stress="0.00046718776761289375 0.00030580536944065616 -0.00015953382814625045 0.00030580536944065616 0.00038054822170622107 0.00042679258014841374 -0.00015953382814625045 0.00042679258014841374 -0.0001468374881914823" free_energy=-48.38991351842756 pbc="T T T"
P        3.63348808       1.94832558       5.35814564       0.00000000 NULL       0.01587759       0.00194771      -0.02437704
P        3.44326979       2.69986312       0.81265913       0.00000000 NULL       0.00540727       0.02330321       0.01713211
P        1.55499681      -0.28508465       2.41535410       0.00000000 NULL       0.02528722       0.02659945       0.01388646