24
Lattice="5.243469999999999 0.0 0.0 0.0 9.13727 0.0 0.0 0.0 11.20687" Properties=species:S:1:pos:R:3:initial_magmoms:R:1:castep_labels:S:1 n_minim_iter=1 pbc="T T T"
P        3.48237300       6.74927555       1.63668604       0.00000000 NULL
P        0.86063800       6.95662945       9.57018396       0.00000000 NULL
P        4.38283200       2.38799445       7.24012104       0.00000000 NULL
P        1.76109700       2.18064055       3.96674896       0.00000000 NULL
P        3.49313207       7.92739037       6.23996056       0.00000000 NULL
P        0.87139707       5.77851463       4.96690944       0.00000000 NULL
P        4.37207293       1.20987963       0.63652556       0.00000000 NULL
P        1.75033793       3.35875537      10.57034444       0.00000000 NULL
P        4.46955008       6.68486237      10.69148958       0.00000000 NULL
P        1.84781508       7.02104263       0.51538042       0.00000000 NULL
P        3.39565492       2.45240763       5.08805458       0.00000000 NULL
P        0.77391992       2.11622737       6.11881542       0.00000000 NULL
P        2.13829336       8.47681990       1.98995572       0.00000000 NULL
P        4.76002836       5.22908510       9.21691428       0.00000000 NULL
P        0.48344164       0.66045010       7.59339072       0.00000000 NULL
P        3.10517664       3.90818490       3.61347928       0.00000000 NULL
P        4.91167895       1.71967716       3.97763083       0.00000000 NULL
P        2.28994395       2.84895784       7.22923917       0.00000000 NULL
P        2.95352605       7.41759284       9.58106583       0.00000000 NULL
P        0.33179105       6.28831216       1.62580417       0.00000000 NULL
P        4.72576438       8.37400460       0.56049703       0.00000000 NULL
P        2.10402938       5.33190040      10.64637297       0.00000000 NULL
P        3.13944062       0.76326540       6.16393203       0.00000000 NULL
P        0.51770562       3.80536960       5.04293797       0.00000000 NULL
24
Lattice="5.278508878027681 0.0 0.0 0.0 9.17460217286725 0.0 0.0 0.0 11.261848506445645" Properties=species:S:1:pos:R:3:initial_magmoms:R:1:castep_labels:S:1 n_minim_iter=2 pbc="T T T"
P        3.50573660       6.77679539       1.64507713       0.00000000 NULL
P        0.86648216       6.98510787       9.61677138       0.00000000 NULL
P        4.41202672       2.39780678       7.27600138       0.00000000 NULL
P        1.77277228       2.18949430       3.98584712       0.00000000 NULL
P        3.51651451       7.95969354       6.27059521       0.00000000 NULL
P        0.87726007       5.80220972       4.99125330       0.00000000 NULL
P        4.40124881       1.21490863       0.63967095       0.00000000 NULL
P        1.76199437       3.37239246      10.62217755       0.00000000 NULL
P        4.49930112       6.71192083      10.74400916       0.00000000 NULL
P        1.86004668       7.04998243       0.51783934       0.00000000 NULL
P        3.41846220       2.46268135       5.11308491       0.00000000 NULL
P        0.77920776       2.12461974       6.14876360       0.00000000 NULL
P        2.15257029       8.51161014       1.99989294       0.00000000 NULL
P        4.79182473       5.25029312       9.26195557       0.00000000 NULL
P        0.48668414       0.66299203       7.63081719       0.00000000 NULL
P        3.12593858       3.92430906       3.63103132       0.00000000 NULL
P        4.94446447       1.72649382       3.99683393       0.00000000 NULL
P        2.30521004       2.86080726       7.26501457       0.00000000 NULL
P        2.97329884       7.44810835       9.62775819       0.00000000 NULL
P        0.33404440       6.31379491       1.63409032       0.00000000 NULL
P        4.75739673       8.40845676       0.56342797       0.00000000 NULL
P        2.11814229       5.35344650      10.69842053       0.00000000 NULL
P        3.16036659       0.76614541       6.19435223       0.00000000 NULL
P        0.52111215       3.82115568       5.06749628       0.00000000 NULL
24
Lattice="5.62029109834165 0.0 0.0 0.0 9.513969227984196 0.0 0.0 0.0 11.802777193456281" Properties=species:S:1:pos:R:3:initial_magmoms:R:1:castep_labels:S:1 n_minim_iter=3 pbc="T T T"
P        3.73369547       7.02704979       1.72771316       0.00000000 NULL
P        0.92354992       7.24390405      10.07506403       0.00000000 NULL
P        4.69674118       2.48691943       7.62910176       0.00000000 NULL
P        1.88659563       2.27006518       4.17367544       0.00000000 NULL
P        3.74460829       8.25344345       6.57193040       0.00000000 NULL
P        0.93446274       6.01751039       5.23084679       0.00000000 NULL
P        4.68582836       1.26052577       0.67054181       0.00000000 NULL
P        1.87568281       3.49645884      11.13223539       0.00000000 NULL
P        4.78941062       6.95763269      11.26063209       0.00000000 NULL
P        1.97926507       7.31332115       0.54214510       0.00000000 NULL
P        3.64102603       2.55633654       5.35924350       0.00000000 NULL
P        0.83088048       2.20064807       6.44353370       0.00000000 NULL
P        2.29183298       8.82784545       2.09766923       0.00000000 NULL
P        5.10197853       5.44310839       9.70510796       0.00000000 NULL
P        0.51831257       0.68612377       7.99905783       0.00000000 NULL
P        3.32845812       4.07086084       3.80371937       0.00000000 NULL
P        5.26423372       1.78825959       4.18569885       0.00000000 NULL
P        2.45408817       2.96872502       7.61707834       0.00000000 NULL
P        3.16620293       7.72570964      10.08708745       0.00000000 NULL
P        0.35605738       6.54524420       1.71568974       0.00000000 NULL
P        5.06597997       8.72199878       0.59240341       0.00000000 NULL
P        2.25583442       5.54895506      11.21037378       0.00000000 NULL
P        3.36445668       0.79197044       6.49379201       0.00000000 NULL
P        0.55431113       3.96501417       5.30898519       0.00000000 NULL
24
Lattice="5.695638524031279 0.0 0.0 0.0 9.418833192455569 0.0 0.0 0.0 11.984182316145093" Properties=species:S:1:pos:R:3:initial_magmoms:R:1:castep_labels:S:1 n_minim_iter=4 pbc="T T T"
P        3.78421660       6.95784747       1.75564066       0.00000000 NULL
P        0.93639734       7.17040232      10.22854166       0.00000000 NULL
P        4.75924118       2.46098572       7.74773182       0.00000000 NULL
P        1.91142192       2.24843087       4.23645050       0.00000000 NULL
P        3.79473224       8.17196582       6.67197397       0.00000000 NULL
P        0.94691298       5.95628397       5.31220835       0.00000000 NULL
P        4.74872554       1.24686738       0.67988281       0.00000000 NULL
P        1.90090628       3.46254922      11.30429951       0.00000000 NULL
P        4.85235747       6.88649830      11.43290797       0.00000000 NULL
P        2.00453821       7.24175149       0.55127434       0.00000000 NULL
P        3.69110032       2.53233490       5.44081681       0.00000000 NULL
P        0.84328106       2.17708170       6.54336550       0.00000000 NULL
P        2.32292143       8.73900987       2.13016410       0.00000000 NULL
P        5.17074069       5.38923992       9.85401822       0.00000000 NULL
P        0.52489783       0.67982333       8.12225526       0.00000000 NULL
P        3.37271709       4.02959327       3.86192706       0.00000000 NULL
P        5.33422881       1.76946743       4.24863581       0.00000000 NULL
P        2.48640955       2.93994917       7.73554650       0.00000000 NULL
P        3.20922898       7.64936577      10.24072697       0.00000000 NULL
P        0.36140971       6.47888402       1.74345534       0.00000000 NULL
P        5.13410056       8.63722034       0.60357572       0.00000000 NULL
P        2.28628129       5.49102945      11.38060660       0.00000000 NULL
P        3.40935723       0.78161285       6.59566688       0.00000000 NULL
P        0.56153797       3.92780375       5.38851544       0.00000000 NULL
24
Lattice="5.762173833726947 0.0 0.0 0.0 9.214483077134457 0.0 0.0 0.0 12.290354121637995" Properties=species:S:1:pos:R:3:initial_magmoms:R:1:castep_labels:S:1 n_minim_iter=5 pbc="T T T"
P        3.82893606       6.80946586       1.80232863       0.00000000 NULL
P        0.94784914       7.01225875      10.48802549       0.00000000 NULL
P        4.81432469       2.40501722       7.94750569       0.00000000 NULL
P        1.93323778       2.20222432       4.34284843       0.00000000 NULL
P        3.83890279       7.99598845       6.84012091       0.00000000 NULL
P        0.95781587       5.82573617       5.45023321       0.00000000 NULL
P        4.80435796       1.21849463       0.69494385       0.00000000 NULL
P        1.92327105       3.38874691      11.59541027       0.00000000 NULL
P        4.90629172       6.73411363      11.72270331       0.00000000 NULL
P        2.02520480       7.08761099       0.56765081       0.00000000 NULL
P        3.73696903       2.48036945       5.57752625       0.00000000 NULL
P        0.85588212       2.12687209       6.71282787       0.00000000 NULL
P        2.35100242       8.54803811       2.18491968       0.00000000 NULL
P        5.23208933       5.27368651      10.10543444       0.00000000 NULL
P        0.53008450       0.66644497       8.33009674       0.00000000 NULL
P        3.41117142       3.94079657       3.96025738       0.00000000 NULL
P        5.39500923       1.72981461       4.35480464       0.00000000 NULL
P        2.51392231       2.87742693       7.93554948       0.00000000 NULL
P        3.24825152       7.48466847      10.49998170       0.00000000 NULL
P        0.36716460       6.33705615       1.79037242       0.00000000 NULL
P        5.19469850       8.45355669       0.62373979       0.00000000 NULL
P        2.31361159       5.36816792      11.66661433       0.00000000 NULL
P        3.44856225       0.76092639       6.76891685       0.00000000 NULL
P        0.56747533       3.84631515       5.52143727       0.00000000 NULL
24
Lattice="5.765746968117364 0.0 0.0 0.0 9.089454935986318 0.0 0.0 0.0 12.703093504754671" Properties=species:S:1:pos:R:3:initial_magmoms:R:1:castep_labels:S:1 n_minim_iter=6 pbc="T T T"
P        3.83110531       6.72123522       1.86412760       0.00000000 NULL
P        0.94823182       6.91294718      10.83896590       0.00000000 NULL
P        4.81751515       2.36821971       8.21567435       0.00000000 NULL
P        1.93464166       2.17650775       4.48741915       0.00000000 NULL
P        3.84156334       7.88617083       7.06588044       0.00000000 NULL
P        0.95868986       5.74801158       5.63721307       0.00000000 NULL
P        4.80705711       1.20328411       0.71433368       0.00000000 NULL
P        1.92418363       3.34144336      11.98875982       0.00000000 NULL
P        4.90511516       6.63857202      12.11175560       0.00000000 NULL
P        2.02224168       6.99561039       0.59133790       0.00000000 NULL
P        3.74350529       2.45088292       5.76020885       0.00000000 NULL
P        0.86063181       2.09384455       6.94288465       0.00000000 NULL
P        2.35408034       8.42986964       2.25877855       0.00000000 NULL
P        5.23695382       5.20431276      10.44431495       0.00000000 NULL
P        0.52879314       0.65958529       8.61032531       0.00000000 NULL
P        3.41166663       3.88514218       4.09276820       0.00000000 NULL
P        5.39512257       1.70537363       4.49813032       0.00000000 NULL
P        2.51224908       2.83935383       8.20496318       0.00000000 NULL
P        3.25349789       7.38408130      10.84967707       0.00000000 NULL
P        0.37062440       6.25010110       1.85341643       0.00000000 NULL
P        5.19951851       8.34081294       0.65281518       0.00000000 NULL
P        2.31664503       5.29336946      12.05027832       0.00000000 NULL
P        3.44910194       0.74864200       7.00436194       0.00000000 NULL
P        0.56622845       3.79608547       5.69873157       0.00000000 NULL
24
Lattice="5.686555592892636 0.0 0.0 0.0 9.062917402389683 0.0 0.0 0.0 12.982111756670111" Properties=species:S:1:pos:R:3:initial_magmoms:R:1:castep_labels:S:1 n_minim_iter=7 pbc="T T T"
P        3.77758134       6.70567585       1.90533867       0.00000000 NULL
P        0.93430355       6.88870025      11.07677309       0.00000000 NULL
P        4.75225205       2.35724155       8.39639455       0.00000000 NULL
P        1.90897425       2.17421715       4.58571721       0.00000000 NULL
P        3.78950928       7.85961939       7.21712756       0.00000000 NULL
P        0.94623148       5.73475672       5.76498420       0.00000000 NULL
P        4.74032411       1.20329802       0.72607168       0.00000000 NULL
P        1.89704631       3.32816069      12.25604008       0.00000000 NULL
P        4.83390972       6.61576937      12.37286478       0.00000000 NULL
P        1.99063192       6.97860674       0.60924698       0.00000000 NULL
P        3.69592367       2.44714804       5.88180890       0.00000000 NULL
P        0.85264587       2.08431067       7.10030285       0.00000000 NULL
P        2.32322434       8.40281859       2.30816401       0.00000000 NULL
P        5.16650214       5.19155751      10.67394774       0.00000000 NULL
P        0.52005346       0.66009881       8.79921989       0.00000000 NULL
P        3.36333125       3.87135989       4.18289186       0.00000000 NULL
P        5.31707777       1.70011943       4.59466689       0.00000000 NULL
P        2.47379997       2.83133927       8.38744487       0.00000000 NULL
P        3.21275562       7.36279797      11.08572277       0.00000000 NULL
P        0.36947782       6.23157813       1.89638899       0.00000000 NULL
P        5.12990749       8.31534495       0.67524263       0.00000000 NULL
P        2.28662969       5.27903116      12.30686912       0.00000000 NULL
P        3.39992590       0.74757246       7.16629851       0.00000000 NULL
P        0.55664810       3.78388624       5.81581325       0.00000000 NULL
24
Lattice="5.616149089185367 0.0 0.0 0.0 9.091109728828892 0.0 0.0 0.0 13.262210549146939" Properties=species:S:1:pos:R:3:initial_magmoms:R:1:castep_labels:S:1 n_minim_iter=8 pbc="T T T"
P        3.73003737       6.73027923       1.94669110       0.00000000 NULL
P        0.92196283       6.90638537      11.31551945       0.00000000 NULL
P        4.69418626       2.36083050       8.57779637       0.00000000 NULL
P        1.88611172       2.18472436       4.68441418       0.00000000 NULL
P        3.74329555       7.88029338       7.36913581       0.00000000 NULL
P        0.93522101       5.75637122       5.89307474       0.00000000 NULL
P        4.68092808       1.21081635       0.73803053       0.00000000 NULL
P        1.87285354       3.33473851      12.52418002       0.00000000 NULL
P        4.77055065       6.63343939      12.63520493       0.00000000 NULL
P        1.96247610       7.00322521       0.62700562       0.00000000 NULL
P        3.65367298       2.45767034       6.00409965       0.00000000 NULL
P        0.84559844       2.08788452       7.25811090       0.00000000 NULL
P        2.29534053       8.42647689       2.35706254       0.00000000 NULL
P        5.10341508       5.21018770      10.90514801       0.00000000 NULL
P        0.51273401       0.66463284       8.98816781       0.00000000 NULL
P        3.32080856       3.88092203       4.27404274       0.00000000 NULL
P        5.24706618       1.70515872       4.69143310       0.00000000 NULL
P        2.43899164       2.84039614       8.57077745       0.00000000 NULL
P        3.17715745       7.38595101      11.32253837       0.00000000 NULL
P        0.36908291       6.25071359       1.93967218       0.00000000 NULL
P        5.06795245       8.33949147       0.69752328       0.00000000 NULL
P        2.25987790       5.29717313      12.56468727       0.00000000 NULL
P        3.35627119       0.75161826       7.32862856       0.00000000 NULL
P        0.54819664       3.79393660       5.93358199       0.00000000 NULL
24
Lattice="5.577925378946304 0.0 0.0 0.0 9.07846184087547 0.0 0.0 0.0 13.356671003119041" Properties=species:S:1:pos:R:3:initial_magmoms:R:1:castep_labels:S:1 n_minim_iter=9 pbc="T T T"
P        3.70437718       6.72229785       1.96071679       0.00000000 NULL
P        0.91541449       6.89539491      11.39595422       0.00000000 NULL
P        4.66251088       2.35616399       8.63905229       0.00000000 NULL
P        1.87354819       2.18306693       4.71761871       0.00000000 NULL
P        3.71799232       7.86814890       7.42028546       0.00000000 NULL
P        0.92902963       5.74954386       5.93638554       0.00000000 NULL
P        4.64889575       1.21031294       0.74194996       0.00000000 NULL
P        1.85993306       3.32891798      12.61472104       0.00000000 NULL
P        4.73681182       6.62328051      12.72358880       0.00000000 NULL
P        1.94784913       6.99441225       0.63308221       0.00000000 NULL
P        3.63007625       2.45518133       6.04525329       0.00000000 NULL
P        0.84111356       2.08404959       7.31141771       0.00000000 NULL
P        2.27991943       8.41372964       2.37312809       0.00000000 NULL
P        5.06888212       5.20396312      10.98354291       0.00000000 NULL
P        0.50904326       0.66473220       9.05146359       0.00000000 NULL
P        3.29800595       3.87449872       4.30520741       0.00000000 NULL
P        5.20969574       1.70272507       4.72393445       0.00000000 NULL
P        2.42073305       2.83650585       8.63273655       0.00000000 NULL
P        3.15719233       7.37573677      11.40226995       0.00000000 NULL
P        0.36822964       6.24195599       1.95440105       0.00000000 NULL
P        5.03390752       8.32728162       0.70526100       0.00000000 NULL
P        2.24494483       5.29041114      12.65141000       0.00000000 NULL
P        3.33298055       0.75118022       7.38359650       0.00000000 NULL
P        0.54401786       3.78805070       5.97307450       0.00000000 NULL
24
Lattice="5.56055353920898 0.0 0.0 0.0 9.082120199904681 0.0 0.0 0.0 13.424152774905576" Properties=species:S:1:pos:R:3:initial_magmoms:R:1:castep_labels:S:1 n_minim_iter=10 pbc="T T T"
P        3.69269352       6.72578868       1.97076500       0.00000000 NULL
P        0.91241675       6.89739162      11.45338777       0.00000000 NULL
P        4.64813679       2.35633152       8.68284139       0.00000000 NULL
P        1.86786002       2.18472858       4.74131138       0.00000000 NULL
P        3.70651970       7.87058389       7.45700700       0.00000000 NULL
P        0.92624293       5.75259641       5.96714577       0.00000000 NULL
P        4.63431061       1.21153631       0.74493062       0.00000000 NULL
P        1.85403384       3.32952379      12.67922216       0.00000000 NULL
P        4.72132720       6.62542259      12.78693951       0.00000000 NULL
P        1.94105043       6.99775771       0.63721326       0.00000000 NULL
P        3.61950311       2.45669761       6.07486313       0.00000000 NULL
P        0.83922634       2.08436249       7.34928965       0.00000000 NULL
P        2.27288289       8.41653562       2.38465867       0.00000000 NULL
P        5.05315966       5.20664468      11.03949411       0.00000000 NULL
P        0.50739388       0.66558458       9.09673505       0.00000000 NULL
P        3.28767065       3.87547552       4.32741772       0.00000000 NULL
P        5.19246582       1.70335892       4.74721657       0.00000000 NULL
P        2.41218905       2.83770117       8.67693620       0.00000000 NULL
P        3.14836448       7.37876127      11.45929296       0.00000000 NULL
P        0.36808772       6.24441902       1.96485981       0.00000000 NULL
P        5.01848215       8.33025638       0.71044973       0.00000000 NULL
P        2.23820538       5.29292392      12.71370305       0.00000000 NULL
P        3.32234816       0.75186382       7.42252612       0.00000000 NULL
P        0.54207139       3.78919628       6.00162666       0.00000000 NULL
24
Lattice="5.327772040337537 0.0 0.0 0.0 9.117008865548977 0.0 0.0 0.0 14.362632210195178" Properties=species:S:1:pos:R:3:initial_magmoms:R:1:castep_labels:S:1 n_minim_iter=11 pbc="T T T"
P        3.53623155       6.76188864       2.11085137       0.00000000 NULL
P        0.87234553       6.91362466      12.25178084       0.00000000 NULL
P        4.45542651       2.35512022       9.29216747       0.00000000 NULL
P        1.79154049       2.20338421       5.07046474       0.00000000 NULL
P        3.55260175       7.89132492       7.96760166       0.00000000 NULL
P        0.88871573       5.78418837       6.39503055       0.00000000 NULL
P        4.43905631       1.22568394       0.78628555       0.00000000 NULL
P        1.77517029       3.33282049      13.57634666       0.00000000 NULL
P        4.51452644       6.64416321      13.66787024       0.00000000 NULL
P        1.85064042       7.03135009       0.69476197       0.00000000 NULL
P        3.47713162       2.47284565       6.48655414       0.00000000 NULL
P        0.81324560       2.08565878       7.87607807       0.00000000 NULL
P        2.17833111       8.44108529       2.54429592       0.00000000 NULL
P        4.84221713       5.23442801      11.81833629       0.00000000 NULL
P        0.48555491       0.67592358       9.72561203       0.00000000 NULL
P        3.14944093       3.88258085       4.63702018       0.00000000 NULL
P        4.96221984       1.70926734       5.07082829       0.00000000 NULL
P        2.29833382       2.84923709       9.29180392       0.00000000 NULL
P        3.02943822       7.40774152      12.25214440       0.00000000 NULL
P        0.36555220       6.26777178       2.11048781       0.00000000 NULL
P        4.81139141       8.35727367       0.78282350       0.00000000 NULL
P        2.14750539       5.31823963      13.57980871       0.00000000 NULL
P        3.18026665       0.75973519       7.96413960       0.00000000 NULL
P        0.51638063       3.79876924       6.39849261       0.00000000 NULL
24
Lattice="5.317321496729198 0.0 0.0 0.0 9.201570448359842 0.0 0.0 0.0 16.382456383044616" Properties=species:S:1:pos:R:3:initial_magmoms:R:1:castep_labels:S:1 n_minim_iter=12 pbc="T T T"
P        3.52620191       6.83322618       2.41298350       0.00000000 NULL
P        0.86754116       6.96912949      13.96947288       0.00000000 NULL
P        4.44978033       2.36834427      10.60421169       0.00000000 NULL
P        1.79111959       2.23244096       5.77824469       0.00000000 NULL
P        3.54571247       7.95819140       9.07755468       0.00000000 NULL
P        0.88705172       5.84416427       7.30490170       0.00000000 NULL
P        4.43026977       1.24337904       0.88632649       0.00000000 NULL
P        1.77160903       3.35740618      15.49612989       0.00000000 NULL
P        4.49923133       6.70255829      15.57718689       0.00000000 NULL
P        1.84057058       7.09979738       0.80526949       0.00000000 NULL
P        3.47675091       2.49901216       7.38595870       0.00000000 NULL
P        0.81809017       2.10177306       8.99649769       0.00000000 NULL
P        2.17216398       8.51247894       2.88928440       0.00000000 NULL
P        4.83082472       5.28987673      13.49317198       0.00000000 NULL
P        0.48649677       0.68909150      11.08051260       0.00000000 NULL
P        3.14515752       3.91169372       5.30194379       0.00000000 NULL
P        4.93837035       1.72413616       5.76972010       0.00000000 NULL
P        2.27970960       2.87664907      10.61273628       0.00000000 NULL
P        3.03761189       7.47743429      13.96094830       0.00000000 NULL
P        0.37895114       6.32492138       2.42150809       0.00000000 NULL
P        4.80230066       8.43269679       0.91408792       0.00000000 NULL
P        2.14363991       5.36965888      15.46836847       0.00000000 NULL
P        3.17368159       0.76887365       9.10531611       0.00000000 NULL
P        0.51502084       3.83191157       7.27714027       0.00000000 NULL
24
Lattice="5.0867089375175985 0.0 0.0 0.0 8.777607096676666 0.0 0.0 0.0 15.969753787978282" Properties=species:S:1:pos:R:3:initial_magmoms:R:1:castep_labels:S:1 n_minim_iter=13 pbc="T T T"
P        3.37214161       6.52094581       2.34967123       0.00000000 NULL
P        0.82878714       6.64546484      13.62008256       0.00000000 NULL
P        4.25792180       2.25666129      10.33454813       0.00000000 NULL
P        1.71456733       2.13214226       5.63520566       0.00000000 NULL
P        3.39202516       7.59119155       8.84627064       0.00000000 NULL
P        0.84867070       5.57521909       7.12348315       0.00000000 NULL
P        4.23803824       1.18641554       0.86139375       0.00000000 NULL
P        1.69468377       3.20238800      15.10836004       0.00000000 NULL
P        4.30308574       6.39380324      15.17845720       0.00000000 NULL
P        1.75973127       6.77260741       0.79129659       0.00000000 NULL
P        3.32697767       2.38380386       7.19358031       0.00000000 NULL
P        0.78362320       2.00499969       8.77617348       0.00000000 NULL
P        2.07791596       8.11752160       2.81073759       0.00000000 NULL
P        4.62127043       5.04888905      13.15901620       0.00000000 NULL
P        0.46543851       0.66008550      10.79561448       0.00000000 NULL
P        3.00879298       3.72871805       5.17413930       0.00000000 NULL
P        4.72115151       1.64556212       5.62248051       0.00000000 NULL
P        2.17779704       2.74324143      10.34727328       0.00000000 NULL
P        2.90891190       7.13204498      13.60735740       0.00000000 NULL
P        0.36555743       6.03436567       2.36239639       0.00000000 NULL
P        4.59361769       8.04299290       0.89513342       0.00000000 NULL
P        2.05026322       5.12341775      15.07462037       0.00000000 NULL
P        3.03644572       0.73461420       8.88001031       0.00000000 NULL
P        0.49309125       3.65418935       7.08974347       0.00000000 NULL
24
Lattice="5.177152781786497 0.0 0.0 0.0 9.003776125208034 0.0 0.0 0.0 16.10551663521449" Properties=species:S:1:pos:R:3:initial_magmoms:R:1:castep_labels:S:1 n_minim_iter=14 pbc="T T T"
P        3.43164064       6.68919465       2.36884351       0.00000000 NULL
P        0.84306425       6.81646954      13.73667313       0.00000000 NULL
P        4.33408853       2.31458148      10.42160182       0.00000000 NULL
P        1.74551214       2.18730659       5.68391481       0.00000000 NULL
P        3.45264381       7.78456816       8.92123912       0.00000000 NULL
P        0.86406742       5.72109603       7.18427751       0.00000000 NULL
P        4.31308537       1.21920797       0.86848081       0.00000000 NULL
P        1.72450898       3.28268009      15.23703583       0.00000000 NULL
P        4.37935382       6.55865345      15.30582151       0.00000000 NULL
P        1.79077743       6.94701074       0.79969512       0.00000000 NULL
P        3.38637535       2.44512268       7.25306319       0.00000000 NULL
P        0.79779896       2.05676538       8.85245344       0.00000000 NULL
P        2.11410050       8.32665835       2.83373441       0.00000000 NULL
P        4.70267689       5.17900584      13.27178222       0.00000000 NULL
P        0.47447590       0.67711778      10.88649273       0.00000000 NULL
P        3.06305229       3.82477028       5.21902391       0.00000000 NULL
P        4.80311288       1.68734319       5.66772708       0.00000000 NULL
P        2.21453649       2.81454487      10.43778956       0.00000000 NULL
P        2.96261629       7.31643294      13.72048540       0.00000000 NULL
P        0.37403990       6.18923125       2.38503124       0.00000000 NULL
P        4.67530274       8.24865552       0.90448186       0.00000000 NULL
P        2.08672635       5.25700867      15.20103478       0.00000000 NULL
P        3.09042643       0.75512061       8.95724018       0.00000000 NULL
P        0.50185004       3.74676746       7.14827646       0.00000000 NULL
24
Lattice="5.178605448951445 0.0 0.0 0.0 9.009687759533962 0.0 0.0 0.0 16.092042403047444" Properties=species:S:1:pos:R:3:initial_magmoms:R:1:castep_labels:S:1 n_minim_iter=15 pbc="T T T"
P        3.43211413       6.69443196       2.36588725       0.00000000 NULL
P        0.84281141       6.82009968      13.72615515       0.00000000 NULL
P        4.33579404       2.31525580      10.41190845       0.00000000 NULL
P        1.74649132       2.18958808       5.68013395       0.00000000 NULL
P        3.45371370       7.78871057       8.91307023       0.00000000 NULL
P        0.86441098       5.72582107       7.17897217       0.00000000 NULL
P        4.31419447       1.22097719       0.86704903       0.00000000 NULL
P        1.72489175       3.28386669      15.22499337       0.00000000 NULL
P        4.38019871       6.56309766      15.29077494       0.00000000 NULL
P        1.79089598       6.95143398       0.80126747       0.00000000 NULL
P        3.38770947       2.44659010       7.24475374       0.00000000 NULL
P        0.79840674       2.05825378       8.84728867       0.00000000 NULL
P        2.11424829       8.33143011       2.82942213       0.00000000 NULL
P        4.70355101       5.18310153      13.26262027       0.00000000 NULL
P        0.47505444       0.67825765      10.87544333       0.00000000 NULL
P        3.06435716       3.82658623       5.21659907       0.00000000 NULL
P        4.80266100       1.68823953       5.66112106       0.00000000 NULL
P        2.21335828       2.81660434      10.43092134       0.00000000 NULL
P        2.96524717       7.32144822      13.70714226       0.00000000 NULL
P        0.37594445       6.19308341       2.38490014       0.00000000 NULL
P        4.67648794       8.25338131       0.90571878       0.00000000 NULL