32
Lattice="6.90736 0.0 0.0 0.0 6.90736 0.0 0.0 0.0 14.034590000000003" Properties=species:S:1:pos:R:3:initial_magmoms:R:1:castep_labels:S:1 n_minim_iter=1 pbc="T T T"
P        1.86373351       4.03436587       4.23639994       0.00000000 NULL
P        5.04362649       2.87299413       4.23639994       0.00000000 NULL
P        4.03436587       5.04362649       9.79819006       0.00000000 NULL
P        2.87299413       1.86373351       9.79819006       0.00000000 NULL
P        1.41653307       2.21523456       6.88392008       0.00000000 NULL
P        5.49082693       4.69212544       6.88392008       0.00000000 NULL
P        2.21523456       5.49082693       7.15066992       0.00000000 NULL
P        4.69212544       1.41653307       7.15066992       0.00000000 NULL
P        4.57981798       4.77832308       3.68810219       0.00000000 NULL
P        2.32754202       2.12903692       3.68810219       0.00000000 NULL
P        4.77832308       2.32754202      10.34648781       0.00000000 NULL
P        2.12903692       4.57981798      10.34648781       0.00000000 NULL
P        5.92639815       6.62180007       0.72839803       0.00000000 NULL
P        0.98096185       0.28555993       0.72839803       0.00000000 NULL
P        6.62180007       0.98096185      13.30619197       0.00000000 NULL
P        0.28555993       5.92639815      13.30619197       0.00000000 NULL
P        1.77007386       0.16384949       5.33384593       0.00000000 NULL
P        5.13728614       6.74351051       5.33384593       0.00000000 NULL
P        0.16384949       5.13728614       8.70074407       0.00000000 NULL
P        6.74351051       1.77007386       8.70074407       0.00000000 NULL
P        1.86482419       0.96317057      11.31780214       0.00000000 NULL
P        5.04253581       5.94418943      11.31780214       0.00000000 NULL
P        0.96317057       5.04253581       2.71678786       0.00000000 NULL
P        5.94418943       1.86482419       2.71678786       0.00000000 NULL
P        5.03271355       5.09569624       1.73158491       0.00000000 NULL
P        1.87464645       1.81166376       1.73158491       0.00000000 NULL
P        5.09569624       1.87464645      12.30300509       0.00000000 NULL
P        1.81166376       5.03271355      12.30300509       0.00000000 NULL
P        3.14456942       2.48526398       7.89075736       0.00000000 NULL
P        3.76279058       4.42209602       7.89075736       0.00000000 NULL
P        2.48526398       3.76279058       6.14383264       0.00000000 NULL
P        4.42209602       3.14456942       6.14383264       0.00000000 NULL
32
Lattice="6.940806167897073 0.0 0.0 0.0 6.940806167897073 0.0 0.0 0.0 14.136081837437999" Properties=species:S:1:pos:R:3:initial_magmoms:R:1:castep_labels:S:1 n_minim_iter=2 pbc="T T T"
P        1.87262145       4.05407129       4.26684961       0.00000000 NULL
P        5.06818472       2.88673488       4.26684961       0.00000000 NULL
P        4.05407129       5.06818472       9.86923222       0.00000000 NULL
P        2.88673488       1.87262145       9.86923222       0.00000000 NULL
P        1.42299755       2.22563861       6.93364768       0.00000000 NULL
P        5.51780862       4.71516756       6.93364768       0.00000000 NULL
P        2.22563861       5.51780862       7.20243416       0.00000000 NULL
P        4.71516756       1.42299755       7.20243416       0.00000000 NULL
P        4.60190899       4.80173346       3.71494637       0.00000000 NULL
P        2.33889717       2.13907271       3.71494637       0.00000000 NULL
P        4.80173346       2.33889717      10.42113547       0.00000000 NULL
P        2.13907271       4.60190899      10.42113547       0.00000000 NULL
P        5.95467769       6.65389270       0.73392360       0.00000000 NULL
P        0.98612847       0.28691347       0.73392360       0.00000000 NULL
P        6.65389270       0.98612847      13.40215824       0.00000000 NULL
P        0.28691347       5.95467769      13.40215824       0.00000000 NULL
P        1.77864499       0.16472983       5.37246508       0.00000000 NULL
P        5.16216118       6.77607634       5.37246508       0.00000000 NULL
P        0.16472983       5.16216118       8.76361676       0.00000000 NULL
P        6.77607634       1.77864499       8.76361676       0.00000000 NULL
P        1.87377114       0.96773118      11.39972332       0.00000000 NULL
P        5.06703503       5.97307499      11.39972332       0.00000000 NULL
P        0.96773118       5.06703503       2.73635851       0.00000000 NULL
P        5.97307499       1.87377114       2.73635851       0.00000000 NULL
P        5.05706038       5.12017103       1.74397906       0.00000000 NULL
P        1.88374579       1.82063514       1.74397906       0.00000000 NULL
P        5.12017103       1.88374579      12.39210278       0.00000000 NULL
P        1.82063514       5.05706038      12.39210278       0.00000000 NULL
P        3.15969347       2.49720415       7.94821227       0.00000000 NULL
P        3.78111270       4.44360202       7.94821227       0.00000000 NULL
P        2.49720415       3.78111270       6.18786956       0.00000000 NULL
P        4.44360202       3.15969347       6.18786956       0.00000000 NULL
32
Lattice="7.185825019370168 0.0 0.0 0.0 7.185825019370168 0.0 0.0 0.0 14.878264156633259" Properties=species:S:1:pos:R:3:initial_magmoms:R:1:castep_labels:S:1 n_minim_iter=3 pbc="T T T"
P        1.93759994       4.19852049       4.48931203       0.00000000 NULL
P        5.24822507       2.98730453       4.48931203       0.00000000 NULL
P        4.19852049       5.24822507      10.38895212       0.00000000 NULL
P        2.98730453       1.93759994      10.38895212       0.00000000 NULL
P        1.47012330       2.30163395       7.29724679       0.00000000 NULL
P        5.71570172       4.88419107       7.29724679       0.00000000 NULL
P        2.30163395       5.71570172       7.58101737       0.00000000 NULL
P        4.88419107       1.47012330       7.58101737       0.00000000 NULL
P        4.76372313       4.97341167       3.91130039       0.00000000 NULL
P        2.42210189       2.21241335       3.91130039       0.00000000 NULL
P        4.97341167       2.42210189      10.96696377       0.00000000 NULL
P        2.21241335       4.76372313      10.96696377       0.00000000 NULL
P        6.16163200       6.88899703       0.77453705       0.00000000 NULL
P        1.02419302       0.29682799       0.77453705       0.00000000 NULL
P        6.88899703       1.02419302      14.10372711       0.00000000 NULL
P        0.29682799       6.16163200      14.10372711       0.00000000 NULL
P        1.84144891       0.17133091       5.65494188       0.00000000 NULL
P        5.34437611       7.01449411       5.65494188       0.00000000 NULL
P        0.17133091       5.34437611       9.22332228       0.00000000 NULL
P        7.01449411       1.84144891       9.22332228       0.00000000 NULL
P        1.93926839       1.00109063      11.99877474       0.00000000 NULL
P        5.24655663       6.18473439      11.99877474       0.00000000 NULL
P        1.00109063       5.24655663       2.87948942       0.00000000 NULL
P        6.18473439       1.93926839       2.87948942       0.00000000 NULL
P        5.23536903       5.29933208       1.83457435       0.00000000 NULL
P        1.95045599       1.88649294       1.83457435       0.00000000 NULL
P        5.29933208       1.95045599      13.04368981       0.00000000 NULL
P        1.88649294       5.23536903      13.04368981       0.00000000 NULL
P        3.27034594       2.58455233       8.36889695       0.00000000 NULL
P        3.91547908       4.60127269       8.36889695       0.00000000 NULL
P        2.58455233       3.91547908       6.50936721       0.00000000 NULL
P        4.60127269       3.27034594       6.50936721       0.00000000 NULL
32
Lattice="7.231424126462857 0.0 0.0 0.0 7.231424126462857 0.0 0.0 0.0 15.021817520885124" Properties=species:S:1:pos:R:3:initial_magmoms:R:1:castep_labels:S:1 n_minim_iter=4 pbc="T T T"
P        1.94903118       4.22580878       4.53115769       0.00000000 NULL
P        5.28239295       3.00561535       4.53115769       0.00000000 NULL
P        4.22580878       5.28239295      10.49065983       0.00000000 NULL
P        3.00561535       1.94903118      10.49065983       0.00000000 NULL
P        1.47723561       2.31417703       7.36737290       0.00000000 NULL
P        5.75418851       4.91724710       7.36737290       0.00000000 NULL
P        2.31417703       5.75418851       7.65444462       0.00000000 NULL
P        4.91724710       1.47723561       7.65444462       0.00000000 NULL
P        4.79373895       5.00658789       3.94925141       0.00000000 NULL
P        2.43768517       2.22483624       3.94925141       0.00000000 NULL
P        5.00658789       2.43768517      11.07256611       0.00000000 NULL
P        2.22483624       4.79373895      11.07256611       0.00000000 NULL
P        6.19848661       6.93262823       0.78386496       0.00000000 NULL
P        1.03293752       0.29879590       0.78386496       0.00000000 NULL
P        6.93262823       1.03293752      14.23795256       0.00000000 NULL
P        0.29879590       6.19848661      14.23795256       0.00000000 NULL
P        1.85330177       0.17380284       5.71017952       0.00000000 NULL
P        5.37812236       7.05762128       5.71017952       0.00000000 NULL
P        0.17380284       5.37812236       9.31163800       0.00000000 NULL
P        7.05762128       1.85330177       9.31163800       0.00000000 NULL
P        1.95100090       1.00705501      12.11431430       0.00000000 NULL
P        5.28042323       6.22436911      12.11431430       0.00000000 NULL
P        1.00705501       5.28042323       2.90750322       0.00000000 NULL
P        6.22436911       1.95100090       2.90750322       0.00000000 NULL
P        5.26794888       5.33159108       1.85228001       0.00000000 NULL
P        1.96347525       1.89983305       1.85228001       0.00000000 NULL
P        5.33159108       1.96347525      13.16953751       0.00000000 NULL
P        1.89983305       5.26794888      13.16953751       0.00000000 NULL
P        3.28986442       2.59984481       8.45328782       0.00000000 NULL
P        3.94155970       4.63157931       8.45328782       0.00000000 NULL
P        2.59984481       3.94155970       6.56852970       0.00000000 NULL
P        4.63157931       3.28986442       6.56852970       0.00000000 NULL
32
Lattice="7.23327448264449 0.0 0.0 0.0 7.23327448264449 0.0 0.0 0.0 15.039539360362483" Properties=species:S:1:pos:R:3:initial_magmoms:R:1:castep_labels:S:1 n_minim_iter=5 pbc="T T T"
P        1.94870111       4.22740942       4.53488087       0.00000000 NULL
P        5.28457338       3.00586506       4.53488087       0.00000000 NULL
P        4.22740942       5.28457338      10.50465849       0.00000000 NULL
P        3.00586506       1.94870111      10.50465849       0.00000000 NULL
P        1.47538682       2.31264106       7.37580203       0.00000000 NULL
P        5.75788766       4.92063342       7.37580203       0.00000000 NULL
P        2.31264106       5.75788766       7.66373733       0.00000000 NULL
P        4.92063342       1.47538682       7.66373733       0.00000000 NULL
P        4.79480499       5.00952870       3.95396619       0.00000000 NULL
P        2.43846950       2.22374578       3.95396619       0.00000000 NULL
P        5.00952870       2.43846950      11.08557317       0.00000000 NULL
P        2.22374578       4.79480499      11.08557317       0.00000000 NULL
P        6.19783252       6.93428536       0.78679708       0.00000000 NULL
P        1.03544196       0.29898913       0.78679708       0.00000000 NULL
P        6.93428536       1.03544196      14.25274228       0.00000000 NULL
P        0.29898913       6.19783252      14.25274228       0.00000000 NULL
P        1.85400565       0.17551826       5.71775584       0.00000000 NULL
P        5.37926883       7.05775622       5.71775584       0.00000000 NULL
P        0.17551826       5.37926883       9.32178352       0.00000000 NULL
P        7.05775622       1.85400565       9.32178352       0.00000000 NULL
P        1.95086077       1.00700645      12.12814044       0.00000000 NULL
P        5.28241371       6.22626803      12.12814044       0.00000000 NULL
P        1.00700645       5.28241371       2.91139892       0.00000000 NULL
P        6.22626803       1.95086077       2.91139892       0.00000000 NULL
P        5.26847611       5.33152418       1.85473737       0.00000000 NULL
P        1.96479837       1.90175030       1.85473737       0.00000000 NULL
P        5.33152418       1.96479837      13.18480200       0.00000000 NULL
P        1.90175030       5.26847611      13.18480200       0.00000000 NULL
P        3.28929630       2.59921715       8.46718887       0.00000000 NULL
P        3.94397819       4.63405734       8.46718887       0.00000000 NULL
P        2.59921715       3.94397819       6.57235049       0.00000000 NULL
P        4.63405734       3.28929630       6.57235049       0.00000000 NULL
32
Lattice="7.222815747427425 3.129868464329294e-73 -2.981577412974261e-45 -3.129868464329294e-73 7.222815747427425 0.0 -1.2398686367007614e-44 0.0 15.043084798515775" Properties=species:S:1:pos:R:3:initial_magmoms:R:1:castep_labels:S:1 n_minim_iter=6 pbc="T T T"
P        1.94422034       4.22226740       4.53265250       0.00000000 NULL
P        5.27859541       3.00054835       4.53265250       0.00000000 NULL
P        4.22226740       5.27859541      10.51043230       0.00000000 NULL
P        3.00054835       1.94422034      10.51043230       0.00000000 NULL
P        1.46886762       2.30505285       7.37700045       0.00000000 NULL
P        5.75394812       4.91776290       7.37700045       0.00000000 NULL
P        2.30505285       5.75394812       7.66608435       0.00000000 NULL
P        4.91776290       1.46886762       7.66608435       0.00000000 NULL
P        4.78756446       5.00560632       3.95498448       0.00000000 NULL
P        2.43525129       2.21720943       3.95498448       0.00000000 NULL
P        5.00560632       2.43525129      11.08810032       0.00000000 NULL
P        2.21720943       4.78756446      11.08810032       0.00000000 NULL
P        6.18448902       6.92409414       0.79094864       0.00000000 NULL
P        1.03832673       0.29872161       0.79094864       0.00000000 NULL
P        6.92409414       1.03832673      14.25213616       0.00000000 NULL
P        0.29872161       6.18448902      14.25213616       0.00000000 NULL
P        1.85178839       0.17871542       5.72084296       0.00000000 NULL
P        5.37102735       7.04410033       5.72084296       0.00000000 NULL
P        0.17871542       5.37102735       9.32224184       0.00000000 NULL
P        7.04410033       1.85178839       9.32224184       0.00000000 NULL
P        1.94672782       1.00494613      12.13001946       0.00000000 NULL
P        5.27608793       6.21786962      12.13001946       0.00000000 NULL
P        1.00494613       5.27608793       2.91306534       0.00000000 NULL
P        6.21786962       1.94672782       2.91306534       0.00000000 NULL
P        5.25915935       5.32090873       1.85577276       0.00000000 NULL
P        1.96365639       1.90190702       1.85577276       0.00000000 NULL
P        5.32090873       1.96365639      13.18731204       0.00000000 NULL
P        1.90190702       5.25915935      13.18731204       0.00000000 NULL
P        3.28169998       2.59283329       8.47702794       0.00000000 NULL
P        3.94111576       4.62998246       8.47702794       0.00000000 NULL
P        2.59283329       3.94111576       6.56605686       0.00000000 NULL
P        4.62998246       3.28169998       6.56605686       0.00000000 NULL
32
Lattice="7.069076570525059 3.063248545125341e-73 -2.1318721668714072e-44 -3.063248545125341e-73 7.069076570525059 9.061731411751838e-120 1.1827434110715518e-44 1.0572294465623632e-117 15.212910362797238" Properties=species:S:1:pos:R:3:initial_magmoms:R:1:castep_labels:S:1 n_minim_iter=7 pbc="T T T"
P        1.88301009       4.14300067       4.54418944       0.00000000 NULL
P        5.18606648       2.92607590       4.54418944       0.00000000 NULL
P        4.14300067       5.18606648      10.66872092       0.00000000 NULL
P        2.92607590       1.88301009      10.66872092       0.00000000 NULL
P        1.38828562       2.20723419       7.45318417       0.00000000 NULL
P        5.68079095       4.86184238       7.45318417       0.00000000 NULL
P        2.20723419       5.68079095       7.75972619       0.00000000 NULL
P        4.86184238       1.38828562       7.75972619       0.00000000 NULL
P        4.68195850       4.93759830       4.00102323       0.00000000 NULL
P        2.38711807       2.13147827       4.00102323       0.00000000 NULL
P        4.93759830       2.38711807      11.21188713       0.00000000 NULL
P        2.13147827       4.68195850      11.21188713       0.00000000 NULL
P        6.00408848       6.77685311       0.84506992       0.00000000 NULL
P        1.06498809       0.29222346       0.84506992       0.00000000 NULL
P        6.77685311       1.06498809      14.36784045       0.00000000 NULL
P        0.29222346       6.00408848      14.36784045       0.00000000 NULL
P        1.81743759       0.21591442       5.80662286       0.00000000 NULL
P        5.25163898       6.85316215       5.80662286       0.00000000 NULL
P        0.21591442       5.25163898       9.40628751       0.00000000 NULL
P        6.85316215       1.81743759       9.40628751       0.00000000 NULL
P        1.88960905       0.97599987      12.25576948       0.00000000 NULL
P        5.17946752       6.09307670      12.25576948       0.00000000 NULL
P        0.97599987       5.17946752       2.95714088       0.00000000 NULL
P        6.09307670       1.88960905       2.95714088       0.00000000 NULL
P        5.12737683       5.17313367       1.88380578       0.00000000 NULL
P        1.94169974       1.89594290       1.88380578       0.00000000 NULL
P        5.17313367       1.94169974      13.32910458       0.00000000 NULL
P        1.89594290       5.12737683      13.32910458       0.00000000 NULL
P        3.17946765       2.50732050       8.66448743       0.00000000 NULL
P        3.88960892       4.56175608       8.66448743       0.00000000 NULL
P        2.50732050       3.88960892       6.54842294       0.00000000 NULL
P        4.56175608       3.17946765       6.54842294       0.00000000 NULL
32
Lattice="6.968063241322857 -9.94626963939633e-72 -3.776092666376639e-43 9.94626963939633e-72 6.968063241322857 -7.998313118355478e-117 1.4254083114605724e-43 6.626655221126479e-117 16.28122927876575" Properties=species:S:1:pos:R:3:initial_magmoms:R:1:castep_labels:S:1 n_minim_iter=8 pbc="T T T"
P        1.82718157       4.08959082       4.81582516       0.00000000 NULL
P        5.14088167       2.87847242       4.81582516       0.00000000 NULL
P        4.08959082       5.14088167      11.46540412       0.00000000 NULL
P        2.87847242       1.82718157      11.46540412       0.00000000 NULL
P        1.32906762       2.12260132       7.95715146       0.00000000 NULL
P        5.63899562       4.84546192       7.95715146       0.00000000 NULL
P        2.12260132       5.63899562       8.32407782       0.00000000 NULL
P        4.84546192       1.32906762       8.32407782       0.00000000 NULL
P        4.60480503       4.92238273       4.28719483       0.00000000 NULL
P        2.36325822       2.04568051       4.28719483       0.00000000 NULL
P        4.92238273       2.36325822      11.99403445       0.00000000 NULL
P        2.04568051       4.60480503      11.99403445       0.00000000 NULL
P        5.87904115       6.71545430       0.93464618       0.00000000 NULL
P        1.08902210       0.25260894       0.93464618       0.00000000 NULL
P        6.71545430       1.08902210      15.34658310       0.00000000 NULL
P        0.25260894       5.87904115      15.34658310       0.00000000 NULL
P        1.79501736       0.27850753       6.24956522       0.00000000 NULL
P        5.17304588       6.68955571       6.24956522       0.00000000 NULL
P        0.27850753       5.17304588      10.03166406       0.00000000 NULL
P        6.68955571       1.79501736      10.03166406       0.00000000 NULL
P        1.83214304       0.93968671      13.11757643       0.00000000 NULL
P        5.13592020       6.02837653      13.11757643       0.00000000 NULL
P        0.93968671       5.13592020       3.16365285       0.00000000 NULL
P        6.02837653       1.83214304       3.16365285       0.00000000 NULL
P        5.03076983       5.04449874       2.02751169       0.00000000 NULL
P        1.93729341       1.92356450       2.02751169       0.00000000 NULL
P        5.04449874       1.93729341      14.25371759       0.00000000 NULL
P        1.92356450       5.03076983      14.25371759       0.00000000 NULL
P        3.10457424       2.43515209       9.34171227       0.00000000 NULL
P        3.86348900       4.53291116       9.34171227       0.00000000 NULL
P        2.43515209       3.86348900       6.93951701       0.00000000 NULL
P        4.53291116       3.10457424       6.93951701       0.00000000 NULL
32
Lattice="6.737058136273159 2.3990623053210198e-70 -2.0923819095525783e-44 -2.39906230532102e-70 6.737058136273159 2.16703045314639e-114 1.0538977547784711e-43 2.9549210369302445e-116 15.50396475272028" Properties=species:S:1:pos:R:3:initial_magmoms:R:1:castep_labels:S:1 n_minim_iter=9 pbc="T T T"
P        1.76605118       3.95355882       4.58476143       0.00000000 NULL
P        4.97100696       2.78349932       4.58476143       0.00000000 NULL
P        3.95355882       4.97100696      10.91920332       0.00000000 NULL
P        2.78349932       1.76605118      10.91920332       0.00000000 NULL
P        1.28495786       2.05114209       7.57636328       0.00000000 NULL
P        5.45210027       4.68591605       7.57636328       0.00000000 NULL
P        2.05114209       5.45210027       7.92760147       0.00000000 NULL
P        4.68591605       1.28495786       7.92760147       0.00000000 NULL
P        4.45187669       4.76082880       4.08134549       0.00000000 NULL
P        2.28518144       1.97622933       4.08134549       0.00000000 NULL
P        4.76082880       2.28518144      11.42261926       0.00000000 NULL
P        1.97622933       4.45187669      11.42261926       0.00000000 NULL
P        5.68261115       6.49434487       0.89140764       0.00000000 NULL
P        1.05444699       0.24271326       0.89140764       0.00000000 NULL
P        6.49434487       1.05444699      14.61255711       0.00000000 NULL
P        0.24271326       5.68261115      14.61255711       0.00000000 NULL
P        1.73595622       0.27270006       5.95295200       0.00000000 NULL
P        5.00110191       6.46435808       5.95295200       0.00000000 NULL
P        0.27270006       5.00110191       9.55101276       0.00000000 NULL
P        6.46435808       1.73595622       9.55101276       0.00000000 NULL
P        1.77016409       0.90777365      12.49116538       0.00000000 NULL
P        4.96689405       5.82928448      12.49116538       0.00000000 NULL
P        0.90777365       4.96689405       3.01279938       0.00000000 NULL
P        5.82928448       1.77016409       3.01279938       0.00000000 NULL
P        4.86357583       4.87606661       1.93217226       0.00000000 NULL
P        1.87348230       1.86099152       1.93217226       0.00000000 NULL
P        4.87606661       1.87348230      13.57179249       0.00000000 NULL
P        1.86099152       4.86357583      13.57179249       0.00000000 NULL
P        3.00152883       2.35241916       8.89676657       0.00000000 NULL
P        3.73552931       4.38463898       8.89676657       0.00000000 NULL
P        2.35241916       3.73552931       6.60719819       0.00000000 NULL
P        4.38463898       3.00152883       6.60719819       0.00000000 NULL
32
Lattice="6.839127417578393 4.155932967083835e-70 -3.4270445569242905e-43 -4.155932967083836e-70 6.839127417578393 3.321293363039904e-114 -7.39402737194544e-43 -3.020909740759453e-113 15.703122087212762" Properties=species:S:1:pos:R:3:initial_magmoms:R:1:castep_labels:S:1 n_minim_iter=10 pbc="T T T"
P        1.79243483       4.01422370       4.64357900       0.00000000 NULL
P        5.04669259       2.82490372       4.64357900       0.00000000 NULL
P        4.01422370       5.04669259      11.05954308       0.00000000 NULL
P        2.82490372       1.79243483      11.05954308       0.00000000 NULL
P        1.30328923       2.08097456       7.67282104       0.00000000 NULL
P        5.53583819       4.75815286       7.67282104       0.00000000 NULL
P        2.08097456       5.53583819       8.03030105       0.00000000 NULL
P        4.75815286       1.30328923       8.03030105       0.00000000 NULL
P        4.51878804       4.83529071       4.13386429       0.00000000 NULL
P        2.32033938       2.00383671       4.13386429       0.00000000 NULL
P        4.83529071       2.32033938      11.56925780       0.00000000 NULL
P        2.00383671       4.51878804      11.56925780       0.00000000 NULL
P        5.76681096       6.59460380       0.90362730       0.00000000 NULL
P        1.07231645       0.24452362       0.90362730       0.00000000 NULL
P        6.59460380       1.07231645      14.79949479       0.00000000 NULL
P        0.24452362       5.76681096      14.79949479       0.00000000 NULL
P        1.76232372       0.27835706       6.03020747       0.00000000 NULL
P        5.07680370       6.56077036       6.03020747       0.00000000 NULL
P        0.27835706       5.07680370       9.67291461       0.00000000 NULL
P        6.56077036       1.76232372       9.67291461       0.00000000 NULL
P        1.79594726       0.92033285      12.65306245       0.00000000 NULL
P        5.04318016       5.91879457      12.65306245       0.00000000 NULL
P        0.92033285       5.04318016       3.05005964       0.00000000 NULL
P        5.91879457       1.79594726       3.05005964       0.00000000 NULL
P        4.93741296       4.94805170       1.95755033       0.00000000 NULL
P        1.90171446       1.89107572       1.95755033       0.00000000 NULL
P        4.94805170       1.90171446      13.74557176       0.00000000 NULL
P        1.89107572       4.93741296      13.74557176       0.00000000 NULL
P        3.04672840       2.38690757       9.01192199       0.00000000 NULL
P        3.79239901       4.45221985       9.01192199       0.00000000 NULL
P        2.38690757       3.79239901       6.69120010       0.00000000 NULL
P        4.45221985       3.04672840       6.69120010       0.00000000 NULL
32
Lattice="6.846687310595854 7.708344567573717e-71 -1.5184525424363952e-43 -7.708344567573725e-71 6.846687310595854 1.9062872887379417e-113 1.1464262980165971e-43 2.1230502730273556e-113 15.643508897052511" Properties=species:S:1:pos:R:3:initial_magmoms:R:1:castep_labels:S:1 n_minim_iter=11 pbc="T T T"
P        1.79396782       4.01888822       4.62556912       0.00000000 NULL
P        5.05271949       2.82779909       4.62556912       0.00000000 NULL
P        4.01888822       5.05271949      11.01793977       0.00000000 NULL
P        2.82779909       1.79396782      11.01793977       0.00000000 NULL
P        1.30408253       2.08230705       7.64295372       0.00000000 NULL
P        5.54260478       4.76438026       7.64295372       0.00000000 NULL
P        2.08230705       5.54260478       8.00055517       0.00000000 NULL
P        4.76438026       1.30408253       8.00055517       0.00000000 NULL
P        4.52345731       4.84227433       4.11796901       0.00000000 NULL
P        2.32323000       2.00441298       4.11796901       0.00000000 NULL
P        4.84227433       2.32323000      11.52553989       0.00000000 NULL
P        2.00441298       4.52345731      11.52553989       0.00000000 NULL
P        5.77178601       6.60336889       0.90100377       0.00000000 NULL
P        1.07490130       0.24331842       0.90100377       0.00000000 NULL
P        6.60336889       1.07490130      14.74250513       0.00000000 NULL
P        0.24331842       5.77178601      14.74250513       0.00000000 NULL
P        1.76437844       0.28038067       6.00818784       0.00000000 NULL
P        5.08230887       6.56630664       6.00818784       0.00000000 NULL
P        0.28038067       5.08230887       9.63532106       0.00000000 NULL
P        6.56630664       1.76437844       9.63532106       0.00000000 NULL
P        1.79703126       0.92039335      12.60578927       0.00000000 NULL
P        5.04965605       5.92629396      12.60578927       0.00000000 NULL
P        0.92039335       5.04965605       3.03771963       0.00000000 NULL
P        5.92629396       1.79703126       3.03771963       0.00000000 NULL
P        4.94301424       4.95225571       1.95069176       0.00000000 NULL
P        1.90367307       1.89443160       1.95069176       0.00000000 NULL
P        4.95225571       1.90367307      13.69281714       0.00000000 NULL
P        1.89443160       4.94301424      13.69281714       0.00000000 NULL
P        3.04989545       2.38846297       8.97832876       0.00000000 NULL
P        3.79679186       4.45822434       8.97832876       0.00000000 NULL
P        2.38846297       3.79679186       6.66518014       0.00000000 NULL
P        4.45822434       3.04989545       6.66518014       0.00000000 NULL
32
Lattice="6.870804402767249 4.1594993212288496e-70 3.053780221169966e-44 -4.15949932122885e-70 6.870804402767249 2.1402438188577142e-113 3.1936348527142715e-43 2.3635217162404653e-113 15.516494704421351" Properties=species:S:1:pos:R:3:initial_magmoms:R:1:castep_labels:S:1 n_minim_iter=12 pbc="T T T"
P        1.79879532       4.03356033       4.58652449       0.00000000 NULL
P        5.07200908       2.83724408       4.58652449       0.00000000 NULL
P        4.03356033       5.07200908      10.92997022       0.00000000 NULL