8
Lattice="4.518499999999999 -1.0512743339755596e-15 -2.76969460023527e-16 0.5823587398198407 5.773664612683649 9.140312014500332e-16 1.4082512680136101 2.119089867235947 6.901446295604714" Properties=species:S:1:pos:R:3:initial_magmoms:R:1:castep_labels:S:1 n_minim_iter=1 pbc="T T T"
P        3.51448688       6.58419489       5.38999505       0.00000000 NULL
P        2.03134603       6.49927602       2.92892619       0.00000000 NULL
P        4.06608745       3.59283483       3.05348418       0.00000000 NULL
P        6.20747441       5.78387269       6.74686149       0.00000000 NULL
P        4.05742449       6.56717335       3.25096009       0.00000000 NULL
P        2.96793241       5.84941163       0.56412284       0.00000000 NULL
P        2.33159715       4.18262138       5.45184650       0.00000000 NULL
P        2.07720695       4.68597581       2.02817840       0.00000000 NULL
8
Lattice="4.517602729675749 0.0005307915309840171 8.842274369935621e-05 0.5829213333937798 5.771371752492771 0.0007248349358219021 1.4083556074404109 2.1192414421507992 6.898164248939118" Properties=species:S:1:pos:R:3:initial_magmoms:R:1:castep_labels:S:1 n_minim_iter=2 pbc="T T T"
P        3.51463316       6.58247912       5.38824052       0.00000000 NULL
P        2.03155848       6.49743556       2.92825191       0.00000000 NULL
P        4.06564750       3.59220660       3.05245101       0.00000000 NULL
P        6.20704669       5.78310092       6.74417653       0.00000000 NULL
P        4.05768236       6.56547814       3.25022023       0.00000000 NULL
P        2.96813046       5.84750440       0.56444576       0.00000000 NULL
P        2.33180872       4.18192565       5.44960392       0.00000000 NULL
P        2.07735089       4.68417573       2.02770194       0.00000000 NULL
8
Lattice="4.474036298429973 0.026624452122094404 0.0040810309088093934 0.6106484005115245 5.659066406612429 0.03654657977033433 1.413113181977073 2.127124267542823 6.738173292359501" Properties=species:S:1:pos:R:3:initial_magmoms:R:1:castep_labels:S:1 n_minim_iter=3 pbc="T T T"
P        3.52178149       6.49888947       5.30301252       0.00000000 NULL
P        2.04197377       6.40747860       2.89587214       0.00000000 NULL
P        4.04422836       3.56165505       3.00207664       0.00000000 NULL
P        6.18620924       5.74586239       6.61332293       0.00000000 NULL
P        4.07074571       6.48283578       3.21445454       0.00000000 NULL
P        2.97824681       5.75420385       0.58046142       0.00000000 NULL
P        2.34214059       4.14820020       5.34042381       0.00000000 NULL
P        2.08437304       4.59605569       2.00463633       0.00000000 NULL
8
Lattice="4.486071560780777 0.05066617392036325 -0.011913375742662272 0.6429196583605159 5.609089945929977 0.08146693231201368 1.4037097746482743 2.1712960375624206 6.702197897246302" Properties=species:S:1:pos:R:3:initial_magmoms:R:1:castep_labels:S:1 n_minim_iter=4 pbc="T T T"
P        3.54507773       6.49735503       5.31594557       0.00000000 NULL
P        2.06099173       6.39346454       2.92233579       0.00000000 NULL
P        4.05830530       3.57334670       2.99630355       0.00000000 NULL
P        6.20788903       5.78356457       6.59123757       0.00000000 NULL
P        4.11719106       6.47693243       3.23212680       0.00000000 NULL
P        3.02062561       5.72643753       0.60265606       0.00000000 NULL
P        2.35618146       4.16655560       5.32740548       0.00000000 NULL
P        2.10466583       4.55975168       2.02016889       0.00000000 NULL
8
Lattice="4.486672792392142 0.08953953842719421 -0.04659077722487271 0.6926688896347384 5.460802186472817 0.1345693484836386 1.3691626050146053 2.19596436498111 6.638853695119858" Properties=species:S:1:pos:R:3:initial_magmoms:R:1:castep_labels:S:1 n_minim_iter=5 pbc="T T T"
P        3.55724173       6.40148577       5.31326835       0.00000000 NULL
P        2.07970191       6.28219146       2.94239172       0.00000000 NULL
P        4.05748695       3.53915224       2.96941277       0.00000000 NULL
P        6.20320459       5.75531013       6.52954432       0.00000000 NULL
P        4.16721850       6.38147063       3.23298946       0.00000000 NULL
P        3.07587785       5.61132939       0.61323638       0.00000000 NULL
P        2.35955009       4.12950076       5.29218432       0.00000000 NULL
P        2.12487894       4.44324496       2.02822546       0.00000000 NULL
8
Lattice="4.516269198862379 0.10285291947343737 -0.10153823653952701 0.7134949874541658 5.2862075861307884 0.20092099023893262 1.3007050390688504 2.223180335214733 6.678013151717941" Properties=species:S:1:pos:R:3:initial_magmoms:R:1:castep_labels:S:1 n_minim_iter=6 pbc="T T T"
P        3.53026876       6.27606458       5.39500692       0.00000000 NULL
P        2.06211049       6.14148734       3.01766234       0.00000000 NULL
P        4.04836653       3.47320070       2.98013570       0.00000000 NULL
P        6.17301637       5.68864530       6.55918436       0.00000000 NULL
P        4.19108940       6.24734084       3.28145783       0.00000000 NULL
P        3.11542992       5.45703309       0.63075721       0.00000000 NULL
P        2.33231472       4.07524673       5.33860189       0.00000000 NULL
P        2.12227352       4.30322672       2.06842885       0.00000000 NULL
8
Lattice="4.520704530728558 0.09692962969926275 -0.11618728111080617 0.706497945452714 5.226815636939444 0.21574837273629355 1.2769348684354171 2.2197964669641586 6.6802844630041" Properties=species:S:1:pos:R:3:initial_magmoms:R:1:castep_labels:S:1 n_minim_iter=7 pbc="T T T"
P        3.50702112       6.21957292       5.40642331       0.00000000 NULL
P        2.04330838       6.08410184       3.03171041       0.00000000 NULL
P        4.03583214       3.43822653       2.97819611       0.00000000 NULL
P        6.14799667       5.64231502       6.55728573       0.00000000 NULL
P        4.17911301       6.18751181       3.28803348       0.00000000 NULL
P        3.11091958       5.39671756       0.63281324       0.00000000 NULL
P        2.31412061       4.04515453       5.34375968       0.00000000 NULL
P        2.11060260       4.25386517       2.07429583       0.00000000 NULL
8
Lattice="4.554694162357995 0.0703274899054125 -0.17848031565774172 0.6768868634328495 5.016947904743269 0.2778120412401562 1.1799074443879696 2.2195202844732225 6.7139883302946295" Properties=species:S:1:pos:R:3:initial_magmoms:R:1:castep_labels:S:1 n_minim_iter=8 pbc="T T T"
P        3.41815826       6.02685921       5.47104949       0.00000000 NULL
P        1.96890729       5.88637105       3.10137208       0.00000000 NULL
P        3.99604997       3.31550410       2.98008845       0.00000000 NULL
P        6.06076902       5.48450236       6.57237095       0.00000000 NULL
P        4.13851175       5.97816599       3.32625311       0.00000000 NULL
P        3.09985974       5.18159702       0.64406580       0.00000000 NULL
P        2.24211260       3.94666468       5.38423223       0.00000000 NULL
P        2.06649689       4.08030997       2.10517908       0.00000000 NULL
8
Lattice="4.68216697117038 0.017737789046257176 -0.3445086785392341 0.626117716472386 4.70677110008256 0.4173575003239633 0.9413848400860727 2.2841556591555703 6.858204331941028" Properties=species:S:1:pos:R:3:initial_magmoms:R:1:castep_labels:S:1 n_minim_iter=9 pbc="T T T"
P        3.23873213       5.78671925       5.65183180       0.00000000 NULL
P        1.81811659       5.62831963       3.28982587       0.00000000 NULL
P        3.94279716       3.15089361       2.99711881       0.00000000 NULL
P        5.90445272       5.30246189       6.64980801       0.00000000 NULL
P        4.08313970       5.69427574       3.42867747       0.00000000 NULL
P        3.11864607       4.86307401       0.66076462       0.00000000 NULL
P        2.07836442       3.84960710       5.52647341       0.00000000 NULL
P        1.98552820       3.82860171       2.18156089       0.00000000 NULL
8
Lattice="4.558228022529636 0.042367048437818564 -0.38672984100605523 0.6416149286978248 4.849087222457117 0.4402672140150957 0.8498206809916465 2.376789714734476 6.690981069446355" Properties=species:S:1:pos:R:3:initial_magmoms:R:1:castep_labels:S:1 n_minim_iter=10 pbc="T T T"
P        3.12847786       5.98718315       5.52460176       0.00000000 NULL
P        1.76611284       5.82202832       3.24457440       0.00000000 NULL
P        3.81946061       3.27140504       2.90678368       0.00000000 NULL
P        5.70056270       5.50979410       6.45903989       0.00000000 NULL
P        3.98416551       5.89941413       3.34965185       0.00000000 NULL
P        3.07268056       5.02874890       0.62635100       0.00000000 NULL
P        1.98433467       3.99359744       5.40968098       0.00000000 NULL
P        1.93003395       3.93900912       2.12454624       0.00000000 NULL
8
Lattice="4.664218488417624 0.033466002548441946 -0.39359238920398576 0.6439017098154689 4.7683452125483194 0.4115140947017208 0.8681979265362115 2.3114898581840597 6.668729868848864" Properties=species:S:1:pos:R:3:initial_magmoms:R:1:castep_labels:S:1 n_minim_iter=11 pbc="T T T"
P        3.19037631       5.86156986       5.48129858       0.00000000 NULL
P        1.79084120       5.71250435       3.20600534       0.00000000 NULL
P        3.90410145       3.19532359       2.88150250       0.00000000 NULL
P        5.82109623       5.38475355       6.41237270       0.00000000 NULL
P        4.07093508       5.78825913       3.30735153       0.00000000 NULL
P        3.13476846       4.94256528       0.58327160       0.00000000 NULL
P        2.02402968       3.90601106       5.38379310       0.00000000 NULL
P        1.95811895       3.86146078       2.09496449       0.00000000 NULL
8
Lattice="4.656558739434104 0.02658690166218725 -0.39935197566940134 0.6341244954480005 4.786491871150858 0.42102729403103056 0.8537874449873746 2.3285903544212125 6.6563978740443925" Properties=species:S:1:pos:R:3:initial_magmoms:R:1:castep_labels:S:1 n_minim_iter=12 pbc="T T T"
P        3.16792028       5.88562979       5.47748846       0.00000000 NULL
P        1.77209806       5.73785507       3.21090790       0.00000000 NULL
P        3.88725431       3.20440977       2.87763363       0.00000000 NULL
P        5.79141844       5.40734119       6.40207910       0.00000000 NULL
P        4.05344954       5.81231086       3.30859768       0.00000000 NULL
P        3.12192843       4.96035317       0.58180998       0.00000000 NULL
P        2.00683734       3.92661009       5.38160472       0.00000000 NULL
P        1.94306798       3.87290290       2.09245047       0.00000000 NULL
8
Lattice="4.656439739824533 0.021154102027980064 -0.40504826925912113 0.6271672168248955 4.7847797943018575 0.4205618029429967 0.8425020988990504 2.3268469066043522 6.630581178234355" Properties=species:S:1:pos:R:3:initial_magmoms:R:1:castep_labels:S:1 n_minim_iter=13 pbc="T T T"
P        3.15367095       5.87797615       5.45461620       0.00000000 NULL
P        1.75868515       5.73508481       3.19976579       0.00000000 NULL
P        3.87816699       3.19640456       2.86376517       0.00000000 NULL
P        5.77378791       5.39999161       6.37229519       0.00000000 NULL
P        4.04637839       5.80985173       3.29395585       0.00000000 NULL
P        3.11632868       4.95870096       0.56783063       0.00000000 NULL
P        1.99473981       3.92436376       5.36604897       0.00000000 NULL
P        1.93182016       3.86597310       2.07908626       0.00000000 NULL
8
Lattice="4.666892069813768 0.01696534167439431 -0.4137374867168859 0.6231620178199607 4.8071331346750865 0.42352199261905066 0.8305235617083622 2.3388208973089584 6.615419725178334" Properties=species:S:1:pos:R:3:initial_magmoms:R:1:castep_labels:S:1 n_minim_iter=14 pbc="T T T"
P        3.14642163       5.90042944       5.44165487       0.00000000 NULL
P        1.74893255       5.76202948       3.19636826       0.00000000 NULL
P        3.87693240       3.20500087       2.85511173       0.00000000 NULL
P        5.76651031       5.42372777       6.35380408       0.00000000 NULL
P        4.05177135       5.83987773       3.28654728       0.00000000 NULL
P        3.11992500       4.98470459       0.55184458       0.00000000 NULL
P        1.98545773       3.94391922       5.36313693       0.00000000 NULL
P        1.92355302       3.87763422       2.06794117       0.00000000 NULL
