22
Lattice="3.9067809568015446 0.0 0.0 0.0 9.96669538671529 -0.22702340567540033 0.0 -3.832305161049096 9.856715681960688" Properties=species:S:1:pos:R:3:initial_magmoms:R:1:castep_labels:S:1:forces:R:3 n_minim_iter=1 energy=-117.5665673297095 stress="-0.0017513392025020227 2.426822858429536e-12 -1.7513363826901344e-12 2.426822858429536e-12 -0.0003413974823658537 -0.0038353305102257983 -1.7513363826901344e-12 -0.0038353305102257983 -0.0013047971221407492" free_energy=-117.5665673297095 pbc="T T T"
P        2.87170051      -0.86402855       9.21509507       0.00000000 NULL       0.05956035      -0.05083477       0.10710373
P        1.03508045       4.11931915       9.10158336       0.00000000 NULL      -0.05956035      -0.05083477       0.10710373
P        3.89705101       4.95808475       1.66317223       0.00000000 NULL      -0.01988945      -0.03825004       0.05846520
P        0.00972995      -0.02526294       1.77668393       0.00000000 NULL       0.01988945      -0.03825004       0.05846520
P        1.69743348       0.26812074       3.23967069       0.00000000 NULL       0.07572765       0.21956626       0.03431887
P        2.20934748       5.25146843       3.12615898       0.00000000 NULL      -0.07572765       0.21956626       0.03431887
P        0.80472809       4.17974147       5.39064247       0.00000000 NULL      -0.19778495      -0.00742986      -0.16027910
P        3.10205287      -0.80360623       5.50415417       0.00000000 NULL       0.19778495      -0.00742986      -0.16027910
P        2.53698577       5.19856046      -0.11611254       0.00000000 NULL       0.06072487       0.06582686      -0.01971419
P        1.36979519       0.21521277      -0.00260084       0.00000000 NULL      -0.06072487       0.06582686      -0.01971419
P        3.75886013       2.68210280       1.54692503       0.00000000 NULL       0.10613868       0.01593535      -0.40420400
P        0.14792082       7.66545049       1.43341332       0.00000000 NULL      -0.10613868       0.01593535      -0.40420400
P        0.42911797       0.98100154       5.14482217       0.00000000 NULL       0.05062220      -0.17155547       0.11208839
P        3.47766298       5.96434923       5.03131046       0.00000000 NULL      -0.05062220      -0.17155547       0.11208839
P        1.98280622       2.52257790       2.86499689       0.00000000 NULL      -0.21141828      -0.20721585       0.15100001
P        1.92397474       7.50592559       2.75148519       0.00000000 NULL       0.21141828      -0.20721585       0.15100001
P        0.20825714       2.07367107       8.34239173       0.00000000 NULL       0.05872403       0.08617271       0.07108666
P        3.69852382      -2.90967662       8.45590344       0.00000000 NULL      -0.05872403       0.08617271       0.07108666
P        0.92014403      -2.59294464       6.60927785       0.00000000 NULL      -0.02491558       0.21331832       0.01721037
P        2.98663693       2.39040305       6.49576615       0.00000000 NULL       0.02491558       0.21331832       0.01721037
P        1.83035999       0.45298330       6.80464066       0.00000000 NULL      -0.04158543      -0.12553349       0.03292407
P        2.07642097       5.43633100       6.69112896       0.00000000 NULL       0.04158543      -0.12553349       0.03292407
22
Lattice="3.9199561655813495 0.0 0.0 0.0 9.971833346707575 -0.15399902724749248 0.0 -3.7621368382864855 9.853438457543128" Properties=species:S:1:pos:R:3:initial_magmoms:R:1:castep_labels:S:1:forces:R:3 n_minim_iter=2 energy=-117.58151896058959 stress="0.0021521068738559637 2.531730377086308e-12 -1.2629608368177045e-11 2.531730377086308e-12 0.0026224106165693094 -0.0002707186164464353 -1.2629608368177045e-11 -0.0002707186164464353 0.0031245311524355484" free_energy=-117.58151896058959 pbc="T T T"
P        2.88168703      -0.79682197       9.23264944       0.00000000 NULL       0.08608456       0.01391239       0.11441573
P        1.03826914       4.18909470       9.15564992       0.00000000 NULL      -0.08608456       0.01391239       0.11441573
P        3.91009255       4.97356542       1.70430308       0.00000000 NULL      -0.07921010      -0.02101095       0.06109242
P        0.00986361      -0.01235125       1.78130259       0.00000000 NULL       0.07921010      -0.02101095       0.06109242
P        1.70354188       0.29333957       3.25005723       0.00000000 NULL       0.00789358       0.17747077       0.05708596
P        2.21641428       5.27925625       3.17305772       0.00000000 NULL      -0.00789358       0.17747077       0.05708596
P        0.80643906       4.22236379       5.43438128       0.00000000 NULL      -0.10615180       0.08859751      -0.08131396
P        3.11351710      -0.76355288       5.51138079       0.00000000 NULL       0.10615180       0.08859751      -0.08131396
P        2.54584940       5.20158954      -0.07811510       0.00000000 NULL       0.09400591       0.04031369      -0.00995076
P        1.37410677       0.21567286      -0.00111559       0.00000000 NULL      -0.09400591       0.04031369      -0.00995076
P        3.77207468       2.69542564       1.56861135       0.00000000 NULL       0.08266885       0.01934405      -0.34159367
P        0.14788148       7.68134231       1.49161184       0.00000000 NULL      -0.08266885       0.01934405      -0.34159367
P        0.43082181       1.01880169       5.16568909       0.00000000 NULL       0.07957340      -0.11902861       0.09823016
P        3.48913435       6.00471836       5.08868957       0.00000000 NULL      -0.07957340      -0.11902861       0.09823016
P        1.98842101       2.54441743       2.89165589       0.00000000 NULL      -0.15571376      -0.23350115       0.09469070
P        1.93153516       7.53033410       2.81465638       0.00000000 NULL       0.15571376      -0.23350115       0.09469070
P        0.20925723       2.13713309       8.37924715       0.00000000 NULL       0.06980962       0.09666941       0.06055519
P        3.71069894      -2.84878358       8.45624667       0.00000000 NULL      -0.06980962       0.09666941       0.06055519
P        0.92312078      -2.54483079       6.60700383       0.00000000 NULL      -0.04738309       0.16792878      -0.02322275
P        2.99683538       2.44108589       6.53000432       0.00000000 NULL       0.04738309       0.16792878      -0.02322275
P        1.83632182       0.50290942       6.82542273       0.00000000 NULL       0.02504615      -0.23069589      -0.02998902
P        2.08363434       5.48882609       6.74842322       0.00000000 NULL      -0.02504615      -0.23069589      -0.02998902
22
Lattice="3.9158185861632075 0.0 0.0 0.0 9.946073734390806 -0.12397215136841291 0.0 -3.7233288071655983 9.818652401795926" Properties=species:S:1:pos:R:3:initial_magmoms:R:1:castep_labels:S:1:forces:R:3 n_minim_iter=3 energy=-117.58724366806067 stress="-0.0008577258271082079 5.8569528848496015e-12 1.785610668368249e-12 5.8569528848496015e-12 -0.0011843945965309252 0.0010189391970301539 1.785610668368249e-12 0.0010189391970301539 -1.6320689227242876e-06" free_energy=-117.58724366806067 pbc="T T T"
P        2.87899560      -0.76742904       9.20868497       0.00000000 NULL       0.08519760       0.03676597       0.07874196
P        1.03682298       4.20560783       9.14669890       0.00000000 NULL      -0.08519760       0.03676597       0.07874195
P        3.90570768       4.96588242       1.71528998       0.00000000 NULL      -0.03152301       0.01024653       0.06871174
P        0.01011091      -0.00715445       1.77727606       0.00000000 NULL       0.03152301       0.01024653       0.06871174
P        1.70190583       0.30314654       3.24338153       0.00000000 NULL       0.01050619       0.12389668       0.09303946
P        2.21391276       5.27618341       3.18139545       0.00000000 NULL      -0.01050619       0.12389668       0.09303946
P        0.80492602       4.22801343       5.43340757       0.00000000 NULL      -0.07650502       0.04365055      -0.08518322
P        3.11089257      -0.74502343       5.49539364       0.00000000 NULL       0.07650502       0.04365055      -0.08518322
P        2.54353670       5.18839122      -0.06251836       0.00000000 NULL       0.04083023       0.05345648      -0.00954048
P        1.37228188       0.21535435      -0.00053228       0.00000000 NULL      -0.04083023       0.05345648      -0.00954048
P        3.76852005       2.69330311       1.57117697       0.00000000 NULL       0.09401869      -0.01455676      -0.31389416
P        0.14729854       7.66633998       1.50919089       0.00000000 NULL      -0.09401869      -0.01455676      -0.31389416
P        0.43068263       1.03091860       5.15681942       0.00000000 NULL       0.07754487      -0.05038157       0.04642927
P        3.48513596       6.00395547       5.09483335       0.00000000 NULL      -0.07754487      -0.05038156       0.04642927
P        1.98549692       2.54552778       2.89282514       0.00000000 NULL      -0.14298847      -0.21511040       0.11531083
P        1.93032167       7.51856465       2.83083906       0.00000000 NULL       0.14298847      -0.21511040       0.11531083
P        0.20933966       2.15702535       8.36584296       0.00000000 NULL       0.11071407       0.08748177       0.07071517
P        3.70647893      -2.81601151       8.42782904       0.00000000 NULL      -0.11071407       0.08748177       0.07071517
P        0.92196818      -2.51789530       6.58359225       0.00000000 NULL      -0.04257558       0.20201531      -0.08775283
P        2.99385040       2.45514157       6.52160618       0.00000000 NULL       0.04257558       0.20201531      -0.08775283
P        1.83437651       0.52103190       6.81053674       0.00000000 NULL       0.03314422      -0.27746456       0.02342228
P        2.08144208       5.49406876       6.74855067       0.00000000 NULL      -0.03314422      -0.27746456       0.02342228
22
Lattice="3.93511117088029 0.0 0.0 0.0 9.977661931851054 -0.12217027472674324 0.0 -3.735412872617408 9.743139601976551" Properties=species:S:1:pos:R:3:initial_magmoms:R:1:castep_labels:S:1:forces:R:3 n_minim_iter=4 energy=-117.60553200198481 stress="0.0013322157474488238 -6.867583941292061e-12 1.4163091053105209e-12 -6.867583941292061e-12 0.0024925854485835343 0.0005817397710282094 1.4163091053105209e-12 0.0005817397710282094 -0.004170412713373234" free_energy=-117.60553200198481 pbc="T T T"
P        2.89649780      -0.76930119       9.14175786       0.00000000 NULL       0.06844242       0.04850671      -0.00003828
P        1.03861337       4.21952978       9.08067273       0.00000000 NULL      -0.06844242       0.04850670      -0.00003828
P        3.92330681       4.98149242       1.70520047       0.00000000 NULL      -0.02567785      -0.05704058       0.09258801
P        0.01180436      -0.00733855       1.76628561       0.00000000 NULL       0.02567785      -0.05704058       0.09258801
P        1.71109515       0.31014553       3.22172477       0.00000000 NULL      -0.00795831       0.09479220       0.08447505
P        2.22401602       5.29897649       3.16063963       0.00000000 NULL       0.00795831       0.09479220       0.08447505
P        0.80476497       4.24308102       5.38836512       0.00000000 NULL      -0.10688633       0.04868704      -0.08107267
P        3.13034620      -0.74574995       5.44945026       0.00000000 NULL       0.10688633       0.04868704      -0.08107268
P        2.55833401       5.20697479      -0.06200377       0.00000000 NULL       0.05779520       0.03286538      -0.02500187
P        1.37677716       0.21814382      -0.00091863       0.00000000 NULL      -0.05779520       0.03286538      -0.02500187
P        3.79088469       2.70147395       1.54600923       0.00000000 NULL      -0.00042634       0.03891960      -0.10338672
P        0.14422648       7.69030492       1.48492409       0.00000000 NULL       0.00042634       0.03891960      -0.10338672
P        0.43581342       1.03071428       5.12007829       0.00000000 NULL       0.04447849      -0.06031049       0.01582350
P        3.49929776       6.01954525       5.05899315       0.00000000 NULL      -0.04447849      -0.06031049       0.01582350
P        1.98892455       2.54482678       2.87537659       0.00000000 NULL       0.00483288      -0.17356325       0.00861095
P        1.94618662       7.53365775       2.81429145       0.00000000 NULL      -0.00483288      -0.17356325       0.00861095
P        0.21418678       2.16730752       8.30476959       0.00000000 NULL       0.07201340       0.08148778       0.05308416
P        3.72092439      -2.82152345       8.36585473       0.00000000 NULL      -0.07201340       0.08148778       0.05308416
P        0.92484275      -2.51820383       6.53079983       0.00000000 NULL      -0.00306795       0.08663477      -0.10485053
P        3.01026842       2.47062714       6.46971469       0.00000000 NULL       0.00306795       0.08663477      -0.10485053
P        1.84423082       0.51267252       6.75875455       0.00000000 NULL       0.08793355      -0.14097915       0.05976841
P        2.09088035       5.50150349       6.69766941       0.00000000 NULL      -0.08793354      -0.14097915       0.05976841
22
Lattice="3.935169107503962 0.0 0.0 0.0 9.940297101775808 -0.13692252187436982 0.0 -3.734619620674989 9.787722560768794" Properties=species:S:1:pos:R:3:initial_magmoms:R:1:castep_labels:S:1:forces:R:3 n_minim_iter=5 energy=-117.61782818996036 stress="0.003310134348724418 2.2599319837466752e-12 -1.1383307219734738e-11 2.2599319837466752e-12 -0.0030678575112499033 -0.0005254155084047712 -1.1383307219734738e-11 -0.0005254155084047712 -0.000668523892584107" free_energy=-117.61782818996036 pbc="T T T"
P        2.89917573      -0.77801794       9.18214673       0.00000000 NULL       0.05223790       0.02926207       0.00946157
P        1.03599338       4.19213061       9.11368547       0.00000000 NULL      -0.05223790       0.02926207       0.00946157
P        3.92209966       4.96002645       1.70724730       0.00000000 NULL      -0.03652967      -0.02115282       0.06498050
P        0.01306945      -0.01012210       1.77570856       0.00000000 NULL       0.03652967      -0.02115282       0.06498050
P        1.71160304       0.30924533       3.23687907       0.00000000 NULL      -0.01867289      -0.00946146       0.05474165
P        2.22356607       5.27939388       3.16841781       0.00000000 NULL       0.01867289      -0.00946146       0.05474165
P        0.80137828       4.22127562       5.40099188       0.00000000 NULL      -0.07798749      -0.07376288      -0.08266299
P        3.13379083      -0.74887293       5.46945314       0.00000000 NULL       0.07798749      -0.07376288      -0.08266299
P        2.56024427       5.18906523      -0.07011434       0.00000000 NULL       0.05870516       0.08224248       0.01252306
P        1.37492484       0.21891667      -0.00165308       0.00000000 NULL      -0.05870516       0.08224248       0.01252306
P        3.79347498       2.68921654       1.53879905       0.00000000 NULL      -0.06643982      -0.00137583       0.00249735
P        0.14169413       7.65936509       1.47033779       0.00000000 NULL       0.06643982      -0.00137583       0.00249735
P        0.43810419       1.01728414       5.14110901       0.00000000 NULL       0.09087244       0.02433101       0.04534877
P        3.49706491       5.98743269       5.07264775       0.00000000 NULL      -0.09087244       0.02433101       0.04534877
P        1.98473679       2.52450014       2.88636623       0.00000000 NULL       0.06637851      -0.03515382      -0.11407799
P        1.95043232       7.49464869       2.81790497       0.00000000 NULL      -0.06637851      -0.03515382      -0.11407799
P        0.21717446       2.15077941       8.33732584       0.00000000 NULL       0.00121473       0.03835509      -0.04226918
P        3.71799465      -2.81936914       8.40578710       0.00000000 NULL      -0.00121473       0.03835509      -0.04226918
P        0.92371938      -2.51188181       6.55864211       0.00000000 NULL      -0.06352187       0.06215337       0.00442989
P        3.01144973       2.45826674       6.49018085       0.00000000 NULL       0.06352187       0.06215337       0.00442989
P        1.84534105       0.49415627       6.78580034       0.00000000 NULL       0.10323278      -0.09543721       0.04502735
P        2.08982806       5.46430482       6.71733908       0.00000000 NULL      -0.10323278      -0.09543721       0.04502735
22
Lattice="3.884504640176611 0.0 0.0 0.0 9.993230344888154 -0.13637327214252468 0.0 -3.7529071688828837 9.854570822172615" Properties=species:S:1:pos:R:3:initial_magmoms:R:1:castep_labels:S:1:forces:R:3 n_minim_iter=6 energy=-117.63304521988027 stress="-0.0006221916252244932 1.0282889171976877e-11 5.0463077178738964e-12 1.0282889171976877e-11 -9.753100625601419e-05 5.9828786497341975e-05 5.0463077178738964e-12 5.9828786497341975e-05 -0.00025379640307981197" free_energy=-117.63304521988027 pbc="T T T"
P        2.86573771      -0.77928825       9.24860998       0.00000000 NULL       0.01559489       0.09594022       0.00733017
P        1.01876693       4.21732692       9.18042334       0.00000000 NULL      -0.01559489       0.09594022       0.00733017
P        3.86959512       4.98598954       1.72337564       0.00000000 NULL       0.06720641      -0.12226491       0.00045947
P        0.01490952      -0.01062564       1.79156228       0.00000000 NULL      -0.06720641      -0.12226491       0.00045948
P        1.68999349       0.31744140       3.26315874       0.00000000 NULL       0.04238420      -0.02683095       0.06399297
P        2.19451115       5.31405657       3.19497210       0.00000000 NULL      -0.04238420      -0.02683095       0.06399297
P        0.78594662       4.24591041       5.43408791       0.00000000 NULL      -0.06330985      -0.15482447      -0.04084955
P        3.09855802      -0.75070476       5.50227454       0.00000000 NULL       0.06330985      -0.15482447      -0.04084955
P        2.53028305       5.21955909      -0.07023151       0.00000000 NULL      -0.04767337      -0.01272437       0.01080043
P        1.35422159       0.22294392      -0.00204488       0.00000000 NULL       0.04767337      -0.01272437       0.01080043
P        3.74723434       2.70381234       1.53729445       0.00000000 NULL      -0.04975910       0.07980388       0.06462206
P        0.13727030       7.70042751       1.46910781       0.00000000 NULL       0.04975910       0.07980388       0.06462206
P        0.43627321       1.02038259       5.17959280       0.00000000 NULL       0.07530640       0.10648391       0.04971188
P        3.44823143       6.01699776       5.11140616       0.00000000 NULL      -0.07530640       0.10648391       0.04971188
P        1.95441951       2.52911170       2.90948234       0.00000000 NULL       0.04538382       0.01790193      -0.14807697
P        1.93008513       7.52572687       2.84129570       0.00000000 NULL      -0.04538382       0.01790193      -0.14807697
P        0.21819911       2.16779753       8.39754638       0.00000000 NULL       0.07534531       0.12521658      -0.11562316
P        3.66630553      -2.82881764       8.46573302       0.00000000 NULL      -0.07534531       0.12521658      -0.11562316
P        0.90975266      -2.51612095       6.60081566       0.00000000 NULL      -0.08151982      -0.00298417       0.06440692
P        2.97475198       2.48049422       6.53262902       0.00000000 NULL       0.08151982      -0.00298417       0.06440692
P        1.82397448       0.48734801       6.83371429       0.00000000 NULL       0.16626790      -0.10571765       0.04322576
P        2.06053016       5.48396318       6.76552765       0.00000000 NULL      -0.16626790      -0.10571765       0.04322576
22
Lattice="3.850471414309999 0.0 0.0 0.0 10.011729305464106 -0.12093451022681866 0.0 -3.7436007900092143 9.905103139568649" Properties=species:S:1:pos:R:3:initial_magmoms:R:1:castep_labels:S:1:forces:R:3 n_minim_iter=7 energy=-117.66987140598675 stress="-0.0002445161320054631 2.9379669068202036e-13 6.0295339807759945e-12 2.9379669068202036e-13 -0.0007072219227753752 0.00013842759795842496 6.0295339807759945e-12 0.00013842759795842496 -0.0003926234189259743" free_energy=-117.66987140598675 pbc="T T T"
P        2.84916434      -0.75124056       9.30784141       0.00000000 NULL      -0.04196508       0.13926169      -0.07104673
P        1.00130708       4.25462409       9.24737415       0.00000000 NULL       0.04196508       0.13926169      -0.07104673
P        3.83982655       4.98143543       1.74725197       0.00000000 NULL       0.02508821       0.00109509      -0.02518362
P        0.01064486      -0.02442922       1.80771922       0.00000000 NULL      -0.02508821       0.00109509      -0.02518362
P        1.68091568       0.33089096       3.29680934       0.00000000 NULL       0.02139934      -0.10722592      -0.02363167
P        2.16955574       5.33675562       3.23634208       0.00000000 NULL      -0.02139934      -0.10722592      -0.02363167
P        0.76254148       4.24592912       5.45865628       0.00000000 NULL      -0.12733438      -0.00233497       0.01102427
P        3.08792993      -0.75993553       5.51912354       0.00000000 NULL       0.12733438      -0.00233497       0.01102427
P        2.50804227       5.23253488      -0.06145079       0.00000000 NULL       0.04401503       0.07220635      -0.01413354
P        1.34242914       0.22667022      -0.00098353       0.00000000 NULL      -0.04401503       0.07220635      -0.01413354
P        3.71249792       2.72181716       1.53721767       0.00000000 NULL       0.01766171      -0.04183615       0.11095715
P        0.13797349       7.72768182       1.47675042       0.00000000 NULL      -0.01766171      -0.04183615       0.11095715
P        0.44825995       1.03841329       5.22315463       0.00000000 NULL       0.05483305      -0.06292053       0.08006152
P        3.40221147       6.04427794       5.16268737       0.00000000 NULL      -0.05483305      -0.06292053       0.08006152
P        1.93476314       2.52457277       2.91612280       0.00000000 NULL      -0.02664788       0.10990884      -0.12704475
P        1.91570827       7.53043742       2.85565555       0.00000000 NULL       0.02664787       0.10990884      -0.12704475
P        0.23138325       2.20836218       8.43907967       0.00000000 NULL       0.08367100       0.01147045       0.09079047
P        3.61908817      -2.79750247       8.49954693       0.00000000 NULL      -0.08367100       0.01147045       0.09079047
P        0.88812611      -2.49666355       6.63908652       0.00000000 NULL      -0.04757915      -0.01307070      -0.02833436
P        2.96234531       2.50920110       6.57861927       0.00000000 NULL       0.04757915      -0.01307070      -0.02833436
P        1.83230272       0.46873408       6.88014091       0.00000000 NULL       0.14300573      -0.10655415      -0.00345875
P        2.01816870       5.47459873       6.81967366       0.00000000 NULL      -0.14300573      -0.10655415      -0.00345875
22
Lattice="3.7912228006883257 0.0 0.0 0.0 10.046216246492436 -0.059188618344226694 0.0 -3.6938333648109913 9.991303715890405" Properties=species:S:1:pos:R:3:initial_magmoms:R:1:castep_labels:S:1:forces:R:3 n_minim_iter=8 energy=-117.75061124714333 stress="-0.00042153210815615126 -1.178145552811589e-12 -8.543293030439655e-12 -1.178145552811589e-12 -0.0024773649767201276 0.00036475765507114035 -8.543293030439655e-12 0.00036475765507114035 0.000834774158212918" free_energy=-117.75061124714333 pbc="T T T"
P        2.81203405      -0.63323713       9.40549240       0.00000000 NULL      -0.06111640       0.05776729      -0.21536890
P        0.97918875       4.38987099       9.37589809       0.00000000 NULL       0.06111640       0.05776729      -0.21536890
P        3.79023894       4.98149286       1.80366818       0.00000000 NULL      -0.00759526       0.23830026       0.08860527
P        0.00098386      -0.04161526       1.83326249       0.00000000 NULL       0.00759526       0.23830026       0.08860527
P        1.67092881       0.34641423       3.35443799       0.00000000 NULL      -0.03268096       0.00760146      -0.18882278
P        2.12029399       5.36952235       3.32484368       0.00000000 NULL       0.03268096       0.00760146      -0.18882278
P        0.68431188       4.27283829       5.52188318       0.00000000 NULL       0.01957526      -0.26591627       0.13830944
P        3.10691092      -0.75026983       5.55147749       0.00000000 NULL      -0.01957525      -0.26591627       0.13830944
P        2.48574354       5.27771969      -0.03243679       0.00000000 NULL       0.03637976       0.19664133       0.01024816
P        1.30547926       0.25461157      -0.00284248       0.00000000 NULL      -0.03637976       0.19664133       0.01024816
P        3.66214300       2.74811782       1.56075492       0.00000000 NULL       0.06259764      -0.11575838      -0.01237470
P        0.12907980       7.77122594       1.53116061       0.00000000 NULL      -0.06259764      -0.11575838      -0.01237470
P        0.48407439       1.06241567       5.33486434       0.00000000 NULL       0.28872908       0.10314027      -0.08509291
P        3.30714841       6.08552380       5.30527003       0.00000000 NULL      -0.28872908       0.10314027      -0.08509291
P        1.88466156       2.54528587       2.91261444       0.00000000 NULL      -0.15839302      -0.06361256       0.10709241
P        1.90656124       7.56839399       2.88302013       0.00000000 NULL       0.15839302      -0.06361256       0.10709241
P        0.27767224       2.31556401       8.56052988       0.00000000 NULL       0.04024916      -0.03893118      -0.02683164
P        3.51355056      -2.70754412       8.59012419       0.00000000 NULL      -0.04024916      -0.03893117      -0.02683164
P        0.83876608      -2.43641289       6.69474336       0.00000000 NULL      -0.22266864      -0.08314628       0.03458238
P        2.95245672       2.58669524       6.66514906       0.00000000 NULL       0.22266864      -0.08314628       0.03458238
P        1.88056926       0.42335516       6.96611254       0.00000000 NULL       0.01287744      -0.03608595       0.14965326
P        1.91065354       5.44646328       6.93651823       0.00000000 NULL      -0.01287744      -0.03608595       0.14965326
22
Lattice="3.730122299458591 0.0 0.0 0.0 10.042474981485565 0.003921440473658371 0.0 -3.627863110468458 10.084289079751812" Properties=species:S:1:pos:R:3:initial_magmoms:R:1:castep_labels:S:1:forces:R:3 n_minim_iter=9 energy=-117.8267697177428 stress="-0.0019400816465503566 1.5356976700942962e-11 -2.8669625982237553e-12 1.5356976700942962e-11 -0.005415234381810242 0.0019421889795351146 -2.8669625982237553e-12 0.0019421889795351146 0.0024971044946607113" free_energy=-117.8267697177428 pbc="T T T"
P        2.76840860      -0.50856911       9.48910254       0.00000000 NULL      -0.08266895      -0.02709007      -0.26848003
P        0.96171370       4.51266838       9.49106326       0.00000000 NULL       0.08266895      -0.02709007      -0.26848003
P        3.73761085       4.98355248       1.87307704       0.00000000 NULL      -0.00808247       0.22810436       0.01663407
P       -0.00748855      -0.03768501       1.87111632       0.00000000 NULL       0.00808247       0.22810436       0.01663407
P        1.65665644       0.36634042       3.39575900       0.00000000 NULL      -0.02928143      -0.06916380      -0.19005879
P        2.07346586       5.38757791       3.39771972       0.00000000 NULL       0.02928143      -0.06916380      -0.19005879
P        0.61033416       4.25933939       5.60180537       0.00000000 NULL       0.03395385      -0.04178903       0.30240573
P        3.11978814      -0.76189810       5.59984465       0.00000000 NULL      -0.03395385      -0.04178902       0.30240573
P        2.46454571       5.31907645      -0.00122385       0.00000000 NULL      -0.01267553       0.18285149       0.04020012
P        1.26557659       0.29783896      -0.00318457       0.00000000 NULL       0.01267554       0.18285149       0.04020012
P        3.61393070       2.75676695       1.58375465       0.00000000 NULL      -0.00611817      -0.03391067      -0.09124273
P        0.11619160       7.77800444       1.58571537       0.00000000 NULL       0.00611817      -0.03391067      -0.09124273
P        0.54244979       1.09342644       5.44136701       0.00000000 NULL       0.09756285      -0.13061194      -0.08567190
P        3.18767251       6.11466393       5.44332773       0.00000000 NULL      -0.09756285      -0.13061194      -0.08567190
P        1.82199402       2.54639296       2.92290813       0.00000000 NULL      -0.09404013       0.02682124       0.21078176
P        1.90812828       7.56763045       2.92486885       0.00000000 NULL       0.09404013       0.02682124       0.21078176
P        0.32411870       2.41349296       8.68411598       0.00000000 NULL       0.12452290      -0.00666747      -0.03192111
P        3.40600360      -2.60774453       8.68215526       0.00000000 NULL      -0.12452290      -0.00666747      -0.03192111
P        0.77194549      -2.37608120       6.75932801       0.00000000 NULL      -0.22207691      -0.05706649      -0.09120685
P        2.95817681       2.64515629       6.76128873       0.00000000 NULL       0.22207691      -0.05706649      -0.09120685
P        1.92486822       0.38028320       7.07241840       0.00000000 NULL      -0.07837536      -0.07147763       0.18855972
P        1.80525408       5.40152069       7.07437912       0.00000000 NULL       0.07837536      -0.07147763       0.18855972
22