18
Lattice="5.308488806274636 0.0 0.0 0.0 5.998914166213201 -0.5799951317710983 0.0 -2.42384590944318 15.013237299214905" Properties=species:S:1:pos:R:3:initial_magmoms:R:1:castep_labels:S:1:forces:R:3 n_minim_iter=1 energy=-88.67833304679972 stress="0.0006219080212276067 4.1106242097580874e-12 -3.9725842660922875e-12 4.1106242097580874e-12 -0.001087521681654089 -0.0011227012176792655 -3.9725842660922875e-12 -0.0011227012176792655 -0.0008892841293653285" free_energy=-88.67833304679972 pbc="T T T"
P        1.06317024       4.52760310       0.61520592       0.00000000 NULL      -0.32877273       0.12799819      -0.79207288
P        1.06317024      -0.95253484      13.81803625       0.00000000 NULL      -0.32877273      -0.12799819       0.79207288
P        2.34071474       1.29516541      13.75332054       0.00000000 NULL       0.50425348       0.69305082       0.49291228
P        2.34071474       2.27990286       0.67992162       0.00000000 NULL       0.50425348      -0.69305082      -0.49291228
P        2.25787526       1.59481425       8.25528624       0.00000000 NULL      -0.06249937      -0.00324895      -0.05369249
P        2.25787526       1.98025402       6.17795592       0.00000000 NULL      -0.06249937       0.00324895       0.05369249
P        0.63613256       2.58536003       1.96596963       0.00000000 NULL      -0.20958763       0.18052257      -0.00331506
P        0.63613256       0.98970824      12.46727254       0.00000000 NULL      -0.20958763      -0.18052257       0.00331506
P        3.60486334       0.60143175       5.30458309       0.00000000 NULL       0.56556095      -0.20318621      -0.50930354
P        3.60486334       2.97363651       9.12865908       0.00000000 NULL       0.56556095       0.20318621       0.50930354
P        1.73190899       0.50505181       2.11030654       0.00000000 NULL       0.32869101      -0.40915464       0.19551648
P        1.73190899       3.07001645      12.32293563       0.00000000 NULL       0.32869101       0.40915464      -0.19551648
P        0.04443292      -0.17358120       7.85854541       0.00000000 NULL      -0.72074849      -0.43447175      -0.38258537
P        0.04443292       3.74864946       6.57469676       0.00000000 NULL      -0.72074849       0.43447175       0.38258537
P        1.87800277      -0.43075529       8.89872198       0.00000000 NULL       0.52317759       0.25732273       0.28350664
P        1.87800277       4.00582356       5.53452019       0.00000000 NULL       0.52317759      -0.25732273      -0.28350664
P        1.76389277       3.27364501      10.14887405       0.00000000 NULL      -0.60007482       0.64451242       0.27695216
P        1.76389277       0.30142326       4.28436812       0.00000000 NULL      -0.60007482      -0.64451242      -0.27695216
18
Lattice="5.245999827847267 0.0 0.0 0.0 6.113190259758973 -0.4593515137922454 0.0 -2.1480693683354293 15.220301409097273" Properties=species:S:1:pos:R:3:initial_magmoms:R:1:castep_labels:S:1:forces:R:3 n_minim_iter=2 energy=-88.90700963845285 stress="0.016059740245845618 -2.7874373417221223e-12 -7.449859603067715e-12 -2.7874373417221223e-12 0.014694376648261516 0.0004726021085268554 -7.449859603067715e-12 0.0004726021085268554 0.013516133501425144" free_energy=-88.90700963845285 pbc="T T T"
P        1.03751065       4.64137926       0.69199933       0.00000000 NULL      -0.17311963       0.05716155      -0.57073173
P        1.03751065      -0.67625836      14.06895057       0.00000000 NULL      -0.17311963      -0.05716155       0.57073173
P        2.33332123       1.65123960      14.04049061       0.00000000 NULL      -0.04719401       0.68068818       0.13889608
P        2.33332123       2.31388130       0.72045929       0.00000000 NULL      -0.04719401      -0.68068818      -0.13889607
P        2.22879789       1.80820862       8.43070754       0.00000000 NULL       0.37681612       0.63550315       0.21258157
P        2.22879789       2.15691228       6.33024236       0.00000000 NULL       0.37681612      -0.63550315      -0.21258157
P        0.62026491       2.69033742       2.05634208       0.00000000 NULL       0.36945719       0.07288004      -0.57152239
P        0.62026491       1.27478347      12.70460781       0.00000000 NULL       0.36945719      -0.07288004       0.57152239
P        3.58503997       0.72086968       5.38836225       0.00000000 NULL      -0.34369703       0.22129203      -0.32256268
P        3.58503997       3.24425122       9.37258764       0.00000000 NULL      -0.34369703      -0.22129203       0.32256268
P        1.72466298       0.54497741       2.16552264       0.00000000 NULL       0.15723301      -0.34147071       0.50330587
P        1.72466298       3.42014349      12.59542726       0.00000000 NULL       0.15723301       0.34147071      -0.50330587
P        0.01509406      -0.02434591       7.97465974       0.00000000 NULL      -0.15782945      -0.77484581      -0.37519720
P        0.01509406       3.98946681       6.78629015       0.00000000 NULL      -0.15782945       0.77484581       0.37519720
P        1.87681267      -0.23513424       9.05526246       0.00000000 NULL       0.08467169       0.30585509      -0.00921368
P        1.87681267       4.20025514       5.70568743       0.00000000 NULL       0.08467169      -0.30585509       0.00921368
P        1.71913784       3.59085890      10.40782325       0.00000000 NULL      -0.26633788       0.45886100       0.25843166
P        1.71913784       0.37426200       4.35312665       0.00000000 NULL      -0.26633788      -0.45886100      -0.25843166
18
Lattice="4.9324554743594184 0.0 0.0 0.0 6.127352314933736 -0.21389761850033753 0.0 -1.5465511385564412 15.147413372013858" Properties=species:S:1:pos:R:3:initial_magmoms:R:1:castep_labels:S:1:forces:R:3 n_minim_iter=3 energy=-89.4597668289069 stress="0.013619057610121579 -1.7608317244840266e-12 7.105628511281656e-12 -1.7608317244840266e-12 0.00906048761005851 0.009288962891632406 7.105628511281656e-12 0.009288962891632406 0.013344754742699538" free_energy=-89.4597668289069 pbc="T T T"
P        0.95083793       4.70048655       0.81390610       0.00000000 NULL      -0.04928872       0.13832575      -0.21083662
P        0.95083793      -0.11968537      14.11960965       0.00000000 NULL      -0.04928872      -0.13832575       0.21083662
P        2.23025360       2.28723379      14.16302357       0.00000000 NULL      -0.08219775       0.92999117      -0.16694840
P        2.23025360       2.29356739       0.77049219       0.00000000 NULL      -0.08219775      -0.92999117       0.16694840
P        2.09277836       2.16031897       8.50799625       0.00000000 NULL       0.46162072       1.49845862       0.92219968
P        2.09277836       2.42048221       6.42551950       0.00000000 NULL       0.46162072      -1.49845862      -0.92219968
P        0.56967262       2.80214263       2.16405623       0.00000000 NULL       0.40725590       0.45560507      -0.81246092
P        0.56967262       1.77865855      12.76945952       0.00000000 NULL       0.40725590      -0.45560507       0.81246092
P        3.41024942       0.92394571       5.37900636       0.00000000 NULL      -0.38069727       0.61850641       0.06680777
P        3.41024942       3.65685547       9.55450939       0.00000000 NULL      -0.38069727      -0.61850641      -0.06680777
P        1.64616652       0.60164318       2.20538334       0.00000000 NULL       0.09296024      -0.63169586       0.27369237
P        1.64616652       3.97915801      12.72813241       0.00000000 NULL       0.09296024       0.63169586      -0.27369237
P       -0.03885686       0.25571327       7.94587756       0.00000000 NULL      -0.04553860      -0.58857091      -0.34144518
P       -0.03885686       4.32508791       6.98763819       0.00000000 NULL      -0.04553860       0.58857091       0.34144518
P        1.80300874       0.15196111       9.07776170       0.00000000 NULL      -0.10620602      -0.60401427      -0.11383616
P        1.80300874       4.42884007       5.85575405       0.00000000 NULL      -0.10620602       0.60401427       0.11383616
P        1.57160183       4.08484061      10.58823172       0.00000000 NULL      -0.29790850       0.39533073       0.12530021
P        1.57160183       0.49596058       4.34528403       0.00000000 NULL      -0.29790850      -0.39533073      -0.12530021
18
Lattice="4.654301317455833 0.0 0.0 0.0 6.293035794036615 -0.2805158714116179 0.0 -1.791626420381065 15.029414592928516" Properties=species:S:1:pos:R:3:initial_magmoms:R:1:castep_labels:S:1:forces:R:3 n_minim_iter=4 energy=-89.98460265160882 stress="0.005922415498954146 -2.1845350912112822e-12 8.22870610797524e-12 -2.1845350912112822e-12 0.01391871818914283 0.0023015582427949456 8.22870610797524e-12 0.0023015582427949456 0.008751354816528634" free_energy=-89.98460265160882 pbc="T T T"
P        0.87553828       4.82312909       0.69422040       0.00000000 NULL      -0.11429419      -0.00579631       0.50854485
P        0.87553828      -0.32171971      14.05467832       0.00000000 NULL      -0.11429419       0.00579631      -0.50854485
P        2.13761102       2.22338599      14.04970909       0.00000000 NULL      -0.06511219       0.79056036      -0.14648128
P        2.13761102       2.27802339       0.69918963       0.00000000 NULL      -0.06511219      -0.79056036       0.14648128
P        1.97353557       2.12082603       8.41650001       0.00000000 NULL       0.22068288       0.68106713       1.22422919
P        1.97353557       2.38058335       6.33239871       0.00000000 NULL       0.22068288      -0.68106714      -1.22422919
P        0.52595008       2.86683099       2.10709783       0.00000000 NULL       0.55909426       0.63213215      -1.10397233
P        0.52595008       1.63457839      12.64180089       0.00000000 NULL       0.55909426      -0.63213215       1.10397233
P        3.25350965       0.86517293       5.28413948       0.00000000 NULL      -0.20163106       0.72720530       0.23192892
P        3.25350965       3.63623645       9.46475924       0.00000000 NULL      -0.20163106      -0.72720530      -0.23192892
P        1.57553731       0.54930585       2.19235002       0.00000000 NULL      -0.09263506      -0.46812051      -0.46215010
P        1.57553731       3.95210354      12.55654870       0.00000000 NULL      -0.09263506       0.46812051       0.46215010
P       -0.08461519       0.11523891       7.83801137       0.00000000 NULL      -0.11202812       0.12449218       0.05274914
P       -0.08461519       4.38617047       6.91088735       0.00000000 NULL      -0.11202812      -0.12449218      -0.05274914
P        1.73484138       0.04522113       9.01536962       0.00000000 NULL       0.02060579       0.03744853      -0.17461256
P        1.73484138       4.45618825       5.73352910       0.00000000 NULL       0.02060579      -0.03744853       0.17461256
P        1.44101475       4.10649655      10.47236612       0.00000000 NULL      -0.21468232       0.60645981      -0.35045990
P        1.44101475       0.39491283       4.27653260       0.00000000 NULL      -0.21468232      -0.60645981       0.35045990
18
Lattice="4.664539675968302 0.0 0.0 0.0 6.1760736698318555 -0.3030748691852145 0.0 -1.7995283262912205 15.042832921399087" Properties=species:S:1:pos:R:3:initial_magmoms:R:1:castep_labels:S:1:forces:R:3 n_minim_iter=5 energy=-90.18368036233305 stress="0.009210455404320934 -4.7072802168733506e-12 3.1207989642267574e-14 -4.7072802168733506e-12 0.00198047463938315 0.0010046442079218205 3.1207989642267574e-14 0.0010046442079218205 0.010379636192514662" free_energy=-90.18368036233305 pbc="T T T"
P        0.86702111       4.73513126       0.66055361       0.00000000 NULL      -0.26119603       0.17116339       0.63082900
P        0.86702111      -0.35858591      14.07920444       0.00000000 NULL      -0.26119603      -0.17116339      -0.63082900
P        2.15765018       2.17777606      14.06464238       0.00000000 NULL      -0.01192876       0.67317836      -0.28995753
P        2.15765018       2.19876929       0.67511568       0.00000000 NULL      -0.01192876      -0.67317836       0.28995753
P        1.97649451       2.06824226       8.42993250       0.00000000 NULL       0.23753410       0.98876695       0.62664808
P        1.97649451       2.30830310       6.30982555       0.00000000 NULL       0.23753410      -0.98876695      -0.62664808
P        0.52471710       2.82283803       2.08603064       0.00000000 NULL       0.66330192       0.64357386      -1.13517860
P        0.52471710       1.55370732      12.65372741       0.00000000 NULL       0.66330192      -0.64357386       1.13517860
P        3.27799758       0.83736032       5.27205492       0.00000000 NULL      -0.47141186       0.51470993       0.01500195
P        3.27799758       3.53918504       9.46770313       0.00000000 NULL      -0.47141186      -0.51470993      -0.01500195
P        1.58739524       0.51150378       2.18693285       0.00000000 NULL      -0.07941980      -0.56412975      -0.50674850
P        1.58739524       3.86504157      12.55282520       0.00000000 NULL      -0.07941979       0.56412975       0.50674850
P       -0.10765204       0.08212755       7.83028190       0.00000000 NULL       0.21356155       1.05333803       0.51798833
P       -0.10765204       4.29441780       6.90947615       0.00000000 NULL       0.21356155      -1.05333803      -0.51798833
P        1.75453599       0.02570208       9.02712511       0.00000000 NULL      -0.36010072      -0.14687821      -0.33223757
P        1.75453599       4.35084328       5.71263295       0.00000000 NULL      -0.36010072       0.14687821       0.33223757
P        1.42431243       4.03084778      10.46751247       0.00000000 NULL       0.06965959       0.42570159      -0.47214548
P        1.42431243       0.34569757       4.27224558       0.00000000 NULL       0.06965959      -0.42570159       0.47214548
18
Lattice="4.548116432022051 0.0 0.0 0.0 6.27618175006227 -0.14698133042924919 0.0 -1.5132663650910787 14.381513847933599" Properties=species:S:1:pos:R:3:initial_magmoms:R:1:castep_labels:S:1:forces:R:3 n_minim_iter=6 energy=-90.77283789456635 stress="0.008292410332814595 2.0343793506516815e-12 6.501670994411692e-12 2.0343793506516815e-12 -0.0010759826797124253 0.0031760175600350805 6.501670994411692e-12 0.0031760175600350805 -0.005453518475312431" free_energy=-90.77283789456635 pbc="T T T"
P        0.81060821       4.84893279       0.71669687       0.00000000 NULL      -0.68059882       0.24233089       1.22117066
P        0.81060821      -0.08601740      13.51783565       0.00000000 NULL      -0.68059882      -0.24233089      -1.22117066
P        2.14837734       2.62191372      13.57780002       0.00000000 NULL       0.21758675       0.39515014      -0.95597655
P        2.14837734       2.14100167       0.65673250       0.00000000 NULL       0.21758675      -0.39515014       0.95597655
P        1.92359713       2.32633216       8.18311899       0.00000000 NULL       0.06156763       0.44934788       0.55453804
P        1.92359713       2.43658323       6.05141353       0.00000000 NULL       0.06156763      -0.44934788      -0.55453804
P        0.51403959       2.97147782       2.01563383       0.00000000 NULL       0.66479887       0.76454553      -0.91955683
P        0.51403959       1.79143757      12.21889869       0.00000000 NULL       0.66479887      -0.76454553       0.91955683
P        3.23893695       0.97650578       5.04203922       0.00000000 NULL      -0.50566186       0.47751575      -0.11379092
P        3.23893695       3.78640961       9.19249329       0.00000000 NULL      -0.50566186      -0.47751575       0.11379092
P        1.56930712       0.49125276       2.07731483       0.00000000 NULL      -0.07746347      -0.81395208      -1.16115839
P        1.56930712       4.27166263      12.15721769       0.00000000 NULL      -0.07746347       0.81395209       1.16115839
P       -0.16383841       0.26640941       7.50290050       0.00000000 NULL       0.15891180      -0.09529829       0.21925960
P       -0.16383841       4.49650598       6.73163201       0.00000000 NULL       0.15891180       0.09529829      -0.21925960
P        1.74790058       0.23400511       8.66990032       0.00000000 NULL      -0.22313412      -0.00920258      -0.55470800
P        1.74790058       4.52891028       5.56463219       0.00000000 NULL      -0.22313412       0.00920258       0.55470800
P        1.33753087       4.41419768      10.13222505       0.00000000 NULL       0.38399322       0.25071317      -1.20439743
P        1.33753087       0.34871772       4.10230746       0.00000000 NULL       0.38399322      -0.25071317       1.20439743
18
Lattice="4.04770760267127 0.0 0.0 0.0 6.411219614638687 0.042913881683530164 0.0 -1.061232671096144 14.705793164170357" Properties=species:S:1:pos:R:3:initial_magmoms:R:1:castep_labels:S:1:forces:R:3 n_minim_iter=7 energy=-91.98591718849329 stress="0.01101165725927051 -1.3420229070612711e-11 6.395052331877771e-12 -1.3420229070612711e-11 -0.013547491208780387 0.0089006149513754 6.395052331877771e-12 0.0089006149513754 0.0036990097360071585" free_energy=-91.98591718849329 pbc="T T T"
P        0.65848683       5.02036615       0.86175469       0.00000000 NULL      -1.48415087       0.77305120       1.12624948
P        0.65848683       0.32962080      13.88695235       0.00000000 NULL      -1.48415087      -0.77305120      -1.12624948
P        1.98263791       3.32939126      14.06710312       0.00000000 NULL       1.04909092      -0.40419554      -1.72315935
P        1.98263791       2.02059569       0.68160393       0.00000000 NULL       1.04909092       0.40419554       1.72315935
P        1.70624222       2.73166104       8.56033552       0.00000000 NULL      -0.58924708      -0.41647428      -1.29632368
P        1.70624222       2.61832591       6.18837152       0.00000000 NULL      -0.58924708       0.41647428       1.29632368
P        0.46825627       3.20972246       2.06759960       0.00000000 NULL       0.42205670      -0.28763191      -0.44213042
P        0.46825627       2.14026450      12.68110744       0.00000000 NULL       0.42205671       0.28763191       0.44213042
P        2.94046425       1.19445567       5.14152279       0.00000000 NULL      -0.17659362       0.31419935      -0.33023279
P        2.94046425       4.15553128       9.60718426       0.00000000 NULL      -0.17659362      -0.31419935       0.33023279
P        1.42867249       0.42047603       2.06335616       0.00000000 NULL       0.00758477      -1.05369578       0.00864284
P        1.42867249       4.92951092      12.68535089       0.00000000 NULL       0.00758477       1.05369578      -0.00864284
P       -0.23318732       0.53656616       7.69022999       0.00000000 NULL      -0.36959153      -0.84738298      -0.54620776
P       -0.23318732       4.81342079       7.05847705       0.00000000 NULL      -0.36959153       0.84738298       0.54620776
P        1.61071165       0.56919508       8.91654938       0.00000000 NULL       0.56550681       0.08471445      -0.39648060
P        1.61071165       4.78079187       5.83215766       0.00000000 NULL       0.56550681      -0.08471445       0.39648060
P        1.11992968       5.01335182      10.51375812       0.00000000 NULL       0.57534390       0.07543490       0.27203432
P        1.11992968       0.33663513       4.23494893       0.00000000 NULL       0.57534390      -0.07543490      -0.27203432
18
Lattice="3.8863706009666887 0.0 0.0 0.0 6.504178157667321 0.09512440553268102 0.0 -0.9820463501345509 14.561826684737817" Properties=species:S:1:pos:R:3:initial_magmoms:R:1:castep_labels:S:1:forces:R:3 n_minim_iter=8 energy=-92.32311837954099 stress="-0.0017588970275880147 -9.268182982260238e-12 3.425718487441148e-12 -9.268182982260238e-12 -0.01592606804295452 0.012226604377443804 3.425718487441148e-12 0.012226604377443804 -0.005464244259854768" free_energy=-92.32311837954099 pbc="T T T"
P        0.59813628       5.12650988       0.90288226       0.00000000 NULL      -1.42071771       0.75552790       0.65430876
P        0.59813628       0.39562194      13.75406883       0.00000000 NULL      -1.42071771      -0.75552791      -0.65430876
P        1.93939085       3.53728839      13.97200138       0.00000000 NULL       0.91052511      -1.04132121      -1.73384684
P        1.93939085       1.98484343       0.68494971       0.00000000 NULL       0.91052511       1.04132121       1.73384684
P        1.62932898       2.83529805       8.52760874       0.00000000 NULL      -0.75757452      -0.53096423      -1.43065729
P        1.62932898       2.68683376       6.12934235       0.00000000 NULL      -0.75757453       0.53096423       1.43065729
P        0.45565418       3.30554843       2.02985026       0.00000000 NULL       0.28322963      -0.85466790       0.18474960
P        0.45565418       2.21658338      12.62710083       0.00000000 NULL       0.28322963       0.85466790      -0.18474960
P        2.84986670       1.26164411       5.07947584       0.00000000 NULL      -0.07159826       0.29850384      -0.38265823
P        2.84986670       4.26048771       9.57747525       0.00000000 NULL      -0.07159826      -0.29850384       0.38265823
P        1.38355897       0.36502395       2.01000210       0.00000000 NULL       0.23093394      -0.90998885       0.31921070
P        1.38355897       5.15710787      12.64694899       0.00000000 NULL       0.23093394       0.90998885      -0.31921070
P       -0.26476766       0.58842407       7.60946958       0.00000000 NULL      -0.29296374      -0.92308620      -0.82405163
P       -0.26476766       4.93370774       7.04748151       0.00000000 NULL      -0.29296374       0.92308620       0.82405163
P        1.57663976       0.66116304       8.84590888       0.00000000 NULL       0.51276896       0.13061515      -0.18838775
P        1.57663976       4.86096878       5.81104221       0.00000000 NULL       0.51276896      -0.13061515       0.18838775
P        1.04876622       5.22798972      10.45975234       0.00000000 NULL       0.60539660      -0.00398059       0.26785547
P        1.04876622       0.29414210       4.19719875       0.00000000 NULL       0.60539660       0.00398059      -0.26785547
18
Lattice="3.90210536649642 0.0 0.0 0.0 6.432166084135219 -0.00166829798294711 0.0 -1.1899729623388808 14.615778443385384" Properties=species:S:1:pos:R:3:initial_magmoms:R:1:castep_labels:S:1:forces:R:3 n_minim_iter=9 energy=-92.63912715080434 stress="0.0011879004657329778 -4.263420148431317e-12 1.4279528653390045e-12 -4.263420148431317e-12 -0.017590382216436034 0.00422862751333615 1.4279528653390045e-12 0.00422862751333615 -0.004510593896071741" free_energy=-92.63912715080434 pbc="T T T"
P        0.55737925       5.09208095       0.80384507       0.00000000 NULL      -1.17724578      -0.15860682       0.32756646
P        0.55737925       0.15011218      13.81026507       0.00000000 NULL      -1.17724578       0.15860682      -0.32756646
P        1.96853770       3.28947592      13.93071903       0.00000000 NULL       0.49998798      -0.68783605      -1.33336271
P        1.96853770       1.95271721       0.68339112       0.00000000 NULL       0.49998798       0.68783605       1.33336271
P        1.63179758       2.70747959       8.50093009       0.00000000 NULL      -0.83829996      -0.34392838      -1.32814380
P        1.63179758       2.53471354       6.11318005       0.00000000 NULL      -0.83829996       0.34392838       1.32814380
P        0.48472564       3.22231787       1.94359654       0.00000000 NULL       0.12104539      -0.39739524       0.15762821
P        0.48472564       2.01987526      12.67051360       0.00000000 NULL       0.12104539       0.39739525      -0.15762821
P        2.86058615       1.19118036       5.01961619       0.00000000 NULL      -0.06519456      -0.04887928      -0.52918379
P        2.86058615       4.05101277       9.59449395       0.00000000 NULL      -0.06519456       0.04887928       0.52918379
P        1.41434886       0.25249073       2.00003394       0.00000000 NULL       0.54729353      -0.10803172       0.49319894
P        1.41434886       4.98970240      12.61407621       0.00000000 NULL       0.54729353       0.10803172      -0.49319894
P       -0.28443731       0.50458417       7.61326460       0.00000000 NULL      -0.11708606      -1.30490464      -0.67974177
P       -0.28443731       4.73760896       7.00084554       0.00000000 NULL      -0.11708606       1.30490464       0.67974177
P        1.58913139       0.57703963       8.87010671       0.00000000 NULL       0.30509627      -0.26506428      -0.40330744
P        1.58913139       4.66515350       5.74400344       0.00000000 NULL       0.30509627       0.26506428       0.40330744
P        1.03991762       5.08816722      10.38748663       0.00000000 NULL       0.72440317       0.08493955       0.36908234
P        1.03991762       0.15402591       4.22662351       0.00000000 NULL       0.72440317      -0.08493954      -0.36908234
18
Lattice="3.9655883054641614 0.0 0.0 0.0 6.471113352586051 0.03530519763221621 0.0 -1.1256605006174418 14.486665724421778" Properties=species:S:1:pos:R:3:initial_magmoms:R:1:castep_labels:S:1:forces:R:3 n_minim_iter=10 energy=-92.86197271278685 stress="0.014311113371965039 5.388078401623655e-12 1.1532915296847286e-12 5.388078401623655e-12 -0.009341049827646126 0.009925513549417104 1.1532915296847286e-12 0.009925513549417104 -0.002577269643406293" free_energy=-92.86197271278685 pbc="T T T"
P        0.52188665       5.10412724       0.80445189       0.00000000 NULL      -0.48752196       0.29155002      -0.08224957
P        0.52188665       0.24132562      13.71751903       0.00000000 NULL      -0.48752196      -0.29155002       0.08224957
P        2.00896314       3.37164254      13.78611839       0.00000000 NULL       0.12999228      -0.44543647      -0.71347836
P        2.00896314       1.97381032       0.73585253       0.00000000 NULL       0.12999228       0.44543647       0.71347836
P        1.64364181       2.80898309       8.44899120       0.00000000 NULL      -0.80091304      -0.66360963      -1.13455008
P        1.64364181       2.53646977       6.07297972       0.00000000 NULL      -0.80091304       0.66360963       1.13455008
P        0.52343976       3.24897459       1.89767535       0.00000000 NULL      -0.07419102      -0.62610647       0.73751364
P        0.52343976       2.09647827      12.62429557       0.00000000 NULL      -0.07419102       0.62610647      -0.73751364
P        2.90045272       1.24656670       4.93390538       0.00000000 NULL      -0.27230759      -0.19742602      -0.46472612
P        2.90045272       4.09888616       9.58806554       0.00000000 NULL      -0.27230759       0.19742602       0.46472612
P        1.47139210       0.23038429       1.99237856       0.00000000 NULL       0.42879718      -0.47691125       0.36194899
P        1.47139210       5.11506857      12.52959237       0.00000000 NULL       0.42879718       0.47691125      -0.36194899
P       -0.29864868       0.52639993       7.52614380       0.00000000 NULL      -0.02580499      -0.98272953      -0.49639163
P       -0.29864868       4.81905293       6.99582712       0.00000000 NULL      -0.02580499       0.98272953       0.49639163
P        1.61593278       0.63954497       8.78294762       0.00000000 NULL       0.21991206      -0.03524005      -0.49631036
P        1.61593278       4.70590789       5.73902330       0.00000000 NULL       0.21991206       0.03524005       0.49631036
P        1.05814667       5.25133942      10.31609763       0.00000000 NULL       0.88203708      -0.25035842       0.20355123
P        1.05814667       0.09411344       4.20587329       0.00000000 NULL       0.88203708       0.25035842      -0.20355123
18
Lattice="3.924573780522092 0.0 0.0 0.0 6.474814876167673 -0.05764015566020563 0.0 -1.3526830481973935 14.559931496107776" Properties=species:S:1:pos:R:3:initial_magmoms:R:1:castep_labels:S:1:forces:R:3 n_minim_iter=11 energy=-93.08669611370651 stress="0.008891078568502053 1.30645012455538e-11 3.507937217857932e-13 1.30645012455538e-11 -0.008289384512380843 0.006313529302817561 3.507937217857932e-13 0.006313529302817561 -0.006340758365549089" free_energy=-93.08669611370651 pbc="T T T"
P        0.49152324       5.05287485       0.70562789       0.00000000 NULL      -0.43853652       0.62314240       0.29907754
P        0.49152324       0.06925699      13.79666345       0.00000000 NULL      -0.43853652      -0.62314240      -0.29907754
P        1.98252900       3.16343376      13.77446617       0.00000000 NULL       0.46621994      -0.36803105      -0.57485270
P        1.98252900       1.95869807       0.72782517       0.00000000 NULL       0.46621994       0.36803105       0.57485270
P        1.58542472       2.66361447       8.44293336       0.00000000 NULL      -0.63394361      -0.23426783      -0.98095084
P        1.58542472       2.45851737       6.05935798       0.00000000 NULL      -0.63394361       0.23426783       0.98095084
P        0.53730238       3.21661459       1.83869412       0.00000000 NULL      -0.35797567      -0.28006817       0.92605264
P        0.53730238       1.90551724      12.66359722       0.00000000 NULL      -0.35797567       0.28006817      -0.92605264
P        2.87238736       1.18296454       4.88953133       0.00000000 NULL      -0.35173659      -0.21199534      -0.37345281
P        2.87238736       3.93916730       9.61276001       0.00000000 NULL      -0.35173659       0.21199534       0.37345281
P        1.49466061       0.18026200       1.99921237       0.00000000 NULL       0.30692298      -0.48228845       0.20344708
P        1.49466061       4.94186983      12.50307896       0.00000000 NULL       0.30692298       0.48228845      -0.20344708
P       -0.30548937       0.43037875       7.54190847       0.00000000 NULL      -0.03120120      -1.24500530      -0.65066834