39
Lattice="8.107054170308967 2.7023460238280934e-44 -5.692993838798017e-42 -3.9227501043137194e-44 11.768273682145075 1.4954966641951242e-14 7.176449172491887e-42 -5.884136841072551 10.191623967425464" Properties=species:S:1:pos:R:3:initial_magmoms:R:1:castep_labels:S:1:forces:R:3 n_minim_iter=1 energy=-204.24598877865728 stress="0.004165066694910291 1.4536446970539948e-12 -8.7617628878538e-13 1.4536446970539948e-12 -0.0028220165870616685 -2.4102730455695594e-12 -8.7617628878538e-13 -2.4102730455695594e-12 -0.002822016576449744" free_energy=-204.24598877865728 pbc="T T T"
P        1.12892345       1.22755496       8.82806017       0.00000000 NULL       0.18001191       0.44032579      -0.00269553
P        3.83127484       1.14741006       4.71450011       0.00000000 NULL       0.18001191      -0.22249729      -0.37998556
P        6.53362623      -2.37496501       6.84068765       0.00000000 NULL       0.18001191      -0.21782850       0.38268108
P        5.92653369       0.55561078       4.03562580       0.00000000 NULL      -0.11039060      -0.06207403       0.16293320
P        0.52183091      -2.66698776       7.69263802       0.00000000 NULL      -0.11039060       0.17214131      -0.02770892
P        3.22418230       2.11137700       8.65498411       0.00000000 NULL      -0.11039060      -0.11006728      -0.13522429
P        5.26602051       3.44466133       2.53251346       0.00000000 NULL       0.04508059       0.33049928       0.03802494
P        7.96837190       6.35502717       5.94220302       0.00000000 NULL       0.04508059      -0.13231908      -0.30523324
P        2.56366912       7.85272203       1.71690748       0.00000000 NULL       0.04508059      -0.19818020       0.26720831
P        0.30209859       3.17402532       8.10692146       0.00000000 NULL      -0.66152215      -0.39848315      -0.14806782
P        3.00444998      -0.45034957       3.38937668       0.00000000 NULL      -0.66152215       0.07101108       0.41913045
P        5.70680137      -2.72367574       8.88694979       0.00000000 NULL      -0.66152215       0.32747207      -0.27106262
P        1.47370788       7.88219949       6.11513892       0.00000000 NULL       0.16761522       0.11270789      -0.01896830
P        4.17605927       7.23890275       0.30786951       0.00000000 NULL       0.16761522      -0.07278097      -0.08812375
P        6.87841066       2.53130829       3.76861553       0.00000000 NULL       0.16761522      -0.03992692       0.10709204
P        7.65282761      -5.66330426       8.52689620       0.00000000 NULL       0.22756084      -0.09105228       0.15808728
P        2.24812483       4.33202402      10.83274123       0.00000000 NULL       0.22756084       0.18243374      -0.00019005
P        4.95047622       1.33128025       1.02361050       0.00000000 NULL       0.22756084      -0.09138146      -0.15789723
P        5.30439044       9.29173279       0.15174881       0.00000000 NULL      -0.04791388      -0.03644504       0.16116205
P        8.00674183       1.36968878       2.06887292       0.00000000 NULL      -0.04791388       0.15779295      -0.04901869
P        2.60203905       6.99098897       7.97100223       0.00000000 NULL      -0.04791388      -0.12134791      -0.11214336
P        5.58088484      -4.95579838       9.01011559       0.00000000 NULL      -0.23217692      -0.14587425      -0.06711970
P        0.17618206       4.39675134       9.97841346       0.00000000 NULL      -0.23217692       0.01480976       0.15989066
P        2.87853345       0.55904704       1.39471888       0.00000000 NULL      -0.23217692       0.13106449      -0.09277096
P        6.28409203      -0.14925456       1.95516748       0.00000000 NULL      -0.15065780       0.10243882      -0.08199862
P        0.87938925      -4.11628485       9.34329847       0.00000000 NULL      -0.15065780      -0.12223230      -0.04771531
P        3.58174064       4.26553941       9.08478198       0.00000000 NULL      -0.15065780       0.01979348       0.12971393
P        1.75895766       0.05455888       7.06149078       0.00000000 NULL       0.08003520      -0.14550647      -0.08890335
P        4.46130905       0.20401412       6.61362920       0.00000000 NULL       0.08003520      -0.00423932       0.17046397
P        7.16366044      -0.25857300       6.70812795       0.00000000 NULL       0.08003520       0.14974579      -0.08156062
P        4.97668727       2.31289162       7.06921517       0.00000000 NULL       0.07159638       0.09796638       0.20451165
P        7.67903866      -0.91846272       4.65399348       0.00000000 NULL       0.07159638       0.12812909      -0.18709720
P        2.27433588      -1.39442889       8.66003928       0.00000000 NULL       0.07159638      -0.22609548      -0.01741445
P        6.40731957       2.26023741       8.75063599       0.00000000 NULL       0.10883959       0.04003568      -0.07759063
P        1.00261679       0.56401753       3.85888296       0.00000000 NULL       0.10883959      -0.08721329       0.00412339
P        3.70496818      -2.82425493       7.77372898       0.00000000 NULL       0.10883959       0.04717761       0.07346723
P        6.44089845       6.76927842       4.61898826       0.00000000 NULL       0.32192163      -0.16564533      -0.02470097
P        1.03619567       6.49965881       2.01976276       0.00000000 NULL       0.32192163       0.06143100       0.15580355
P        3.73854706       4.38347330       3.55287295       0.00000000 NULL       0.32192163       0.10421433      -0.13110258
39
Lattice="8.039208013200144 2.2718561417535563e-44 -5.658938696167558e-42 -4.2721848769535023e-44 11.835474290719565 1.5633705383567283e-14 7.199111732829664e-42 -5.917737145359797 10.249821401600746" Properties=species:S:1:pos:R:3:initial_magmoms:R:1:castep_labels:S:1:forces:R:3 n_minim_iter=2 energy=-204.28404080190103 stress="-0.00020073596218556498 -8.979937648358367e-14 -5.1472648161237365e-12 -8.979937648358367e-14 0.0005792787745904706 1.2452967504393608e-12 -5.1472648161237365e-12 1.2452967504393608e-12 0.0005792787757017719" free_energy=-204.28404080190103 pbc="T T T"
P        1.11984616       1.23548364       8.87846560       0.00000000 NULL       0.15105506       0.44646923      -0.08284734
P        3.79958216       1.15349780       4.74062839       0.00000000 NULL       0.15105507      -0.29498252      -0.34523003
P        6.47931817      -2.38898142       6.88054881       0.00000000 NULL       0.15105506      -0.15148671       0.42807737
P        5.87670867       0.55865394       4.05901055       0.00000000 NULL      -0.05289566       0.01892078       0.02717657
P        0.51723666      -2.68185786       7.73650762       0.00000000 NULL      -0.05289566       0.01407521      -0.02997416
P        3.19697267       2.12320393       8.70412463       0.00000000 NULL      -0.05289566      -0.03299599       0.00279759
P        5.22204311       3.46502119       2.54705428       0.00000000 NULL      -0.00344801       0.28557173       0.06287016
P        7.90177911       6.39104027       5.97549789       0.00000000 NULL      -0.00344801      -0.08833871      -0.27874745
P        2.54230710       7.89714999       1.72726923       0.00000000 NULL      -0.00344801      -0.19723302       0.21587729
P        0.29820914       3.19131839       8.15290556       0.00000000 NULL      -0.62970496      -0.35872730      -0.03036955
P        2.97794514      -0.45277301       3.40960582       0.00000000 NULL      -0.62970496       0.15306285       0.32585174
P        5.65768115      -2.73854538       8.93713142       0.00000000 NULL      -0.62970496       0.20566446      -0.29548218
P        1.46171966       7.92744459       6.15001873       0.00000000 NULL       0.21133016       0.11793340       0.09544155
P        4.14145566       7.28008731       0.30944363       0.00000000 NULL       0.21133016       0.02368810      -0.14985409
P        6.82119166       2.54567954       3.79035903       0.00000000 NULL       0.21133016      -0.14162151       0.05441255
P        7.58925104      -5.69583357       8.57591743       0.00000000 NULL       0.26966289      -0.15593024       0.18404586
P        2.22977904       4.35714200      10.89459925       0.00000000 NULL       0.26966289       0.23735351       0.04301662
P        4.90951504       1.33869158       1.02912611       0.00000000 NULL       0.26966289      -0.08142327      -0.22706247
P        5.25990056       9.34471550       0.15295169       0.00000000 NULL       0.02858545      -0.04302311       0.11209037
P        7.93963657       1.37783945       2.08058455       0.00000000 NULL       0.02858545       0.11858466      -0.01878608
P        2.58016456       7.03065650       8.01628516       0.00000000 NULL       0.02858545      -0.07556156      -0.09330429
P        5.53370188      -4.98440201       9.06142615       0.00000000 NULL      -0.30433228      -0.05177396       0.00380878
P        0.17422987       4.42188911      10.03572709       0.00000000 NULL      -0.30433228       0.02918548       0.04293318
P        2.85396587       0.56251291       1.40248956       0.00000000 NULL      -0.30433228       0.02258848      -0.04674196
P        6.23119182      -0.14989306       1.96616099       0.00000000 NULL      -0.15548238       0.16561608      -0.01456352
P        0.87171982      -4.14004525       9.39655211       0.00000000 NULL      -0.15548238      -0.09542042      -0.13614597
P        3.55145582       4.28993832       9.13692970       0.00000000 NULL      -0.15548238      -0.07019566       0.15070949
P        1.74440202       0.05456676       7.10162861       0.00000000 NULL       0.07057619      -0.18248756       0.03529746
P        4.42413803       0.20517026       6.65175089       0.00000000 NULL       0.07057619       0.12181227       0.14039013
P        7.10387403      -0.25973702       6.74626330       0.00000000 NULL       0.07057619       0.06067528      -0.17568759
P        4.93518580       2.32630343       7.11000946       0.00000000 NULL       0.03208519       0.01523805       0.22096730
P        7.61492180      -0.92344004       4.68017881       0.00000000 NULL       0.03208519       0.18374428      -0.12368019
P        2.25544979      -1.40286338       8.70945453       0.00000000 NULL       0.03208519      -0.19898232      -0.09728712
P        6.35392209       2.27322764       8.80044299       0.00000000 NULL       0.08947984       0.05658060      -0.08815086
P        0.99445008       0.56705624       3.88092702       0.00000000 NULL       0.08947984      -0.10463119      -0.00492481
P        3.67418608      -2.84028387       7.81827279       0.00000000 NULL       0.08947984       0.04805059       0.09307567
P        6.38765842       6.80758747       4.64531261       0.00000000 NULL       0.29308849      -0.19894535      -0.04351945
P        1.02818641       6.53690214       2.03162141       0.00000000 NULL       0.29308849       0.06178373       0.19405146
P        3.70792241       4.40872183       3.57288738       0.00000000 NULL       0.29308849       0.13716163      -0.15053201
39
Lattice="8.004006946321935 4.73604923747909e-44 -5.2626001815946566e-42 -6.072916466123809e-45 11.803353717686 1.4680785097466514e-14 5.042906091023922e-42 -5.901676858843014 10.22200416936957" Properties=species:S:1:pos:R:3:initial_magmoms:R:1:castep_labels:S:1:forces:R:3 n_minim_iter=3 energy=-204.3177754587393 stress="-0.0062671180696749346 1.9612059127422108e-13 5.162734001532492e-13 1.9612059127422108e-13 -0.003987405963707498 3.832304958427727e-12 5.162734001532492e-13 3.832304958427727e-12 -0.003987405957501709" free_energy=-204.3177754587393 pbc="T T T"
P        1.11719520       1.23881879       8.85326535       0.00000000 NULL       0.11109438       0.29420119      -0.05057032
P        3.78519751       1.14606645       4.72252295       0.00000000 NULL       0.11109438      -0.19089578      -0.22950054
P        6.45319983      -2.38488524       6.86822003       0.00000000 NULL       0.11109438      -0.10330541       0.28007087
P        5.85010731       0.55728197       4.04863664       0.00000000 NULL      -0.05141467      -0.04515458       0.00490190
P        0.51410268      -2.67409565       7.71506551       0.00000000 NULL      -0.05141467       0.02682246       0.03665407
P        3.18210500       2.11681370       8.68030618       0.00000000 NULL      -0.05141467       0.01833212      -0.04155596
P        5.19920960       3.45997957       2.54104220       0.00000000 NULL       0.11215577       0.24739949      -0.02599929
P        7.86721191       6.37229418       5.95505287       0.00000000 NULL       0.11215577      -0.14621579      -0.20125460
P        2.53120728       7.87275684       1.72590909       0.00000000 NULL       0.11215577      -0.10118370       0.22725389
P        0.28766439       3.17720653       8.13012050       0.00000000 NULL      -0.51580257      -0.22281379      -0.12663184
P        2.95566671      -0.44938923       3.40540235       0.00000000 NULL      -0.51580257       0.00174051       0.25627832
P        5.62366902      -2.72781729       8.90848548       0.00000000 NULL      -0.51580257       0.22107328      -0.12964649
P        1.45832752       7.90769056       6.13456268       0.00000000 NULL       0.24609564       0.09466376      -0.02231073
P        4.12632984       7.26051871       0.30646192       0.00000000 NULL       0.24609564      -0.06665355      -0.07082586
P        6.79433215       2.53682132       3.78097956       0.00000000 NULL       0.24609564      -0.02801022       0.09313659
P        7.55988204      -5.68260315       8.55535967       0.00000000 NULL       0.18663297      -0.20548926       0.13029107
P        2.22387741       4.34878353      10.86560302       0.00000000 NULL       0.18663297       0.21558001       0.11281339
P        4.89187973       1.33381963       1.02304564       0.00000000 NULL       0.18663297      -0.01009075      -0.24310446
P        5.23715623       9.31872049       0.15430303       0.00000000 NULL       0.07973938      -0.00902765       0.17308815
P        7.90515854       1.37594696       2.07460398       0.00000000 NULL       0.07973938       0.15441256      -0.07872590
P        2.56915391       7.01036314       7.99309715       0.00000000 NULL       0.07973938      -0.14538491      -0.09436225
P        5.50515509      -4.97181386       9.03676893       0.00000000 NULL      -0.29956665      -0.10617219       0.00425570
P        0.16915046       4.41030154      10.00933681       0.00000000 NULL      -0.29956665       0.05677164       0.08981996
P        2.83715278       0.56151233       1.39790260       0.00000000 NULL      -0.29956665       0.04940055      -0.09407566
P        6.20164778      -0.14711037       1.96049014       0.00000000 NULL      -0.11297587       0.03355200      -0.02723172
P        0.86564314      -4.13028740       9.36916042       0.00000000 NULL      -0.11297587      -0.04035936      -0.01544103
P        3.53364546       4.27739778       9.11435778       0.00000000 NULL      -0.11297587       0.00680736       0.04267275
P        1.73780935       0.05174445       7.08267068       0.00000000 NULL       0.06295780      -0.14351362      -0.04180763
P        4.40581167       0.20622366       6.63585682       0.00000000 NULL       0.06295780       0.03555034       0.14519025
P        7.07381398      -0.25796810       6.72548083       0.00000000 NULL       0.06295780       0.10796328      -0.10338262
P        4.91411132       2.32036136       7.09400042       0.00000000 NULL      -0.02303384       0.08278425       0.10174556
P        7.58211364      -0.91827296       4.66551208       0.00000000 NULL      -0.02303384       0.04672211      -0.12256605
P        2.24610901      -1.40208839       8.68449584       0.00000000 NULL      -0.02303384      -0.12950636       0.02082049
P        6.32743838       2.26787866       8.77525488       0.00000000 NULL       0.07321863      -0.01836598      -0.01453725
P        0.99143375       0.56397746       3.87033620       0.00000000 NULL       0.07321863      -0.00340664       0.02317402
P        3.65943606      -2.83185611       7.79841726       0.00000000 NULL       0.07321863       0.02177261      -0.00863678
P        6.36401294       6.78618469       4.63208509       0.00000000 NULL       0.13089904      -0.15850077      -0.13827798
P        1.02800831       6.52008788       2.02895329       0.00000000 NULL       0.13089904      -0.04050185       0.20640469
P        3.69601062       4.39875801       3.56096579       0.00000000 NULL       0.13089904       0.19900263      -0.06812671
39
Lattice="8.042772578287199 3.4821205804957687e-44 -5.2778036072739616e-42 -2.48321340309064e-44 11.843637346604716 1.497448043396947e-14 5.0804145780116016e-42 -5.921818673302371 10.256890815369802" Properties=species:S:1:pos:R:3:initial_magmoms:R:1:castep_labels:S:1:forces:R:3 n_minim_iter=4 energy=-204.46719121546795 stress="-0.002215483732648107 2.2306176744770348e-12 -1.9552256283626126e-12 2.2306176744770348e-12 -0.0012430423102288387 -5.8492906396159134e-12 -1.9552256283626126e-12 -5.8492906396159134e-12 -0.0012430423073224164" free_energy=-204.46719121546795 pbc="T T T"
P        1.13093009       1.26764028       8.87941249       0.00000000 NULL       0.20159136      -0.00474993      -0.03577954
P        3.81185428       1.13415798       4.71937589       0.00000000 NULL       0.20159137      -0.02861102       0.02200333
P        6.49277847      -2.40179824       6.91499325       0.00000000 NULL       0.20159137       0.03336096       0.01377621
P        5.87520036       0.55953861       4.06473732       0.00000000 NULL       0.09080662       0.01840549      -0.13909539
P        0.51335197      -2.68142220       7.73994750       0.00000000 NULL       0.09080662      -0.12966289       0.05360808
P        3.19427616       2.12188359       8.70909681       0.00000000 NULL       0.09080662       0.11125740       0.08548731
P        5.22487352       3.48801725       2.55280303       0.00000000 NULL       0.26174376       0.05398728       0.02585814
P        7.90579771       6.38860233       5.95977775       0.00000000 NULL       0.26174376      -0.00459983      -0.05968343
P        2.54394932       7.88883645       1.74431003       0.00000000 NULL       0.26174376      -0.04938745       0.03382529
P        0.25471847       3.16806313       8.15511339       0.00000000 NULL      -0.27859880       0.10882978      -0.13019457
P        2.93564266      -0.44331487       3.43571097       0.00000000 NULL      -0.27859880      -0.16716670      -0.02915207
P        5.61656686      -2.72474825       8.92295727       0.00000000 NULL      -0.27859880       0.05833691       0.15934664
P        1.47682786       7.94121044       6.15977834       0.00000000 NULL       0.04504191      -0.00585727       0.06648426
P        4.15775205       7.28573798       0.29971166       0.00000000 NULL       0.04504190       0.06050569      -0.02816959
P        6.83867624       2.53850760       3.79740081       0.00000000 NULL       0.04504191      -0.05464842      -0.03831467
P        7.61075436      -5.71055212       8.59458398       0.00000000 NULL      -0.07369704      -0.20968323       0.10383052
P        2.24890597       4.37658545      10.90508203       0.00000000 NULL      -0.07369704       0.19476148       0.12967575
P        4.92983016       1.33396668       1.01411562       0.00000000 NULL      -0.07369704       0.01492175      -0.23350626
P        5.26379666       9.34825638       0.16164888       0.00000000 NULL       0.01581654      -0.04968969       0.02762578
P        7.94472086       1.38768253       2.08023887       0.00000000 NULL       0.01581654       0.04876947       0.02921964
P        2.58287247       7.02951712       8.01500306       0.00000000 NULL       0.01581654       0.00092022      -0.05684542
P        5.51558310      -4.99245637       9.06739399       0.00000000 NULL      -0.06706679      -0.05356031       0.03981990
P        0.15373471       4.42700306      10.04678786       0.00000000 NULL      -0.06706679       0.06126520       0.02647464
P        2.83465890       0.56545332       1.39959977       0.00000000 NULL      -0.06706679      -0.00770489      -0.06629454
P        6.22332880      -0.13911698       1.96590667       0.00000000 NULL       0.01592413       0.01340144       0.05161425
P        0.86148041      -4.14973506       9.39441632       0.00000000 NULL       0.01592413       0.03799853      -0.03741311
P        3.54240461       4.28885205       9.15345864       0.00000000 NULL       0.01592413      -0.05139997      -0.01420114
P        1.75012706       0.04200021       7.10781258       0.00000000 NULL       0.03994944      -0.06843456       0.10422967
P        4.43105125       0.21272749       6.66661127       0.00000000 NULL       0.03994944       0.12448282       0.00715123
P        7.11197545      -0.25472769       6.73935777       0.00000000 NULL       0.03994944      -0.05604826      -0.11138090
P        4.93972706       2.32987209       7.13015298       0.00000000 NULL      -0.06348079       0.02169088      -0.00505087
P        7.62065126      -0.91186110       4.67408591       0.00000000 NULL      -0.06348079      -0.01521962      -0.01625942
P        2.25880287      -1.41801098       8.70954274       0.00000000 NULL      -0.06348079      -0.00647126       0.02131029
P        6.36305240       2.27845074       8.80055270       0.00000000 NULL      -0.30262658      -0.12023431       0.15848443
P        1.00120401       0.56045817       3.88341824       0.00000000 NULL      -0.30262658       0.19736870       0.02488375
P        3.68212820      -2.83890890       7.82981068       0.00000000 NULL      -0.30262658      -0.07713439      -0.18336818
P        6.41054379       6.79847998       4.64523649       0.00000000 NULL       0.11459624      -0.11922805      -0.21781744
P        1.04869541       6.54547149       2.04661621       0.00000000 NULL       0.11459624      -0.12902141       0.21216324
P        3.72961960       4.42150456       3.56503812       0.00000000 NULL       0.11459624       0.24824946       0.00565420
39
Lattice="8.047913759982526 2.570004124596272e-44 -5.2426862372553345e-42 -3.8404787240818674e-44 11.87253730281377 1.5071925592761573e-14 5.121881833210131e-42 -5.936268651406898 10.281918911615099" Properties=species:S:1:pos:R:3:initial_magmoms:R:1:castep_labels:S:1:forces:R:3 n_minim_iter=5 energy=-204.57937229587782 stress="-0.0022512261153444435 1.4110561057039677e-12 -2.5616278473855206e-12 1.4110561057039677e-12 -0.0010274494477249651 1.3548271288362142e-12 -2.5616278473855206e-12 1.3548271288362142e-12 -0.0010274494380454907" free_energy=-204.57937229587782 pbc="T T T"
P        1.15354518       1.28161433       8.89615198       0.00000000 NULL      -0.00181699       0.15104247      -0.11400564
P        3.83618310       1.12721780       4.72393235       0.00000000 NULL      -0.00181699      -0.17425302      -0.07380379
P        6.51882102      -2.40883212       6.94375349       0.00000000 NULL      -0.00181699       0.02321055       0.18780944
P        5.88587151       0.56412973       4.06383069       0.00000000 NULL      -0.07338963      -0.00965598      -0.12268861
P        0.52059567      -2.69895290       7.76145289       0.00000000 NULL      -0.07338963      -0.10142346       0.06970663
P        3.20323359       2.13482318       8.73855424       0.00000000 NULL      -0.07338963       0.11107944       0.05298198
P        5.24897156       3.50747753       2.56480252       0.00000000 NULL       0.06838365       0.04512094       0.02951378
P        7.93160948       6.40371403       5.96195300       0.00000000 NULL       0.06838365       0.00299921      -0.05383277
P        2.56633364       7.89761440       1.75516338       0.00000000 NULL       0.06838365      -0.04812015       0.02431899
P        0.21661167       3.17609657       8.16425342       0.00000000 NULL      -0.10406589      -0.09091668       0.12125410
P        2.89924959      -0.45386606       3.44921188       0.00000000 NULL      -0.10406589       0.15046747       0.01810910
P        5.58188751      -2.72223050       8.95037251       0.00000000 NULL      -0.10406589      -0.05955079      -0.13936320
P        1.48375750       7.96251290       6.18500196       0.00000000 NULL       0.03264252      -0.03659632      -0.07884298
P        4.16639542       7.31138103       0.29367948       0.00000000 NULL       0.03264252      -0.04998186       0.07111483
P        6.84903334       2.53491203       3.80323746       0.00000000 NULL       0.03264252       0.08657818       0.00772815
P        7.61507497      -5.74452051       8.62945988       0.00000000 NULL      -0.04098324       0.00547695       0.04685667
P        2.24979913       4.40932309      10.94208967       0.00000000 NULL      -0.04098324       0.03784059      -0.02817151
P        4.93243705       1.33519744       0.99228827       0.00000000 NULL      -0.04098324      -0.04331754      -0.01868516
P        5.26699504       9.36482938       0.16498819       0.00000000 NULL       0.00722690       0.10901158       0.06180154
P        7.94963296       1.39673793       2.08924467       0.00000000 NULL       0.00722690      -0.00098408      -0.12530756
P        2.58435712       7.04723865       8.02768605       0.00000000 NULL       0.00722690      -0.10802749       0.06350602
P        5.50882218      -5.00961085       9.09271650       0.00000000 NULL      -0.04067275       0.06202483       0.01017590
P        0.14354634       4.44306026      10.07401093       0.00000000 NULL      -0.04067274      -0.02219983      -0.05880303
P        2.82618426       0.56655061       1.39711040       0.00000000 NULL      -0.04067275      -0.03982501       0.04862713
P        6.22521619      -0.13229864       1.97512217       0.00000000 NULL      -0.00773766       0.01967079      -0.08409062
P        0.85994035      -4.15961334       9.40893181       0.00000000 NULL      -0.00773766      -0.08266001       0.02500990
P        3.54257827       4.29191200       9.17978383       0.00000000 NULL      -0.00773766       0.06298922       0.05908072
P        1.75622573       0.03203999       7.13667629       0.00000000 NULL       0.01508096       0.01822956      -0.00449550
P        4.43886365       0.22825433       6.68583332       0.00000000 NULL       0.01508096      -0.01300800      -0.01353951
P        7.12150157      -0.26029431       6.74132821       0.00000000 NULL       0.01508096      -0.00522156       0.01803501
P        4.93948863       2.33651648       7.15384974       0.00000000 NULL      -0.10822865       0.09658257      -0.04564212
P        7.62212655      -0.90911128       4.68151141       0.00000000 NULL      -0.10822865      -0.08781852      -0.06082190
P        2.25685071      -1.42740519       8.72847667       0.00000000 NULL      -0.10822865      -0.00876405       0.10646402
P        6.34171889       2.27572030       8.83338362       0.00000000 NULL       0.00916110      -0.15620629       0.07744660
P        0.97644305       0.57580582       3.89439551       0.00000000 NULL       0.00916110       0.14517387       0.09655531
P        3.65908097      -2.85152611       7.83605869       0.00000000 NULL       0.00916110       0.01103242      -0.17400191
P        6.43426502       6.79994098       4.63847549       0.00000000 NULL       0.24439968      -0.08505066      -0.06042997
P        1.06898918       6.55333578       2.07375953       0.00000000 NULL       0.24439968      -0.00980856       0.10387102
P        3.75162710       4.45552921       3.56968388       0.00000000 NULL       0.24439968       0.09485922      -0.04344105
39
Lattice="8.057950815201506 1.8133862723481323e-44 -5.2011520955634304e-42 -4.969018610321613e-44 11.896222442758196 1.839768560747528e-14 5.102958510106952e-42 -5.948111221379114 10.30243084449916" Properties=species:S:1:pos:R:3:initial_magmoms:R:1:castep_labels:S:1:forces:R:3 n_minim_iter=6 energy=-204.65292591045258 stress="-0.0021220887121860496 4.105749030825453e-13 -4.501336433371869e-12 4.105749030825453e-13 -0.0006964210919523135 -2.8551698702586284e-12 -4.501336433371869e-12 -2.8551698702586284e-12 -0.0006964210958176835" free_energy=-204.65292591045258 pbc="T T T"
P        1.16479291       1.30150074       8.90031399       0.00000000 NULL      -0.00479063       0.05682425       0.02491812
P        3.85077651       1.10903643       4.72514114       0.00000000 NULL      -0.00479063      -0.00683240      -0.06167030
P        6.53676012      -2.41053716       6.97940655       0.00000000 NULL      -0.00479063      -0.04999185       0.03675218
P        5.88980621       0.56698684       4.05409962       0.00000000 NULL       0.01925140       0.01511964      -0.09165012
P        0.51783899      -2.72065138       7.78435603       0.00000000 NULL       0.01925140      -0.08693115       0.03273107
P        3.20382260       2.15366454       8.76640604       0.00000000 NULL       0.01925140       0.07181151       0.05891905
P        5.27051089       3.52051158       2.57759739       0.00000000 NULL       0.06628062      -0.05105761      -0.12329210
P        7.95649450       6.42012026       5.96477969       0.00000000 NULL       0.06628062      -0.08124528       0.10586324
P        2.58452729       7.90370183       1.76005376       0.00000000 NULL       0.06628062       0.13230289       0.01742886
P        0.19505077       3.17582292       8.19089673       0.00000000 NULL      -0.12938652      -0.02123683       0.00304030
P        2.88103437      -0.44249803       3.45663915       0.00000000 NULL      -0.12938652       0.01325139       0.01687148
P        5.56701798      -2.73332489       8.95732581       0.00000000 NULL      -0.12938652       0.00798544      -0.01991178
P        1.48619017       7.97355033       6.19509707       0.00000000 NULL       0.05919360       0.03785803       0.03905699