12
Lattice="4.12477 0.0 0.0 0.0 7.914559999999999 0.0 0.0 0.0 7.914559999999999" Properties=species:S:1:pos:R:3:initial_magmoms:R:1:castep_labels:S:1 n_minim_iter=1 pbc="T T T"
P        3.57077585       2.27226622       0.16586781       0.00000000 NULL
P        1.50839085       5.64229378       7.74869219       0.00000000 NULL
P        2.53958335       0.16586781       5.64229378       0.00000000 NULL
P        0.47719835       7.74869219       2.27226622       0.00000000 NULL
P        3.80729347       7.68421544       4.12424397       0.00000000 NULL
P        1.74490847       0.23034456       3.79031603       0.00000000 NULL
P        2.77610097       4.12424397       0.23034456       0.00000000 NULL
P        0.71371597       3.79031603       7.68421544       0.00000000 NULL
P        3.17773271       6.77324800       0.46117112       0.00000000 NULL
P        1.11534771       1.14131200       7.45338888       0.00000000 NULL
P        2.14654021       0.46117112       1.14131200       0.00000000 NULL
P        0.08415521       7.45338888       6.77324800       0.00000000 NULL
12
Lattice="4.145466806229077 0.0 0.0 0.0 7.9402739508178835 0.0 0.0 0.0 7.9402739508178835" Properties=species:S:1:pos:R:3:initial_magmoms:R:1:castep_labels:S:1 n_minim_iter=2 pbc="T T T"
P        3.58851290       2.27917299       0.16650924       0.00000000 NULL
P        1.51577950       5.66110096       7.77376471       0.00000000 NULL
P        2.55214620       0.16650924       5.66110096       0.00000000 NULL
P        0.47941280       7.77376471       2.27917299       0.00000000 NULL
P        3.82652445       7.70908515       4.13760791       0.00000000 NULL
P        1.75379104       0.23118880       3.80266604       0.00000000 NULL
P        2.79015775       4.13760791       0.23118880       0.00000000 NULL
P        0.71742434       3.80266604       7.70908515       0.00000000 NULL
P        3.19373039       6.79509426       0.46292504       0.00000000 NULL
P        1.12099699       1.14517969       7.47734891       0.00000000 NULL
P        2.15736369       0.46292504       1.14517969       0.00000000 NULL
P        0.08463029       7.47734891       6.79509426       0.00000000 NULL
12
Lattice="4.3669519709946725 0.0 0.0 0.0 8.215255950099065 0.0 0.0 0.0 8.215255950099065" Properties=species:S:1:pos:R:3:initial_magmoms:R:1:castep_labels:S:1 n_minim_iter=3 pbc="T T T"
P        3.77816494       2.35271472       0.17342150       0.00000000 NULL
P        1.59468896       5.86254123       8.04183445       0.00000000 NULL
P        2.68642695       0.17342150       5.86254123       0.00000000 NULL
P        0.50295097       8.04183445       2.35271472       0.00000000 NULL
P        4.03243081       7.97504361       4.28045634       0.00000000 NULL
P        1.84895482       0.24021234       3.93479961       0.00000000 NULL
P        2.94069282       4.28045634       0.24021234       0.00000000 NULL
P        0.75721683       3.93479961       7.97504361       0.00000000 NULL
P        3.36498021       7.02861580       0.48187585       0.00000000 NULL
P        1.18150423       1.18664015       7.73338010       0.00000000 NULL
P        2.27324222       0.48187585       1.18664015       0.00000000 NULL
P        0.08976624       7.73338010       7.02861580       0.00000000 NULL
12
Lattice="4.444377051976616 0.0 0.0 0.0 8.367253045934337 0.0 0.0 0.0 8.367253045934337" Properties=species:S:1:pos:R:3:initial_magmoms:R:1:castep_labels:S:1 n_minim_iter=4 pbc="T T T"
P        3.84340277       2.39123917       0.17754289       0.00000000 NULL
P        1.62121424       5.97601388       8.18971016       0.00000000 NULL
P        2.73230850       0.17754289       5.97601388       0.00000000 NULL
P        0.51011998       8.18971016       2.39123917       0.00000000 NULL
P        4.10508816       8.12227022       4.35909614       0.00000000 NULL
P        1.88289964       0.24498283       4.00815691       0.00000000 NULL
P        2.99399390       4.35909614       0.24498283       0.00000000 NULL
P        0.77180537       4.00815691       8.12227022       0.00000000 NULL
P        3.42522550       7.15737752       0.49355463       0.00000000 NULL
P        1.20303698       1.20987553       7.87369842       0.00000000 NULL
P        2.31413124       0.49355463       1.20987553       0.00000000 NULL
P        0.09194271       7.87369842       7.15737752       0.00000000 NULL
12
Lattice="4.486541510991715 0.0 0.0 0.0 8.546619656838608 0.0 0.0 0.0 8.546619656838608" Properties=species:S:1:pos:R:3:initial_magmoms:R:1:castep_labels:S:1 n_minim_iter=5 pbc="T T T"
P        3.87733724       2.43486941       0.18269350       0.00000000 NULL
P        1.63406649       6.11175025       8.36392616       0.00000000 NULL
P        2.75570187       0.18269350       6.11175025       0.00000000 NULL
P        0.51243111       8.36392616       2.43486941       0.00000000 NULL
P        4.14587542       8.29619553       4.45173711       0.00000000 NULL
P        1.90260466       0.25042413       4.09488255       0.00000000 NULL
P        3.02424004       4.45173711       0.25042413       0.00000000 NULL
P        0.78096929       4.09488255       8.29619553       0.00000000 NULL
P        3.45840789       7.30952215       0.50821762       0.00000000 NULL
P        1.21513713       1.23709751       8.03840203       0.00000000 NULL
P        2.33677251       0.50821762       1.23709751       0.00000000 NULL
P        0.09350175       8.03840203       7.30952215       0.00000000 NULL
12
Lattice="4.448376487023983 0.0 0.0 0.0 8.659710825012835 0.0 0.0 0.0 8.659710825012835" Properties=species:S:1:pos:R:3:initial_magmoms:R:1:castep_labels:S:1 n_minim_iter=6 pbc="T T T"
P        3.84218603       2.45933522       0.18641210       0.00000000 NULL
P        1.61799778       6.20037560       8.47329873       0.00000000 NULL
P        2.73009191       0.18641210       6.20037560       0.00000000 NULL
P        0.50590366       8.47329873       2.45933522       0.00000000 NULL
P        4.11246195       8.40612237       4.50980791       0.00000000 NULL
P        1.88827371       0.25358845       4.14990292       0.00000000 NULL
P        3.00036783       4.50980791       0.25358845       0.00000000 NULL
P        0.77617958       4.14990292       8.40612237       0.00000000 NULL
P        3.42930350       7.40628203       0.51866211       0.00000000 NULL
P        1.20511526       1.25342879       8.14104871       0.00000000 NULL
P        2.31720938       0.51866211       1.25342879       0.00000000 NULL
P        0.09302114       8.14104871       7.40628203       0.00000000 NULL
12
Lattice="4.360829190591324 0.0 0.0 0.0 8.813927853034656 0.0 0.0 0.0 8.813927853034656" Properties=species:S:1:pos:R:3:initial_magmoms:R:1:castep_labels:S:1 n_minim_iter=7 pbc="T T T"
P        3.76265989       2.48668331       0.19223342       0.00000000 NULL
P        1.58224529       6.32724455       8.62169443       0.00000000 NULL
P        2.67245259       0.19223342       6.32724455       0.00000000 NULL
P        0.49203800       8.62169443       2.48668331       0.00000000 NULL
P        4.03505732       8.55619278       4.58836262       0.00000000 NULL
P        1.85464273       0.25773507       4.22556523       0.00000000 NULL
P        2.94485002       4.58836262       0.25773507       0.00000000 NULL
P        0.76443543       4.22556523       8.55619278       0.00000000 NULL
P        3.36218980       7.54059407       0.53519528       0.00000000 NULL
P        1.18177520       1.27333378       8.27873257       0.00000000 NULL
P        2.27198250       0.53519528       1.27333378       0.00000000 NULL
P        0.09156790       8.27873257       7.54059407       0.00000000 NULL
