12
Lattice="6.856599999999999 -1.107196869858776e-15 -1.452426073475511e-16 2.3985303058454535 6.4233959812501755 -4.756346654251844e-16 2.398530305845455 1.664666992072894 6.203942273864569" Properties=species:S:1:pos:R:3:initial_magmoms:R:1:castep_labels:S:1 n_minim_iter=1 pbc="T T T"
P        8.78741464       3.05344192       3.76340754       0.00000000 NULL
P        5.93447873       5.49145350       5.94401384       0.00000000 NULL
P        7.22046020       6.68389349       1.97380905       0.00000000 NULL
P        9.59766712       4.25305409       5.20792416       0.00000000 NULL
P        7.34173585       6.97458156       5.89748117       0.00000000 NULL
P        9.10216070       6.84615369       2.75808041       0.00000000 NULL
P        6.57424735       1.09537524       0.79509848       0.00000000 NULL
P        3.32592836       2.26474775       5.37232490       0.00000000 NULL
P        3.28511385       5.79094600       0.85189681       0.00000000 NULL
P        6.92033026       5.31441259       0.10964227       0.00000000 NULL
P        7.39946888       1.30424982       4.43765323       0.00000000 NULL
P        3.81027964       5.96426958       5.10443248       0.00000000 NULL
12
Lattice="6.873978817379454 -0.0008211422168728287 -0.0006298564846617785 2.4038403864318214 6.439964041251727 -0.0006298564846630655 2.4038403864318223 1.6683523805192404 6.220107521880167" Properties=species:S:1:pos:R:3:initial_magmoms:R:1:castep_labels:S:1 n_minim_iter=2 pbc="T T T"
P        8.80889692       3.06013225       3.77212602       0.00000000 NULL
P        5.94826115       5.50448313       5.95893143       0.00000000 NULL
P        7.23748789       6.70046634       1.97801134       0.00000000 NULL
P        9.62087018       4.26294393       5.22067323       0.00000000 NULL
P        7.35911759       6.99163179       5.91183020       0.00000000 NULL
P        9.12421406       6.86268676       2.76432836       0.00000000 NULL
P        6.59044571       1.09776871       0.79658212       0.00000000 NULL
P        3.33383702       2.26989641       5.38578824       0.00000000 NULL
P        3.29270376       5.80540269       0.85382401       0.00000000 NULL
P        6.93724140       5.32742490       0.10942598       0.00000000 NULL
P        7.41757481       1.30696700       4.44861434       0.00000000 NULL
P        3.81915885       5.97900569       5.11705628       0.00000000 NULL
12
Lattice="7.296122359280369 -0.02227478504483628 -0.01708585616070063 2.5314136494983517 6.842941076961948 -0.017085856160703322 2.531413649498352 1.756892850314567 6.613581633409194" Properties=species:S:1:pos:R:3:initial_magmoms:R:1:castep_labels:S:1 n_minim_iter=3 pbc="T T T"
P        9.32948509       3.22081227       3.98266436       0.00000000 NULL
P        6.28089801       5.81965183       6.32111635       0.00000000 NULL
P        7.64910486       7.10246384       2.07863932       0.00000000 NULL
P       10.18247253       4.50128258       5.52947942       0.00000000 NULL
P        7.77885386       7.40462834       6.25942060       0.00000000 NULL
P        9.65794660       7.26286589       2.91449499       0.00000000 NULL
P        6.98316110       1.15497768       0.83169564       0.00000000 NULL
P        3.52480858       2.39396860       5.71269365       0.00000000 NULL
P        3.47574140       6.15625619       0.89997855       0.00000000 NULL
P        7.34678658       5.64265599       0.10298775       0.00000000 NULL
P        7.85615379       1.37160166       4.71434011       0.00000000 NULL
P        4.03313064       6.33627304       5.42318608       0.00000000 NULL
12
Lattice="7.344618118044821 -0.038573995581476984 -0.029588152645336808 2.5331086971375454 6.894074526833423 -0.029588152645338105 2.5331086971375467 1.7580692748308966 6.666208177457856" Properties=species:S:1:pos:R:3:initial_magmoms:R:1:castep_labels:S:1 n_minim_iter=4 pbc="T T T"
P        9.37902423       3.22221747       3.99826596       0.00000000 NULL
P        6.29954389       5.84662028       6.36142199       0.00000000 NULL
P        7.68089201       7.14347448       2.07595326       0.00000000 NULL
P       10.22783696       4.50956740       5.55649074       0.00000000 NULL
P        7.80248432       7.44097946       6.29066763       0.00000000 NULL
P        9.70026729       7.29548699       2.91549659       0.00000000 NULL
P        7.02142926       1.15273073       0.82736072       0.00000000 NULL
P        3.53609031       2.39927635       5.74920178       0.00000000 NULL
P        3.48466030       6.19377486       0.89893179       0.00000000 NULL
P        7.38225572       5.67143072       0.09092161       0.00000000 NULL
P        7.89551809       1.36595045       4.73983819       0.00000000 NULL
P        4.04160663       6.37096930       5.45410475       0.00000000 NULL
12
Lattice="7.343908943560714 -0.05751440767443133 -0.04411638068404769 2.5151168727036617 6.900035767663999 -0.04411638068404954 2.5151168727036626 1.7455822963719358 6.675730843636525" Properties=species:S:1:pos:R:3:initial_magmoms:R:1:castep_labels:S:1 n_minim_iter=5 pbc="T T T"
P        9.36393474       3.19858732       3.98583277       0.00000000 NULL
P        6.27212820       5.83309062       6.35897470       0.00000000 NULL
P        7.65862679       7.13568128       2.05635257       0.00000000 NULL
P       10.20023417       4.48340083       5.54440946       0.00000000 NULL
P        7.76831515       7.42498162       6.27766391       0.00000000 NULL
P        9.67332736       7.27608214       2.89335494       0.00000000 NULL
P        7.01125509       1.14078039       0.81569719       0.00000000 NULL
P        3.52133594       2.38662455       5.74705630       0.00000000 NULL
P        3.46764658       6.18926754       0.89041241       0.00000000 NULL
P        7.36605791       5.66053521       0.07558662       0.00000000 NULL
P        7.87964476       1.34819457       4.73283754       0.00000000 NULL
P        4.01941988       6.36196373       5.44755566       0.00000000 NULL
12
Lattice="7.321769492975534 -0.07425203677693548 -0.0569549657810958 2.4916920611795823 6.88515014690946 -0.05695496578109752 2.491692061179583 1.7293246278969407 6.664680993488253" Properties=species:S:1:pos:R:3:initial_magmoms:R:1:castep_labels:S:1 n_minim_iter=6 pbc="T T T"
P        9.32534174       3.16795056       3.96332312       0.00000000 NULL
P        6.22992674       5.80475770       6.34023977       0.00000000 NULL
P        7.61732132       7.10990919       2.03259604       0.00000000 NULL
P       10.14198192       4.44666332       5.51802976       0.00000000 NULL
P        7.71352132       7.38869100       6.24420520       0.00000000 NULL
P        9.62016199       7.23375350       2.86470904       0.00000000 NULL
P        6.97770759       1.13103223       0.80433402       0.00000000 NULL
P        3.50046831       2.36838858       5.72294046       0.00000000 NULL
P        3.44326299       6.16256251       0.88394213       0.00000000 NULL
P        7.33000459       5.63196341       0.06745560       0.00000000 NULL
P        7.84026621       1.33417842       4.71197656       0.00000000 NULL
P        3.99251413       6.33352567       5.42206721       0.00000000 NULL
12
Lattice="7.310496162981574 -0.06058861854262885 -0.04647445168657203 2.500548655138407 6.869809426246896 -0.04647445168657396 2.5005486551384077 1.7354714252042405 6.64714828779303" Properties=species:S:1:pos:R:3:initial_magmoms:R:1:castep_labels:S:1 n_minim_iter=7 pbc="T T T"
P        9.33045340       3.17832067       3.96562027       0.00000000 NULL
P        6.24142979       5.80727727       6.34076588       0.00000000 NULL
P        7.62370563       7.11298166       2.04201653       0.00000000 NULL
P       10.13032044       4.45828730       5.52100286       0.00000000 NULL
P        7.72033155       7.38767752       6.22895592       0.00000000 NULL
P        9.62159486       7.22077050       2.87516539       0.00000000 NULL
P        6.95719956       1.15552740       0.81748013       0.00000000 NULL
P        3.51624188       2.37388590       5.69270163       0.00000000 NULL
P        3.45393079       6.13668797       0.90419353       0.00000000 NULL
P        7.32950767       5.62105022       0.10284959       0.00000000 NULL
P        7.82986869       1.36923189       4.70604150       0.00000000 NULL
P        4.02171572       6.32209121       5.40235427       0.00000000 NULL
12
Lattice="7.24621411447017 -0.013224313449747178 -0.010143699118604044 2.5224337360111266 6.793020088491264 -0.010143699118605444 2.522433736011128 1.750660464783551 6.563567075479726" Properties=species:S:1:pos:R:3:initial_magmoms:R:1:castep_labels:S:1 n_minim_iter=8 pbc="T T T"
P        9.30543986       3.20217451       3.95793157       0.00000000 NULL
P        6.25502646       5.79161589       6.31206657       0.00000000 NULL
P        7.61379003       7.08998370       2.06704799       0.00000000 NULL
P       10.07434431       4.48813391       5.50842587       0.00000000 NULL
P        7.72871124       7.35923437       6.17148336       0.00000000 NULL
P        9.59788009       7.16987448       2.90725171       0.00000000 NULL
P        6.88327860       1.21193752       0.85214689       0.00000000 NULL
P        3.54322943       2.38430757       5.59777400       0.00000000 NULL
P        3.47313462       6.05061085       0.94969228       0.00000000 NULL
P        7.30330774       5.57395766       0.19223520       0.00000000 NULL
P        7.77658638       1.45347201       4.67508136       0.00000000 NULL
P        4.08199463       6.27161585       5.33370573       0.00000000 NULL
12
Lattice="7.310104944390324 -0.003112206858996998 -0.0023872157970600536 2.5542568198524043 6.849336908202784 -0.002387215797061181 2.5542568198524056 1.7727468387298957 6.615949699524722" Properties=species:S:1:pos:R:3:initial_magmoms:R:1:castep_labels:S:1 n_minim_iter=9 pbc="T T T"
P        9.40069276       3.23988781       3.99518456       0.00000000 NULL
P        6.32367775       5.84730297       6.37585639       0.00000000 NULL
P        7.68997392       7.16321314       2.09381846       0.00000000 NULL
P       10.16981280       4.54773167       5.56539166       0.00000000 NULL
P        7.81793973       7.43202916       6.22296561       0.00000000 NULL
P        9.69728898       7.23466170       2.95005026       0.00000000 NULL
P        6.93961636       1.23845957       0.86902676       0.00000000 NULL
P        3.58778350       2.41188421       5.63541382       0.00000000 NULL
P        3.51455456       6.09528169       0.97093368       0.00000000 NULL
P        7.37670877       5.62067400       0.21597500       0.00000000 NULL
P        7.84602782       1.48998613       4.71955957       0.00000000 NULL
P        4.14049331       6.32812344       5.37267369       0.00000000 NULL
12
Lattice="7.255515858438944 -0.008294429200367047 -0.00636223532426074 2.530306021616502 6.800009603418662 -0.006362235324262331 2.530306021616503 1.7561241164070065 6.569337803188235" Properties=species:S:1:pos:R:3:initial_magmoms:R:1:castep_labels:S:1 n_minim_iter=10 pbc="T T T"
P        9.32815618       3.20809043       3.96145347       0.00000000 NULL
P        6.26851508       5.79999629       6.32970911       0.00000000 NULL
P        7.62635945       7.10953856       2.07184907       0.00000000 NULL
P       10.08530004       4.50851057       5.52090819       0.00000000 NULL
P        7.75163295       7.37210283       6.17127687       0.00000000 NULL
P        9.61795383       7.17407344       2.92369733       0.00000000 NULL
P        6.88401997       1.22641503       0.85990662       0.00000000 NULL
P        3.55705158       2.39066970       5.59154241       0.00000000 NULL
P        3.48392996       6.04737117       0.96166419       0.00000000 NULL
P        7.31796700       5.57397422       0.21147966       0.00000000 NULL
P        7.78172990       1.47561650       4.68335232       0.00000000 NULL
P        4.10453929       6.27884545       5.32873439       0.00000000 NULL
12
Lattice="7.2505145228592385 -0.005408428533843639 -0.004148530807308056 2.5312601490449067 6.794314693561748 -0.004148530807309201 2.5312601490449085 1.7567863154346468 6.563263761830577" Properties=species:S:1:pos:R:3:initial_magmoms:R:1:castep_labels:S:1 n_minim_iter=11 pbc="T T T"
P        9.32612982       3.20819084       3.95925502       0.00000000 NULL
P        6.26790030       5.79737187       6.32841144       0.00000000 NULL
P        7.62368579       7.10837389       2.07251580       0.00000000 NULL
P       10.07960970       4.51142982       5.51949192       0.00000000 NULL
P        7.75237720       7.36908878       6.16550891       0.00000000 NULL
P        9.61539056       7.16895648       2.92688388       0.00000000 NULL
P        6.87755816       1.23027360       0.86224669       0.00000000 NULL
P        3.55840594       2.39101120       5.58378557       0.00000000 NULL
P        3.48472366       6.04017721       0.96478449       0.00000000 NULL
P        7.31573048       5.56870683       0.21822711       0.00000000 NULL
P        7.77601294       1.48206796       4.68135969       0.00000000 NULL
P        4.10858328       6.27494805       5.32189831       0.00000000 NULL
12
Lattice="7.227716159238032 0.006249717992772374 0.004793841217977287 2.5342065547676773 6.768878568511779 0.004793841217974598 2.534206554767678 1.7588312278295406 6.536379178733689" Properties=species:S:1:pos:R:3:initial_magmoms:R:1:castep_labels:S:1 n_minim_iter=12 pbc="T T T"
P        9.31504028       3.20715062       3.94842394       0.00000000 NULL
P        6.26304653       5.78431278       6.32153588       0.00000000 NULL
P        7.60975387       7.10173871       2.07431806       0.00000000 NULL
P       10.05257122       4.52222312       5.51180730       0.00000000 NULL
P        7.75303015       7.35412373       6.13938901       0.00000000 NULL
P        9.60159942       7.14524416       2.93929995       0.00000000 NULL
P        6.84859079       1.24571305       0.87159399       0.00000000 NULL
P        3.56273675       2.39160667       5.54993669       0.00000000 NULL
P        3.48679648       6.00848223       0.97727404       0.00000000 NULL
P        7.30436378       5.54466705       0.24613952       0.00000000 NULL
P        7.74951579       1.50844648       4.67196338       0.00000000 NULL
P        4.12402612       6.25704832       5.29144615       0.00000000 NULL
12
Lattice="7.182984893972992 0.0276687679717682 0.02122330647671638 2.538624742236724 6.719480780973244 0.021223306476714412 2.538624742236726 1.7618976101164718 6.484411245909102" Properties=species:S:1:pos:R:3:initial_magmoms:R:1:castep_labels:S:1 n_minim_iter=13 pbc="T T T"
P        9.29460639       3.20191740       3.92132667       0.00000000 NULL
P        6.25099590       5.75365470       6.31183758       0.00000000 NULL
P        7.57681731       7.09222541       2.07628608       0.00000000 NULL
P        9.99514930       4.54589228       5.49545400       0.00000000 NULL
P        7.75511693       7.32224230       6.08367406       0.00000000 NULL
P        9.57246227       7.09482959       2.96639853       0.00000000 NULL
P        6.78944724       1.27631808       0.89024089       0.00000000 NULL
P        3.57071893       2.39248290       5.48125008       0.00000000 NULL
P        3.49040962       5.94400078       1.00200098       0.00000000 NULL
P        7.28302145       5.49131893       0.30404360       0.00000000 NULL
P        7.69207240       1.56402708       4.65567063       0.00000000 NULL
P        4.15600064       6.22232717       5.22491442       0.00000000 NULL
12
Lattice="7.051602776797761 0.04555678649268649 0.03494429686262759 2.5094233649635678 6.5901419952769125 0.03494429686262357 2.5094233649635687 1.7416307955795778 6.355935398797285" Properties=species:S:1:pos:R:3:initial_magmoms:R:1:castep_labels:S:1 n_minim_iter=14 pbc="T T T"
P        9.16042820       3.15498548       3.83729399       0.00000000 NULL
P        6.16009184       5.64417146       6.22806554       0.00000000 NULL
P        7.44245183       6.99917082       2.05273522       0.00000000 NULL
P        9.81272295       4.51199044       5.40736217       0.00000000 NULL
P        7.65954185       7.19594348       5.95289602       0.00000000 NULL
P        9.42070964       6.95676535       2.95648454       0.00000000 NULL
P        6.65062703       1.28715078       0.89722906       0.00000000 NULL
P        3.53230604       2.36454707       5.35017272       0.00000000 NULL
P        3.45080145       5.81060821       1.01065255       0.00000000 NULL
P        7.17502062       5.36451809       0.35682335       0.00000000 NULL
P        7.53550278       1.60027816       4.58711302       0.00000000 NULL
P        4.13519122       6.11481295       5.08876747       0.00000000 NULL
12
Lattice="7.14435161026165 0.05561336265602342 0.042658185613968905 2.551289342096208 6.673512978189257 0.04265818561396608 2.55128934209621 1.7706873015798295 6.434458926039097" Properties=species:S:1:pos:R:3:initial_magmoms:R:1:castep_labels:S:1 n_minim_iter=15 pbc="T T T"
P        9.28963034       3.20787486       3.88925855       0.00000000 NULL
P        6.25483627       5.72093400       6.31363305       0.00000000 NULL
P        7.54750734       7.09785827       2.09035067       0.00000000 NULL
P        9.95125987       4.58682349       5.48434727       0.00000000 NULL
P        7.77810896       7.29714873       6.03301160       0.00000000 NULL
P        9.55699704       7.05375498       3.00880972       0.00000000 NULL
P        6.73968506       1.31481732       0.91621805       0.00000000 NULL
P        3.58937828       2.40200094       5.41648501       0.00000000 NULL
P        3.50585360       5.88511569       1.03245274       0.00000000 NULL
P        7.27828446       5.43574784       0.37647864       0.00000000 NULL
P        7.63835526       1.63787521       4.65138787       0.00000000 NULL
P        4.20639203       6.19845430       5.15246987       0.00000000 NULL
12
Lattice="7.114270055958797 0.054323891816338565 0.04166909803148899 2.539558411102436 6.645783068302255 0.04166909803148506 2.5395584111024374 1.7625456101598695 6.4079327303561655" Properties=species:S:1:pos:R:3:initial_magmoms:R:1:castep_labels:S:1 n_minim_iter=16 pbc="T T T"
P        9.25089683       3.19252488       3.87046380       0.00000000 NULL
P        6.22690661       5.69476910       6.28864343       0.00000000 NULL
P        7.51322539       7.06931357       2.08039591       0.00000000 NULL
P        9.90674299       4.56739288       5.46022976       0.00000000 NULL
P        7.74433340       7.26480875       6.00554722       0.00000000 NULL
P        9.51488518       7.02196060       2.99629317       0.00000000 NULL
P        6.71016651       1.30925394       0.91243468       0.00000000 NULL
P        3.57384042       2.39168457       5.39263637       0.00000000 NULL
P        3.49075367       5.85924476       1.02805992       0.00000000 NULL
P        7.24761018       5.41010723       0.37597156       0.00000000 NULL
P        7.60360436       1.63226274       4.63242778       0.00000000 NULL
P        4.18897784       6.17221385       5.12783667       0.00000000 NULL
12
Lattice="7.109413947745813 0.05600878883337584 0.042961496948953154 2.539438123789592 6.640644372368791 0.04296149694894939 2.5394381237895933 1.762462126403684 6.402634662659268" Properties=species:S:1:pos:R:3:initial_magmoms:R:1:castep_labels:S:1 n_minim_iter=17 pbc="T T T"
P        9.24716912       3.19200067       3.86669000       0.00000000 NULL
P        6.22511153       5.69026673       6.28642567       0.00000000 NULL
P        7.50837954       7.06714393       2.08086762       0.00000000 NULL
P        9.90065700       4.56810783       5.45725517       0.00000000 NULL
P        7.74287421       7.26039340       6.00056987       0.00000000 NULL
P        9.51023834       7.01719931       2.99775458       0.00000000 NULL
P        6.70521687       1.31104245       0.91376568       0.00000000 NULL
P        3.57378448       2.39160627       5.38720866       0.00000000 NULL
P        3.49066075       5.85399600       1.02944239       0.00000000 NULL
P        7.24491777       5.40473281       0.38027487       0.00000000 NULL
P        7.59762767       1.63625258       4.63069223       0.00000000 NULL
P        4.19062487       6.16872485       5.12153064       0.00000000 NULL
12
Lattice="7.087876031263563 0.06568953612837579 0.05038710646561286 2.5409729847794056 6.61708077934209 0.05038710646560904 2.5409729847794065 1.7635273755777037 6.377951716376072" Properties=species:S:1:pos:R:3:initial_magmoms:R:1:castep_labels:S:1 n_minim_iter=18 pbc="T T T"
P        9.23402529       3.19182288       3.84773459       0.00000000 NULL
P        6.22034708       5.66878395       6.27950544       0.00000000 NULL
P        7.48658737       7.06125096       2.08560832       0.00000000 NULL
P        9.87422750       4.57655823       5.44485244       0.00000000 NULL
P        7.74154532       7.24123169       5.97701529       0.00000000 NULL
P        9.49182242       6.99586398       3.00913052       0.00000000 NULL
P        6.68278207       1.32271936       0.92234966       0.00000000 NULL
P        3.57687565       2.39339160       5.36073958       0.00000000 NULL
P        3.49341461       5.82901985       1.03849577       0.00000000 NULL
P        7.23609503       5.37820337       0.40578752       0.00000000 NULL
P        7.56968806       1.66115665       4.62506081       0.00000000 NULL
P        4.20418184       6.15424485       5.08929580       0.00000000 NULL
12
Lattice="6.8984817795551905 0.1073362820258612 0.08233220979808047 2.513735824635108 6.425083979547672 0.08233220979807591 2.5137358246351074 1.7446237989418296 6.184235646963668" Properties=species:S:1:pos:R:3:initial_magmoms:R:1:castep_labels:S:1 n_minim_iter=19 pbc="T T T"
P        9.07243419       3.14226915       3.65477383       0.00000000 NULL
P        6.11739746       5.44767641       6.20004511       0.00000000 NULL
P        7.24343639       6.97955578       2.08775469       0.00000000 NULL
P        9.59378963       4.58648105       5.30350291       0.00000000 NULL
P        7.65274030       7.03572617       5.75655056       0.00000000 NULL
P        9.26823567       6.78000142       3.05534603       0.00000000 NULL
P        6.48456582       1.38248685       0.96710304       0.00000000 NULL
P        3.56352829       2.38307411       5.14959959       0.00000000 NULL
P        3.47907991       5.62278825       1.08462316       0.00000000 NULL
P        7.12182680       5.13485173       0.56962976       0.00000000 NULL
P        7.30173897       1.81372028       4.56142787       0.00000000 NULL
P        4.25337423       6.01390149       4.81179737       0.00000000 NULL
