27
Lattice="4.56892 0.0 0.0 0.0 11.98545 2.3091609413734866e-15 0.0 -5.992725000000001 10.379704175788198" Properties=species:S:1:pos:R:3:initial_magmoms:R:1:castep_labels:S:1 n_minim_iter=1 pbc="T T T"
P        2.23108862      -0.16901582       2.14069254       0.00000000 NULL
P        2.23108862       4.22333938       9.16298487       0.00000000 NULL
P        2.23108862      -4.05432177       9.45572989       0.00000000 NULL
P        3.41972834       0.42537201       8.16881888       0.00000000 NULL
P        3.41972834      -1.29436508       6.66367666       0.00000000 NULL
P        3.41972834       0.86899486       5.92691176       0.00000000 NULL
P        3.26934553       6.78219820       6.99927326       0.00000000 NULL
P        3.26934553       2.53280304       2.37391826       0.00000000 NULL
P        3.26934553       8.66317555       1.00651160       0.00000000 NULL
P        3.47587625       0.94536915       3.60492731       0.00000000 NULL
P        3.47587625       2.39808239       9.39595318       0.00000000 NULL
P        3.47587625      -3.34344975       7.75852681       0.00000000 NULL
P        1.56703402       0.13022191       8.90422092       0.00000000 NULL
P        1.56703402      -1.78366688       6.04036816       0.00000000 NULL
P        1.56703402       1.65344676       5.81481822       0.00000000 NULL
P        1.01076253      -3.93883357       7.86455239       0.00000000 NULL
P        1.01076253       1.15124022       3.03629701       0.00000000 NULL
P        1.01076253       2.78759514       9.85855790       0.00000000 NULL
P        2.98588608       1.11179731       0.74899842       0.00000000 NULL
P        2.98588608      10.78090028       0.58834446       0.00000000 NULL
P        2.98588608       6.08547920       9.04236024       0.00000000 NULL
P        3.24255064       4.51680193       2.75239654       0.00000000 NULL
P        3.24255064       7.34340430       2.53546590       0.00000000 NULL
P        3.24255064       6.11797056       5.09184068       0.00000000 NULL
P        3.74524470      -2.66755486       9.86535454       0.00000000 NULL
P        3.74524470      -1.21714463       3.13685559       0.00000000 NULL
P        3.74524470       3.88470128       7.75719717       0.00000000 NULL
27
Lattice="4.588959035300252 0.0 0.0 0.0 12.063798873831226 6.460275758699502e-16 0.0 -6.031899436915612 10.447556290883943" Properties=species:S:1:pos:R:3:initial_magmoms:R:1:castep_labels:S:1 n_minim_iter=2 pbc="T T T"
P        2.24058184      -0.17046005       2.15481890       0.00000000 NULL
P        2.24058184       4.25100215       9.22252306       0.00000000 NULL
P        2.24058184      -4.08054030       9.51776957       0.00000000 NULL
P        3.43496251       0.42811143       8.22220791       0.00000000 NULL
P        3.43496251      -1.30279660       6.70720666       0.00000000 NULL
P        3.43496251       0.87468698       5.96569696       0.00000000 NULL
P        3.28371372       6.82626396       7.04488226       0.00000000 NULL
P        3.28371372       2.54962049       2.38927582       0.00000000 NULL
P        3.28371372       8.71981567       1.01339715       0.00000000 NULL
P        3.49126466       0.95143726       3.62878689       0.00000000 NULL
P        3.49126466       2.41355977       9.45713063       0.00000000 NULL
P        3.49126466      -3.36499522       7.80919400       0.00000000 NULL
P        1.57363030       0.13107762       8.96251106       0.00000000 NULL
P        1.57363030      -1.79540104       6.07981626       0.00000000 NULL
P        1.57363030       1.66432522       5.85278420       0.00000000 NULL
P        1.01502272      -3.96449430       7.91565577       0.00000000 NULL
P        1.01502272       1.15898820       3.05637458       0.00000000 NULL
P        1.01502272       2.80550790       9.92308118       0.00000000 NULL
P        2.99921817       1.11918704       0.75393712       0.00000000 NULL
P        2.99921817      10.85127725       0.59227480       0.00000000 NULL
P        2.99921817       6.12523582       9.10134331       0.00000000 NULL
P        3.25676496       4.54639683       2.77035722       0.00000000 NULL
P        3.25676496       7.39140132       2.55211549       0.00000000 NULL
P        3.25676496       6.15790196       5.12508252       0.00000000 NULL
P        3.76177628      -2.68484039       9.92993801       0.00000000 NULL
P        3.76177628      -1.22525835       3.15744626       0.00000000 NULL
P        3.76177628       3.91010054       7.80772726       0.00000000 NULL
27
Lattice="4.777354980095194 0.0 8.166085080584052e-45 1.1471538299344262e-60 12.845249162587463 2.2909731698658247e-15 1.855176877922573e-44 -6.422624581293732 11.124312092741528" Properties=species:S:1:pos:R:3:initial_magmoms:R:1:castep_labels:S:1 n_minim_iter=3 pbc="T T T"
P        2.32960130      -0.18512803       2.29576644       0.00000000 NULL
P        2.32960130       4.52699717       9.81610218       0.00000000 NULL
P        2.32960130      -4.34186722      10.13675444       0.00000000 NULL
P        3.57833362       0.45532768       8.75464701       0.00000000 NULL
P        3.57833362      -1.38678534       7.14131281       0.00000000 NULL
P        3.57833362       0.93145958       6.35266323       0.00000000 NULL
P        3.41885602       7.26555911       7.49967430       0.00000000 NULL
P        3.41885602       2.71756178       2.54232050       0.00000000 NULL
P        3.41885602       9.28475477       1.08231617       0.00000000 NULL
P        3.63614974       1.01190203       3.86691857       0.00000000 NULL
P        3.63614974       2.56782448      10.06718455       0.00000000 NULL
P        3.63614974      -3.57972459       8.31451993       0.00000000 NULL
P        1.63547654       0.13969651       9.54397313       0.00000000 NULL
P        1.63547654      -1.91254622       6.47330514       0.00000000 NULL
P        1.63547654       1.77285163       6.23134480       0.00000000 NULL
P        1.05489219      -4.22030692       8.42519512       0.00000000 NULL
P        1.05489219       1.23634567       3.25682041       0.00000000 NULL
P        1.05489219       2.98396317      10.56660753       0.00000000 NULL
P        3.12470203       1.19299087       0.80323773       0.00000000 NULL
P        3.12470203      11.55313008       0.63154042       0.00000000 NULL
P        3.12470203       6.52175471       9.68953282       0.00000000 NULL
P        3.39039558       4.84135038       2.94938512       0.00000000 NULL
P        3.39039558       7.87033217       2.71803874       0.00000000 NULL
P        3.39039558       6.55619311       5.45688711       0.00000000 NULL
P        3.91722004      -2.85724766      10.57409852       0.00000000 NULL
P        3.91722004      -1.30618890       3.36281266       0.00000000 NULL
P        3.91722004       4.16343848       8.31171188       0.00000000 NULL
27
Lattice="4.742254916929013 -3.6114705241391236e-46 1.1061142887926986e-44 -9.710444151459519e-46 13.031250582713872 -2.210567342962627e-15 1.7143328488255076e-44 -6.515625291356933 11.285394047710982" Properties=species:S:1:pos:R:3:initial_magmoms:R:1:castep_labels:S:1 n_minim_iter=4 pbc="T T T"
P        2.31089383      -0.19014637       2.32982532       0.00000000 NULL
P        2.31089383       4.59301121       9.95580867       0.00000000 NULL
P        2.31089383      -4.40286289      10.28515297       0.00000000 NULL
P        3.55255980       0.46111296       8.88117424       0.00000000 NULL
P        3.55255980      -1.40625305       7.24414133       0.00000000 NULL
P        3.55255980       0.94514204       6.44547138       0.00000000 NULL
P        3.39414719       7.36838040       7.60628049       0.00000000 NULL
P        3.39414719       2.75982889       2.57806324       0.00000000 NULL
P        3.39414719       9.41866853       1.10104918       0.00000000 NULL
P        3.61077427       1.02554477       3.92443083       0.00000000 NULL
P        3.61077427       2.60419675      10.21132532       0.00000000 NULL
P        3.61077427      -3.62973958       8.43503080       0.00000000 NULL
P        1.62284886       0.14223513       9.68282296       0.00000000 NULL
P        1.62284886      -1.94106229       6.56716067       0.00000000 NULL
P        1.62284886       1.79882911       6.32080333       0.00000000 NULL
P        1.04617925      -4.28025649       8.54525581       0.00000000 NULL
P        1.04617925       1.25534556       3.30595415       0.00000000 NULL
P        1.04617925       3.02491287      10.71957699       0.00000000 NULL
P        3.10281713       1.21111915       0.81532621       0.00000000 NULL
P        3.10281713      11.71959844       0.64119571       0.00000000 NULL
P        3.10281713       6.61616023       9.82887098       0.00000000 NULL
P        3.36542715       4.90913002       2.99132282       0.00000000 NULL
P        3.36542715       7.98612466       2.75576876       0.00000000 NULL
P        3.36542715       6.65162314       5.53830132       0.00000000 NULL
P        3.88832392      -2.89891198      10.72700548       0.00000000 NULL
P        3.88832392      -1.32477732       3.41135876       0.00000000 NULL
P        3.88832392       4.22369125       8.43242272       0.00000000 NULL
27
Lattice="4.670030667306838 -5.6642981804495526e-46 6.161425085800884e-45 -1.5128898009020438e-45 13.129241857910698 -4.744705609226615e-16 4.167457160662184e-44 -6.564620928955348 11.370256981380663" Properties=species:S:1:pos:R:3:initial_magmoms:R:1:castep_labels:S:1 n_minim_iter=5 pbc="T T T"
P        2.27405194      -0.19418655       2.34824058       0.00000000 NULL
P        2.27405194       4.62807886      10.02796506       0.00000000 NULL
P        2.27405194      -4.43389035      10.36430717       0.00000000 NULL
P        3.49907918       0.46373722       8.94741722       0.00000000 NULL
P        3.49907918      -1.41593764       7.29815544       0.00000000 NULL
P        3.49907918       0.95220238       6.49494015       0.00000000 NULL
P        3.34293424       7.42091120       7.66075671       0.00000000 NULL
P        3.34293424       2.78437698       2.59631812       0.00000000 NULL
P        3.34293424       9.48857657       1.11318099       0.00000000 NULL
P        3.55721191       1.03208032       3.95562373       0.00000000 NULL
P        3.55721191       2.62291078      10.28625175       0.00000000 NULL
P        3.55721191      -3.65498914       8.49863733       0.00000000 NULL
P        1.59741917       0.14372567       9.75651330       0.00000000 NULL
P        1.59741917      -1.95662963       6.61646928       0.00000000 NULL
P        1.59741917       1.81290591       6.36753024       0.00000000 NULL
P        1.02928772      -4.31121985       8.60715151       0.00000000 NULL
P        1.02928772       1.26621964       3.33305417       0.00000000 NULL
P        1.02928772       3.04500217      10.80030713       0.00000000 NULL
P        3.05667860       1.22135603       0.82219444       0.00000000 NULL
P        3.05667860      11.80652321       0.64662699       0.00000000 NULL
P        3.05667860       6.66598550       9.90143440       0.00000000 NULL
P        3.31412438       4.94242151       3.01288393       0.00000000 NULL
P        3.31412438       8.04879773       2.77381948       0.00000000 NULL
P        3.31412438       6.70264551       5.58355242       0.00000000 NULL
P        3.82882066      -2.92133171      10.80714674       0.00000000 NULL
P        3.82882066      -1.33397619       3.43673500       0.00000000 NULL
P        3.82882066       4.25530985       8.49663107       0.00000000 NULL
27
Lattice="4.490911810055646 -1.6931632856562282e-45 -1.0179837122500787e-44 -4.5947598191137336e-45 13.358293386539483 -4.312894192005961e-16 4.1066902521328783e-44 -6.6791466932697405 11.568621423948853" Properties=species:S:1:pos:R:3:initial_magmoms:R:1:castep_labels:S:1 n_minim_iter=6 pbc="T T T"
P        2.18213871      -0.20631231       2.39176239       0.00000000 NULL
P        2.18213871       4.71097651      10.19406736       0.00000000 NULL
P        2.18213871      -4.50466221      10.55141192       0.00000000 NULL
P        3.36791409       0.46962860       9.10063104       0.00000000 NULL
P        3.36791409      -1.43704462       7.42501504       0.00000000 NULL
P        3.36791409       0.96741802       6.61159559       0.00000000 NULL
P        3.21623747       7.54090934       7.78473124       0.00000000 NULL
P        3.21623747       2.84606436       2.63825227       0.00000000 NULL
P        3.21623747       9.65046838       1.14563674       0.00000000 NULL
P        3.42456490       1.04652514       4.03046094       0.00000000 NULL
P        3.42456490       2.66540322      10.45970715       0.00000000 NULL
P        3.42456490      -3.71192636       8.64707359       0.00000000 NULL
P        1.53283007       0.14696762       9.93058837       0.00000000 NULL
P        1.53283007      -1.99447826       6.73060377       0.00000000 NULL
P        1.53283007       1.84751263       6.47604954       0.00000000 NULL
P        0.98725926      -4.38312899       8.74906023       0.00000000 NULL
P        0.98725926       1.29380342       3.39818909       0.00000000 NULL
P        0.98725926       3.08932756      10.98999235       0.00000000 NULL
P        2.94255366       1.24649407       0.83937013       0.00000000 NULL
P        2.94255366      12.00813116       0.65980930       0.00000000 NULL
P        2.94255366       6.78281685      10.06944082       0.00000000 NULL
P        3.18690444       5.01566611       3.06226165       0.00000000 NULL
P        3.18690444       8.19846461       2.81256228       0.00000000 NULL
P        3.18690444       6.82331136       5.69379632       0.00000000 NULL
P        3.68116866      -2.97443240      10.99391142       0.00000000 NULL
P        3.68116866      -1.35464303       3.49573054       0.00000000 NULL
P        3.68116866       4.32907742       8.64759972       0.00000000 NULL
27
Lattice="4.577489044289462 -1.5564049278178268e-45 4.2202727723452756e-45 -4.283597688539555e-45 13.339597621523925 -5.871989345453584e-17 5.953803188504713e-44 -6.669798810761962 11.552430416502196" Properties=species:S:1:pos:R:3:initial_magmoms:R:1:castep_labels:S:1 n_minim_iter=7 pbc="T T T"
P        2.22216724      -0.21065844       2.38907615       0.00000000 NULL
P        2.22216724       4.70612805      10.17545562       0.00000000 NULL
P        2.22216724      -4.49546762      10.54032789       0.00000000 NULL
P        3.43621864       0.46874600       9.08493887       0.00000000 NULL
P        3.43621864      -1.43236139       7.41590577       0.00000000 NULL
P        3.43621864       0.96361738       6.60401502       0.00000000 NULL
P        3.27922562       7.52568869       7.76827534       0.00000000 NULL
P        3.27922562       2.84923015       2.63329876       0.00000000 NULL
P        3.27922562       9.63447959       1.15085515       0.00000000 NULL
P        3.49074366       1.04366997       4.02835484       0.00000000 NULL
P        3.49074366       2.65930685      10.44209654       0.00000000 NULL
P        3.49074366      -3.70297483       8.63440828       0.00000000 NULL
P        1.55884188       0.14607997       9.92048874       0.00000000 NULL
P        1.55884188      -1.99463579       6.71869385       0.00000000 NULL
P        1.55884188       1.84855781       6.46567707       0.00000000 NULL
P        1.00649363      -4.37703606       8.73207208       0.00000000 NULL
P        1.00649363       1.29612125       3.39576880       0.00000000 NULL
P        1.00649363       3.08091680      10.97701879       0.00000000 NULL
P        3.00043881       1.24672133       0.84042449       0.00000000 NULL
P        3.00043881      11.98840865       0.65947894       0.00000000 NULL
P        3.00043881       6.77426844      10.05252582       0.00000000 NULL
P        3.24829142       5.00078774       3.05610786       0.00000000 NULL
P        3.24829142       8.19253737       2.80275413       0.00000000 NULL
P        3.24829142       6.81607332       5.69356726       0.00000000 NULL
P        3.75188506      -2.97140488      10.97773867       0.00000000 NULL
P        3.75188506      -1.35149866       3.49024781       0.00000000 NULL
P        3.75188506       4.32290553       8.63687318       0.00000000 NULL
27
Lattice="4.544987158267168 -1.0088550169686043e-45 4.76698927998465e-45 -2.6826365278017288e-45 13.2657490255682 1.6527407918567686e-16 5.61421732807816e-44 -6.632874512784099 11.488475656370724" Properties=species:S:1:pos:R:3:initial_magmoms:R:1:castep_labels:S:1 n_minim_iter=8 pbc="T T T"
P        2.20528525      -0.21149128       2.37638591       0.00000000 NULL
P        2.20528525       4.68061024      10.11712473       0.00000000 NULL
P        2.20528525      -4.46911698      10.48343951       0.00000000 NULL
P        3.41277246       0.46581217       9.03367977       0.00000000 NULL
P        3.41277246      -1.42342709       7.37503979       0.00000000 NULL
P        3.41277246       0.95761690       6.56823059       0.00000000 NULL
P        3.25638980       7.48184306       7.72257649       0.00000000 NULL
P        3.25638980       2.83688072       2.61817676       0.00000000 NULL
P        3.25638980       9.57990174       1.14772124       0.00000000 NULL
P        3.46652718       1.03713801       4.00746464       0.00000000 NULL
P        3.46652718       2.64373998      10.38293004       0.00000000 NULL
P        3.46652718      -3.68087601       8.58655547       0.00000000 NULL
P        1.54677057       0.14520935       9.86684365       0.00000000 NULL
P        1.54677057      -1.98466676       6.68080767       0.00000000 NULL
P        1.54677057       1.83945939       6.42929884       0.00000000 NULL
P        0.99912923      -4.35237418       8.68160901       0.00000000 NULL
P        0.99912923       1.29056831       3.37840339       0.00000000 NULL
P        0.99912923       3.06180786      10.91693775       0.00000000 NULL
P        2.97976300       1.24082977       0.83678328       0.00000000 NULL
P        2.97976300      11.92065922       0.65619731       0.00000000 NULL
P        2.97976300       6.73713653       9.99549391       0.00000000 NULL
P        3.22522008       4.96879368       3.03805432       0.00000000 NULL
P        3.22522008       8.15032062       2.78407324       0.00000000 NULL
P        3.22522008       6.77951122       5.66634694       0.00000000 NULL
P        3.72497947      -2.95564526      10.91636394       0.00000000 NULL
P        3.72497947      -1.34315069       3.47062865       0.00000000 NULL
P        3.72497947       4.29879793       8.58995756       0.00000000 NULL
27
Lattice="4.552359767929264 -1.16465482341264e-45 7.647386459362898e-46 -3.136628682051535e-45 13.28873612588871 5.782650469428027e-16 4.798364432938163e-44 -6.644368062944354 11.508383069207627" Properties=species:S:1:pos:R:3:initial_magmoms:R:1:castep_labels:S:1 n_minim_iter=9 pbc="T T T"
P        2.20795439      -0.21339316       2.38082962       0.00000000 NULL
P        2.20795439       4.68920636      10.13316320       0.00000000 NULL
P        2.20795439      -4.47581122      10.50277215       0.00000000 NULL
P        3.41920473       0.46638360       9.04851528       0.00000000 NULL
P        3.41920473      -1.42506718       7.38802432       0.00000000 NULL
P        3.41920473       0.95868557       6.58022537       0.00000000 NULL
P        3.26202868       7.49321251       7.73406866       0.00000000 NULL
P        3.26202868       2.84423059       2.62227691       0.00000000 NULL
P        3.26202868       9.59566307       1.15203634       0.00000000 NULL
P        3.47249864       1.03849639       4.01561687       0.00000000 NULL
P        3.47249864       2.64749430      10.39993773       0.00000000 NULL
P        3.47249864      -3.68598871       8.60121037       0.00000000 NULL
P        1.54831735       0.14540821       9.88502142       0.00000000 NULL
P        1.54831735      -1.98901505       6.69179840       0.00000000 NULL
P        1.54831735       1.84360883       6.43994515       0.00000000 NULL
P        1.00064276      -4.35957097       8.69509780       0.00000000 NULL
P        1.00064276       1.29397862       3.38533380       0.00000000 NULL
P        1.00064276       3.06559434      10.93633337       0.00000000 NULL
P        2.98506258       1.24363710       0.83896456       0.00000000 NULL
P        2.98506258      11.94035361       0.65753788       0.00000000 NULL
P        2.98506258       6.74911547      10.01187946       0.00000000 NULL
P        3.23044744       4.97457158       3.04246390       0.00000000 NULL
P        3.23044744       8.16659996       2.78687225       0.00000000 NULL
P        3.23044744       6.79193463       5.67904575       0.00000000 NULL
P        3.73093688      -2.96108588      10.93504295       0.00000000 NULL
P        3.73093688      -1.34511333       3.47648484       0.00000000 NULL
P        3.73093688       4.30620119       8.60523718       0.00000000 NULL
27
Lattice="4.55083972902059 -1.1668684996609072e-45 -1.9265751065760643e-45 -3.1419647937165626e-45 13.289042879292333 2.2734512638827553e-15 4.581882693418266e-44 -6.644521439646168 11.50864872544786" Properties=species:S:1:pos:R:3:initial_magmoms:R:1:castep_labels:S:1 n_minim_iter=10 pbc="T T T"
P        2.20628586      -0.21493292       2.38123978       0.00000000 NULL
P        2.20628586       4.68977441      10.13189031       0.00000000 NULL
P        2.20628586      -4.47483951      10.50416620       0.00000000 NULL
P        3.41891015       0.46614173       9.04792617       0.00000000 NULL
P        3.41891015      -1.42428268       7.38837506       0.00000000 NULL
P        3.41891015       0.95814294       6.58099506       0.00000000 NULL
P        3.26130643       7.49176611       7.73228271       0.00000000 NULL
P        3.26130643       2.84680722       2.62191726       0.00000000 NULL
P        3.26130643       9.59499297       1.15444759       0.00000000 NULL
P        3.47171726       1.03805450       4.01690422       0.00000000 NULL
P        3.47171726       2.64675375      10.39917703       0.00000000 NULL
P        3.47171726      -3.68480626       8.60121504       0.00000000 NULL
P        1.54689187       0.14536889       9.88631580       0.00000000 NULL
P        1.54689187      -1.98996298       6.69138282       0.00000000 NULL
P        1.54689187       1.84459608       6.43959767       0.00000000 NULL
P        1.00020197      -4.35930743       8.69371498       0.00000000 NULL
P        1.00020197       1.29519778       3.38651910       0.00000000 NULL
P        1.00020197       3.06411163      10.93706220       0.00000000 NULL
P        2.98454129       1.24435607       0.83975026       0.00000000 NULL
P        2.98454129      11.93962044       0.65776769       0.00000000 NULL
P        2.98454129       6.74958978      10.01112962       0.00000000 NULL
P        3.22936618       4.97162538       3.04160661       0.00000000 NULL
P        3.22936618       8.16912225       2.78474942       0.00000000 NULL
P        3.22936618       6.79281867       5.68229154       0.00000000 NULL
P        3.72957263      -2.96152906      10.93499973       0.00000000 NULL
P        3.72957263      -1.34470093       3.47638831       0.00000000 NULL
P        3.72957263       4.30623197       8.60590825       0.00000000 NULL
27
Lattice="4.522807790169944 -1.293383329823548e-45 -2.2463888136349908e-45 -3.486762124095714e-45 13.309669238121195 4.4132667976050436e-16 3.959636088199643e-44 -6.654834619060597 11.52651167618123" Properties=species:S:1:pos:R:3:initial_magmoms:R:1:castep_labels:S:1 n_minim_iter=11 pbc="T T T"
P        2.16850109      -0.25413736       2.39397356       0.00000000 NULL
P        2.16850109       4.70866204      10.10943433       0.00000000 NULL
P        2.16850109      -4.45452269      10.54961430       0.00000000 NULL
P        3.41912382       0.46029782       9.04173768       0.00000000 NULL
P        3.41912382      -1.40568815       7.40427128       0.00000000 NULL
P        3.41912382       0.94539232       6.60701323       0.00000000 NULL
P        3.25068760       7.46241783       7.69430532       0.00000000 NULL
P        3.25068760       2.91499711       2.61548960       0.00000000 NULL
P        3.25068760       9.58709090       1.21671559       0.00000000 NULL
P        3.45990545       1.02814116       4.05380567       0.00000000 NULL
P        3.45990545       2.63006600      10.39000405       0.00000000 NULL
P        3.45990545      -3.65820518       8.60921246       0.00000000 NULL
P        1.51449198       0.14466511       9.92891104       0.00000000 NULL
P        1.51449198      -2.01618647       6.68733866       0.00000000 NULL
P        1.51449198       1.87152335       6.43677249       0.00000000 NULL
P        0.99170534      -4.35642637       8.66693920       0.00000000 NULL
P        0.99170534       1.32725894       3.42026501       0.00000000 NULL
P        0.99170534       3.02916942      10.96581797       0.00000000 NULL
P        2.97823341       1.26376020       0.86088326       0.00000000 NULL
P        2.97823341      11.93224302       0.66400565       0.00000000 NULL
P        2.97823341       6.76850262      10.00162159       0.00000000 NULL
P        3.20944323       4.90013920       3.02162052       0.00000000 NULL
P        3.20944323       8.24280016       2.73283361       0.00000000 NULL
P        3.20944323       6.82156649       5.77205638       0.00000000 NULL
P        3.70363988      -2.97548870      10.94459102       0.00000000 NULL
P        3.70363988      -1.33571423       3.47736621       0.00000000 NULL
P        3.70363988       4.31120492       8.63106496       0.00000000 NULL
27
Lattice="4.57259715761766 -3.291129529880004e-45 -4.15682686055719e-46 -9.294469819127846e-45 13.693004331059303 2.826457628891585e-15 4.713941529133932e-44 -6.846502165529653 11.858489604827698" Properties=species:S:1:pos:R:3:initial_magmoms:R:1:castep_labels:S:1 n_minim_iter=12 pbc="T T T"
P        2.15147816      -0.28873206       2.46865060       0.00000000 NULL
P        2.15147816       4.85295474      10.37411381       0.00000000 NULL
P        2.15147816      -4.56422063      10.87421360       0.00000000 NULL
P        3.46943575       0.46495852       9.29145264       0.00000000 NULL
P        3.46943575      -1.43261044       7.61542798       0.00000000 NULL
P        3.46943575       0.96765397       6.81009739       0.00000000 NULL
P        3.30159728       7.66396251       7.91535005       0.00000000 NULL
P        3.30159728       3.00612953       2.67951002       0.00000000 NULL
P        3.30159728       9.86941650       1.26362834       0.00000000 NULL
P        3.50725928       1.05406717       4.20443308       0.00000000 NULL
P        3.50725928       2.67832340      10.66912082       0.00000000 NULL
P        3.50725928      -3.73238852       8.84342411       0.00000000 NULL
P        1.51577141       0.15351144      10.23823390       0.00000000 NULL
P        1.51577141      -2.09682353       6.87231627       0.00000000 NULL
P        1.51577141       1.94331413       6.60642784       0.00000000 NULL
P        1.01194650      -4.46242045       8.88165419       0.00000000 NULL
P        1.01194650       1.38597491       3.55309184       0.00000000 NULL
P        1.01194650       3.07644759      11.28223198       0.00000000 NULL
P        3.02330582       1.31397785       0.91215712       0.00000000 NULL
P        3.02330582      12.24606484       0.68185845       0.00000000 NULL
P        3.02330582       6.97946584      10.26447283       0.00000000 NULL
P        3.24381730       4.98932660       3.06905482       0.00000000 NULL
P        3.24381730       8.54046227       2.78635499       0.00000000 NULL
P        3.24381730       7.00971967       6.00307860       0.00000000 NULL
P        3.74298347      -3.06320764      11.25702764       0.00000000 NULL
P        3.74298347      -1.37076525       3.57715897       0.00000000 NULL
P        3.74298347       4.43397493       8.88279140       0.00000000 NULL
27
Lattice="4.47259023634112 -2.2888895587291186e-46 -6.858263084501731e-45 -2.243868958131977e-46 13.271583859140831 -3.0741678954919108e-15 2.822910053801574e-44 -6.635791929570412 11.493528770471478" Properties=species:S:1:pos:R:3:initial_magmoms:R:1:castep_labels:S:1 n_minim_iter=13 pbc="T T T"
P        2.10391372      -0.28009077       2.39258340       0.00000000 NULL
P        2.10391372       4.70379997      10.05467020       0.00000000 NULL
P        2.10391372      -4.42370722      10.53980278       0.00000000 NULL
P        3.39323945       0.45064082       9.00581137       0.00000000 NULL
P        3.39323945      -1.38878925       7.38088833       0.00000000 NULL
P        3.39323945       0.93815041       6.60035668       0.00000000 NULL
P        3.22965599       7.42874867       7.67253937       0.00000000 NULL
P        3.22965599       2.91259618       2.59721423       0.00000000 NULL
P        3.22965599       9.56603293       1.22377401       0.00000000 NULL
P        3.43098225       1.02112209       4.07508135       0.00000000 NULL
P        3.43098225       2.59610757      10.34030461       0.00000000 NULL
P        3.43098225      -3.61722767       8.57167042       0.00000000 NULL
P        1.48308936       0.14902663       9.92299977       0.00000000 NULL
P        1.48308936      -2.03229061       6.66108858       0.00000000 NULL
P        1.48308936       1.88326596       6.40296803       0.00000000 NULL
P        0.99003745      -4.32459463       8.60747060       0.00000000 NULL
P        0.99003745       1.34380170       3.44458350       0.00000000 NULL
P        0.99003745       2.98079491      10.93500227       0.00000000 NULL
P        2.95731574       1.27418653       0.88487556       0.00000000 NULL
P        2.95731574      11.86816653       0.66103897       0.00000000 NULL
P        2.95731574       6.76502471       9.94761307       0.00000000 NULL
P        3.17288794       4.83467786       2.97367766       0.00000000 NULL