12
Lattice="4.903279999999983 9.447960536708097e-15 3.798762947551568e-07 -0.4001263756164839 6.441795216213871 -3.798762947551572e-07 -2.25157745825124 -3.2208971564773816 8.339058313307348" Properties=species:S:1:pos:R:3:initial_magmoms:R:1:castep_labels:S:1 n_minim_iter=1 pbc="T T T"
P       -1.91085887       2.84750096       7.35962644       0.00000000 NULL
P        3.19248481      -0.37339700       0.97943184       0.00000000 NULL
P        1.05824450       3.31339475       6.82240282       0.00000000 NULL
P        1.25830810       0.09249685       1.51665548       0.00000000 NULL
P       -0.27533096       1.40233907       3.65557288       0.00000000 NULL
P       -0.47539423       4.62323674       4.68348504       0.00000000 NULL
P        0.79705360      -0.00936676       4.64355465       0.00000000 NULL
P        0.59699048       3.21153080       3.69550359       0.00000000 NULL
P        1.74924837       2.98858718       0.63695392       0.00000000 NULL
P        1.94931101      -0.23231004       7.70210452       0.00000000 NULL
P        0.54370392       2.03046877       1.92832211       0.00000000 NULL
P        0.74376676      -1.19042859       6.41073625       0.00000000 NULL
12
Lattice="4.908303534814496 0.0011281988478320836 3.8020438628211137e-07 -0.3990541184411363 6.455962532935272 -3.8056050116624756e-07 -2.254625355231118 -3.228544913573463 8.351771602893722" Properties=species:S:1:pos:R:3:initial_magmoms:R:1:castep_labels:S:1 n_minim_iter=2 pbc="T T T"
P       -1.91200674       2.85335519       7.37091468       0.00000000 NULL
P        3.19582434      -0.37349822       0.98085688       0.00000000 NULL
P        1.05997155       3.32076248       6.83299011       0.00000000 NULL
P        1.25949902       0.09278093       1.51878149       0.00000000 NULL
P       -0.27585670       1.40520360       3.66136853       0.00000000 NULL
P       -0.47538384       4.63318492       4.69040268       0.00000000 NULL
P        0.79822962      -0.00899736       4.65057083       0.00000000 NULL
P        0.59870263       3.21898385       3.70120070       0.00000000 NULL
P        1.75189740       2.99575494       0.63768986       0.00000000 NULL
P        1.95142391      -0.23222595       7.71408188       0.00000000 NULL
P        0.54472852       2.03512766       1.93099093       0.00000000 NULL
P        0.74425524      -1.19285337       6.42078072       0.00000000 NULL
12
Lattice="5.027174870230035 0.028952715235552606 3.879068843276789e-07 -0.37219938447624806 6.802014162736653 -3.972215418405524e-07 -2.327488413593453 -3.4154829701199567 8.657321173593036" Properties=species:S:1:pos:R:3:initial_magmoms:R:1:castep_labels:S:1 n_minim_iter=3 pbc="T T T"
P       -1.93836773       2.99631414       7.64231433       0.00000000 NULL
P        3.27490735      -0.37574058       1.01500680       0.00000000 NULL
P        1.10139582       3.50054414       7.08774905       0.00000000 NULL
P        1.28749594       0.09953676       1.56957210       0.00000000 NULL
P       -0.28860445       1.47501179       3.80091450       0.00000000 NULL
P       -0.47470422       4.87601893       4.85640627       0.00000000 NULL
P        0.82644796       0.00022503       4.81914555       0.00000000 NULL
P        0.64034834       3.40123206       3.83817555       0.00000000 NULL
P        1.81544049       3.17111168       0.65511966       0.00000000 NULL
P        2.00153961      -0.22989500       8.00220164       0.00000000 NULL
P        0.56956545       2.14897977       1.99484553       0.00000000 NULL
P        0.75566478      -1.25202706       6.66247569       0.00000000 NULL
12
Lattice="5.00204544882766 0.05592086167608353 3.8449945962948855e-07 -0.3347187141825209 6.907145188442022 -4.0001148938861035e-07 -2.333664040058467 -3.481532554781283 8.683385917769616" Properties=species:S:1:pos:R:3:initial_magmoms:R:1:castep_labels:S:1 n_minim_iter=4 pbc="T T T"
P       -1.91143275       3.03432125       7.66700096       0.00000000 NULL
P        3.25797257      -0.36333085       1.01638491       0.00000000 NULL
P        1.11184218       3.55746804       7.11548873       0.00000000 NULL
P        1.27920197       0.10389515       1.56789716       0.00000000 NULL
P       -0.28850402       1.49601074       3.81745508       0.00000000 NULL
P       -0.45586346       4.94958339       4.86593042       0.00000000 NULL
P        0.82750677       0.00599345       4.83217247       0.00000000 NULL
P        0.66014748       3.45956599       3.85121336       0.00000000 NULL
P        1.82508241       3.23307640       0.65236835       0.00000000 NULL
P        1.99244119      -0.22049580       8.03101769       0.00000000 NULL
P        0.58047868       2.18559525       1.99570138       0.00000000 NULL
P        0.74783768      -1.26797709       6.68768458       0.00000000 NULL
12
Lattice="4.942457024232131 0.08998954501964354 3.7803780778149097e-07 -0.28509756634935934 7.001872094513685 -4.012973968074835e-07 -2.3286803977523247 -3.545930352232647 8.63272424460753" Properties=species:S:1:pos:R:3:initial_magmoms:R:1:castep_labels:S:1 n_minim_iter=5 pbc="T T T"
P       -1.86556671       3.06623190       7.62512328       0.00000000 NULL
P        3.21943961      -0.34471496       1.00760091       0.00000000 NULL
P        1.11750228       3.60899420       7.08423398       0.00000000 NULL
P        1.26005149       0.10805785       1.54849024       0.00000000 NULL
P       -0.28775405       1.51572513       3.80303171       0.00000000 NULL
P       -0.43030292       5.01666123       4.82969211       0.00000000 NULL
P        0.82464034       0.01247058       4.80147857       0.00000000 NULL
P        0.68209163       3.51340657       3.83124558       0.00000000 NULL
P        1.82764028       3.29405487       0.64101634       0.00000000 NULL
P        1.97018849      -0.20688078       7.99170802       0.00000000 NULL
P        0.59202510       2.21893275       1.97693239       0.00000000 NULL
P        0.73457352      -1.28200304       6.65579189       0.00000000 NULL
12
Lattice="4.914294008355088 0.11402865010307912 3.745539904480667e-07 -0.251217437619695 7.114676861675386 -4.047818893133364e-07 -2.3315389434270384 -3.6143522958711465 8.493947251097076" Properties=species:S:1:pos:R:3:initial_magmoms:R:1:castep_labels:S:1 n_minim_iter=6 pbc="T T T"
P       -1.83299625       3.11065890       7.50793590       0.00000000 NULL
P        3.20690698      -0.33265123       0.98601129       0.00000000 NULL
P        1.11759387       3.66472333       6.98531748       0.00000000 NULL
P        1.24320301       0.10738461       1.50862973       0.00000000 NULL
P       -0.29748424       1.54257349       3.75379469       0.00000000 NULL
P       -0.42309303       5.09991197       4.74015213       0.00000000 NULL
P        0.83004827       0.01609113       4.72046051       0.00000000 NULL
P        0.70443962       3.57342951       3.77348665       0.00000000 NULL
P        1.83733093       3.36114629       0.61841161       0.00000000 NULL
P        1.96293908      -0.19619175       7.87553575       0.00000000 NULL
P        0.60436592       2.25483366       1.93557572       0.00000000 NULL
P        0.72997428      -1.30250452       6.55837157       0.00000000 NULL
12
Lattice="4.919510251456839 0.1262831830329319 3.742944277255646e-07 -0.2355434326357025 7.1708892104056945 -4.06611930336775e-07 -2.3419840516900017 -3.648585747732213 8.2902669692019" Properties=species:S:1:pos:R:3:initial_magmoms:R:1:castep_labels:S:1 n_minim_iter=7 pbc="T T T"
P       -1.81821977       3.13449823       7.33417005       0.00000000 NULL
P        3.21906269      -0.32466353       0.95609685       0.00000000 NULL
P        1.11503901       3.68934182       6.83168849       0.00000000 NULL
P        1.23281114       0.10389693       1.45857843       0.00000000 NULL
P       -0.31134549       1.55902228       3.67528987       0.00000000 NULL
P       -0.42911728       5.14446693       4.61497666       0.00000000 NULL
P        0.84009184       0.01706790       4.60353375       0.00000000 NULL
P        0.72232020       3.60251246       3.68673312       0.00000000 NULL
P        1.85190811       3.39629407       0.59153163       0.00000000 NULL
P        1.96967928      -0.18915015       7.69873544       0.00000000 NULL
P        0.61489503       2.27037170       1.88085437       0.00000000 NULL
P        0.73266639      -1.31507266       6.40941263       0.00000000 NULL
12
Lattice="4.951376653990163 0.14962271749461603 3.754992122687702e-07 -0.20748101048267553 7.221241330151214 -4.071648118974911e-07 -2.371948444734169 -3.6854315883268365 8.041163664257411" Properties=species:S:1:pos:R:3:initial_magmoms:R:1:castep_labels:S:1 n_minim_iter=8 pbc="T T T"
P       -1.80333720       3.15365824       7.12230925       0.00000000 NULL
P        3.25178044      -0.30734004       0.91885436       0.00000000 NULL
P        1.12105985       3.71068455       6.64381834       0.00000000 NULL
P        1.22480077       0.10006360       1.39734528       0.00000000 NULL
P       -0.33031323       1.57482307       3.57975492       0.00000000 NULL
P       -0.43405381       5.18544378       4.46140830       0.00000000 NULL
P        0.85805807       0.02007717       4.46018322       0.00000000 NULL
P        0.75431764       3.63069779       3.58098035       0.00000000 NULL
P        1.88524449       3.43422875       0.55808853       0.00000000 NULL
P        1.98898446      -0.17639154       7.48307524       0.00000000 NULL
P        0.63425516       2.28445682       1.81326260       0.00000000 NULL
P        0.73799532      -1.32616360       6.22790110       0.00000000 NULL
12
Lattice="4.945707638382884 0.21495051922455974 3.715219660984975e-07 -0.1211925172010388 7.1910247518666095 -3.9884322490217753e-07 -2.412258157359777 -3.702987218372773 7.702835968403688" Properties=species:S:1:pos:R:3:initial_magmoms:R:1:castep_labels:S:1 n_minim_iter=9 pbc="T T T"
P       -1.74376930       3.12739557       6.83404630       0.00000000 NULL
P        3.26253506      -0.25316661       0.86878961       0.00000000 NULL
P        1.14009882       3.69438983       6.39024231       0.00000000 NULL
P        1.20069547       0.09887718       1.31259362       0.00000000 NULL
P       -0.34935313       1.57159308       3.45148835       0.00000000 NULL
P       -0.40994945       5.16710550       4.25134718       0.00000000 NULL
P        0.87713019       0.03126675       4.26393167       0.00000000 NULL
P        0.81653400       3.62677908       3.43890422       0.00000000 NULL
P        1.93627943       3.45416535       0.51090318       0.00000000 NULL
P        1.99687517      -0.14134666       7.19193289       0.00000000 NULL
P        0.66982537       2.27668808       1.71893809       0.00000000 NULL
P        0.73042130      -1.31882406       5.98389792       0.00000000 NULL
12
Lattice="5.056434461950786 0.2283633581851095 3.793739895127023e-07 -0.11260682777392751 7.208913861323169 -3.991469024640755e-07 -2.471914424975879 -3.7186381848088446 7.846350012315434" Properties=species:S:1:pos:R:3:initial_magmoms:R:1:castep_labels:S:1 n_minim_iter=10 pbc="T T T"
P       -1.76900901       3.13400975       6.96280036       0.00000000 NULL
P        3.34372934      -0.24208416       0.88354961       0.00000000 NULL
P        1.16203625       3.69899488       6.51783894       0.00000000 NULL
P        1.21834007       0.09453767       1.32851103       0.00000000 NULL
P       -0.37380065       1.57756156       3.52628454       0.00000000 NULL
P       -0.43010413       5.18201854       4.32006503       0.00000000 NULL
P        0.90693169       0.03361366       4.33879422       0.00000000 NULL
P        0.85062834       3.63807055       3.50755572       0.00000000 NULL
P        1.99248547       3.47371125       0.50955524       0.00000000 NULL
P        2.04878836      -0.13074531       7.33679489       0.00000000 NULL
P        0.69026830       2.28002655       1.74319986       0.00000000 NULL
P        0.74657138      -1.32443014       6.10315020       0.00000000 NULL
12
Lattice="4.986372849025605 0.22617244400442224 3.7406469840615976e-07 -0.10976789572001393 7.113791885721898 -3.9377531088691184e-07 -2.438303077804663 -3.6699817446263907 7.759410020236775" Properties=species:S:1:pos:R:3:initial_magmoms:R:1:castep_labels:S:1 n_minim_iter=11 pbc="T T T"
P       -1.74252657       3.09433718       6.88636067       0.00000000 NULL
P        3.29873069      -0.23638665       0.87304930       0.00000000 NULL
P        1.14457943       3.64744185       6.44963364       0.00000000 NULL
P        1.19946377       0.09054563       1.30977634       0.00000000 NULL
P       -0.37349655       1.55800956       3.49026755       0.00000000 NULL
P       -0.42838056       5.11490554       4.26914203       0.00000000 NULL
P        0.89702412       0.03297564       4.28903489       0.00000000 NULL
P        0.84214023       3.58987153       3.47037506       0.00000000 NULL
P        1.96750325       3.42871523       0.50000313       0.00000000 NULL
P        2.02238667      -0.12818035       7.25940701       0.00000000 NULL
P        0.68217512       2.24955602       1.72148992       0.00000000 NULL
P        0.73705873      -1.30733969       6.03792014       0.00000000 NULL
12
Lattice="4.981706575136587 0.22461358584178087 3.737876090720747e-07 -0.11143509518567894 7.078274293730929 -3.9198090151010366e-07 -2.435136341344979 -3.6514435193974317 7.762219440565365" Properties=species:S:1:pos:R:3:initial_magmoms:R:1:castep_labels:S:1 n_minim_iter=12 pbc="T T T"
P       -1.73919658       3.08049883       6.88913739       0.00000000 NULL
P        3.29822800      -0.23402505       0.87308200       0.00000000 NULL
P        1.13985030       3.62574658       6.45538211       0.00000000 NULL
P        1.19556825       0.08660915       1.30683729       0.00000000 NULL
P       -0.37999391       1.55181360       3.49497872       0.00000000 NULL
P       -0.43571152       5.09095079       4.26724029       0.00000000 NULL
P        0.89975928       0.03233155       4.28868521       0.00000000 NULL
P        0.84404180       3.57146865       3.47353416       0.00000000 NULL
P        1.96756604       3.41318404       0.49581426       0.00000000 NULL
P        2.02328306      -0.12595274       7.26640530       0.00000000 NULL
P        0.68140923       2.23726653       1.71964502       0.00000000 NULL
P        0.73712644      -1.30187039       6.04257447       0.00000000 NULL
12
Lattice="4.982979231732612 0.2219646349124729 3.740296695496748e-07 -0.11501906813757835 7.025566002410377 -3.894039723360607e-07 -2.4339806839776084 -3.623764897705873 7.772681878128288" Properties=species:S:1:pos:R:3:initial_magmoms:R:1:castep_labels:S:1 n_minim_iter=13 pbc="T T T"
P       -1.73752992       3.05998481       6.89867367       0.00000000 NULL
P        3.30295932      -0.23083389       0.87400816       0.00000000 NULL
P        1.13428231       3.59321058       6.46902572       0.00000000 NULL
P        1.19179224       0.08042730       1.30365613       0.00000000 NULL
P       -0.39043950       1.54279273       3.50473350       0.00000000 NULL
P       -0.44794910       5.05557577       4.26794794       0.00000000 NULL
P        0.90535895       0.03120382       4.29152553       0.00000000 NULL
P        0.84784948       3.54398678       3.48115628       0.00000000 NULL
P        1.97059470       3.39018079       0.48982726       0.00000000 NULL
P        2.02810371      -0.12260184       7.28285474       0.00000000 NULL
P        0.68084467       2.21911188       1.71840719       0.00000000 NULL
P        0.73835387      -1.29367088       6.05427473       0.00000000 NULL
12
Lattice="4.981559430465633 0.21359982012681636 3.743726964765114e-07 -0.12589267191621195 6.865145035370028 -3.8155825962612243e-07 -2.4278339836766882 -3.5393720052396547 7.801361033198988" Properties=species:S:1:pos:R:3:initial_magmoms:R:1:castep_labels:S:1 n_minim_iter=14 pbc="T T T"
P       -1.73200700       2.99693880       6.92416173       0.00000000 NULL
P        3.31249924      -0.22203423       0.87719927       0.00000000 NULL
P        1.11759853       3.49430074       6.50659240       0.00000000 NULL
P        1.18054527       0.06172794       1.29476861       0.00000000 NULL
P       -0.41941220       1.51519280       3.53158072       0.00000000 NULL
P       -0.48235860       4.94776535       4.26977989       0.00000000 NULL
P        0.92033471       0.02742956       4.29854713       0.00000000 NULL
P        0.85738844       3.46000204       3.50281384       0.00000000 NULL
P        1.97714637       3.31967124       0.47215292       0.00000000 NULL
P        2.04009217      -0.11290090       7.32920824       0.00000000 NULL
P        0.67743372       2.16516665       1.71499604       0.00000000 NULL
P        0.74037972      -1.26740563       6.08636505       0.00000000 NULL
12
Lattice="4.9945802955730505 0.19468274375970904 3.764059913134061e-07 -0.15180796200961777 6.653181124201538 -3.720864048883546e-07 -2.4213867768634034 -3.4239315075014405 7.874672273600333" Properties=species:S:1:pos:R:3:initial_magmoms:R:1:castep_labels:S:1 n_minim_iter=15 pbc="T T T"
P       -1.73554950       2.91585751       6.98602283       0.00000000 NULL
P        3.33493525      -0.21605063       0.88864942       0.00000000 NULL
P        1.09442168       3.35386099       6.58599166       0.00000000 NULL
P        1.17032607       0.02727014       1.28868060       0.00000000 NULL
P       -0.46365829       1.48245647       3.58420035       0.00000000 NULL
P       -0.53956233       4.80904707       4.29047151       0.00000000 NULL
P        0.94534684       0.01886148       4.32419513       0.00000000 NULL
P        0.86944292       3.34545200       3.55047710       0.00000000 NULL
P        1.99006482       3.22630742       0.44560094       0.00000000 NULL
P        2.06596826      -0.10028276       7.42907148       0.00000000 NULL
P        0.66717200       2.09706778       1.71808346       0.00000000 NULL
P        0.74307564      -1.22952254       6.15658888       0.00000000 NULL
12
Lattice="4.884608682677196 0.2149406016015379 3.6678892802612704e-07 -0.11621963855573823 6.550801843773655 -3.6378454613694995e-07 -2.3841951279205595 -3.382870799159713 7.8201783621755885" Properties=species:S:1:pos:R:3:initial_magmoms:R:1:castep_labels:S:1 n_minim_iter=16 pbc="T T T"
P       -1.67801716       2.86708964       6.93329688       0.00000000 NULL
P        3.26470181      -0.19337101       0.88688146       0.00000000 NULL
P        1.08056973       3.28363083       6.55165716       0.00000000 NULL
P        1.13867996       0.00822962       1.26852119       0.00000000 NULL
P       -0.46584149       1.46567604       3.57103037       0.00000000 NULL
P       -0.52395137       4.74107700       4.24914758       0.00000000 NULL
P        0.93678682       0.01895559       4.28358325       0.00000000 NULL
P        0.87867706       3.29435647       3.53659507       0.00000000 NULL
P        1.97542658       3.19605380       0.42109259       0.00000000 NULL
P        2.03353586      -0.07934674       7.39908591       0.00000000 NULL
P        0.65681253       2.07451738       1.69771558       0.00000000 NULL
P        0.71492200      -1.20088331       6.12246283       0.00000000 NULL
12
Lattice="4.974336451048801 0.21957059293818934 3.734897368249147e-07 -0.11745901112005049 6.573437004197398 -3.6510644790949056e-07 -2.4284393311963686 -3.396503371284486 7.8895199256647945" Properties=species:S:1:pos:R:3:initial_magmoms:R:1:castep_labels:S:1 n_minim_iter=17 pbc="T T T"
P       -1.70614304       2.87586038       6.99340082       0.00000000 NULL
P        3.32692339      -0.19128786       0.89611909       0.00000000 NULL
P        1.09890727       3.29152287       6.61093079       0.00000000 NULL
P        1.15763719       0.00480408       1.27858913       0.00000000 NULL
P       -0.47847397       1.47214229       3.60493480       0.00000000 NULL
P       -0.53720352       4.75886083       4.28458471       0.00000000 NULL
P        0.95699000       0.01890059       4.31954819       0.00000000 NULL
P        0.89826055       3.30561905       3.56997170       0.00000000 NULL
P        2.01506347       3.21103156       0.42088639       0.00000000 NULL
P        2.07379243      -0.07568656       7.46863368       0.00000000 NULL
P        0.66717025       2.08323443       1.71149378       0.00000000 NULL
P        0.72589941      -1.20348383       6.17802621       0.00000000 NULL
12
Lattice="4.963563473223175 0.22095158808284077 3.7258031965316003e-07 -0.11476558131624931 6.5502228290612186 -3.636405361614749e-07 -2.424399556467617 -3.385586781790529 7.88025436194515" Properties=species:S:1:pos:R:3:initial_magmoms:R:1:castep_labels:S:1 n_minim_iter=18 pbc="T T T"
P       -1.70043266       2.86538362       6.98422340       0.00000000 NULL
P        3.32051408      -0.18877653       0.89603095       0.00000000 NULL
P        1.09679188       3.27681088       6.60473003       0.00000000 NULL
P        1.15417508       0.00169918       1.27552432       0.00000000 NULL
P       -0.47946107       1.46821613       3.60250990       0.00000000 NULL
P       -0.53684391       4.74332758       4.27774405       0.00000000 NULL
P        0.95654118       0.01829398       4.31278712       0.00000000 NULL
P        0.89915845       3.29340535       3.56746721       0.00000000 NULL
P        2.01407414       3.20196325       0.41700765       0.00000000 NULL
P        2.07145639      -0.07314778       7.46324686       0.00000000 NULL
P        0.66523080       2.07748802       1.70807562       0.00000000 NULL
P        0.72261325      -1.19762316       6.17217880       0.00000000 NULL
12
Lattice="4.963909155350361 0.22339422874506648 3.724748116350033e-07 -0.11158471577395661 6.532631931833381 -3.624414082488911e-07 -2.4261628304178298 -3.378012653427001 7.881744848970263" Properties=species:S:1:pos:R:3:initial_magmoms:R:1:castep_labels:S:1 n_minim_iter=19 pbc="T T T"
P       -1.69790385       2.85707852       6.98428595       0.00000000 NULL
P        3.32179813      -0.18584355       0.89745888       0.00000000 NULL
P        1.09727697       3.26440902       6.60771867       0.00000000 NULL
P        1.15306974      -0.00190724       1.27402617       0.00000000 NULL
P       -0.48197694       1.46574400       3.60535199       0.00000000 NULL
P       -0.53776935       4.73206001       4.27639244       0.00000000 NULL
P        0.95867919       0.01771325       4.31158400       0.00000000 NULL
P        0.90288689       3.28402917       3.57016082       0.00000000 NULL
P        2.01844530       3.19634888       0.41304785       0.00000000 NULL
P        2.07423711      -0.06996670       7.46869715       0.00000000 NULL
P        0.66462533       2.07389525       1.70672696       0.00000000 NULL
P        0.72041734      -1.19242047       6.17501795       0.00000000 NULL
12
Lattice="4.952900175768532 0.2538171429445102 3.699742483647437e-07 -0.07071754803061518 6.360199589159309 -3.499366193487478e-07 -2.4410919262731507 -3.307007937949172 7.904650169837967" Properties=species:S:1:pos:R:3:initial_magmoms:R:1:castep_labels:S:1 n_minim_iter=20 pbc="T T T"
P       -1.66243842       2.77379684       6.98948166       0.00000000 NULL
P        3.32582100      -0.15248614       0.91516851       0.00000000 NULL
P        1.10191011       3.13887150       6.64648450       0.00000000 NULL
P        1.13726930      -0.04122859       1.25816568       0.00000000 NULL
P       -0.50730584       1.44296065       3.64046057       0.00000000 NULL
P       -0.54266466       4.62306047       4.26418919       0.00000000 NULL
P        0.97968964       0.01175881       4.30109836       0.00000000 NULL
P        0.94433092       3.19185857       3.60355179       0.00000000 NULL
P        2.06449895       3.14620636       0.36815110       0.00000000 NULL
P        2.09985717      -0.03389305       7.53649923       0.00000000 NULL
P        0.65639628       2.04206530       1.69216935       0.00000000 NULL
P        0.69175471      -1.13803425       6.21248089       0.00000000 NULL
12
Lattice="4.885418210304664 0.26292105222964074 3.6425310372385215e-07 -0.053250294775175754 6.652058414075761 -3.6438995242761646e-07 -2.4160845713128403 -3.4574893042503145 7.9194151954984555" Properties=species:S:1:pos:R:3:initial_magmoms:R:1:castep_labels:S:1 n_minim_iter=21 pbc="T T T"
P       -1.62473551       2.90263630       6.98279649       0.00000000 NULL
P        3.28730831      -0.16047218       0.93661868       0.00000000 NULL
P        1.08988468       3.24452572       6.67221339       0.00000000 NULL
P        1.11651025      -0.08150378       1.24720180       0.00000000 NULL
P       -0.51643451       1.52988657       3.66663961       0.00000000 NULL
P       -0.54305970       4.85591581       4.25277515       0.00000000 NULL
P        0.98099110      -0.00311544       4.29182291       0.00000000 NULL
P        0.95436600       3.32291373       3.62759225       0.00000000 NULL
P        2.07137358       3.30312996       0.33228027       0.00000000 NULL
P        2.09799816      -0.02289886       7.58713507       0.00000000 NULL
P        0.62801240       2.15333149       1.67711926       0.00000000 NULL
P        0.65463719      -1.17269747       6.24229598       0.00000000 NULL
12
Lattice="4.921382486469928 0.29121091187934367 3.6550726513071537e-07 -0.019018672863895362 6.338121303147807 -3.447355815621247e-07 -2.451182510194361 -3.314665685711293 7.788316201348326" Properties=species:S:1:pos:R:3:initial_magmoms:R:1:castep_labels:S:1 n_minim_iter=22 pbc="T T T"
P       -1.61825996       2.75282781       6.86558300       0.00000000 NULL
P        3.31263232      -0.12502225       0.92273320       0.00000000 NULL
P        1.11144413       3.09905572       6.56424203       0.00000000 NULL
P        1.12095388      -0.07000522       1.22407419       0.00000000 NULL
P       -0.51110890       1.45599146       3.61035091       0.00000000 NULL
P       -0.52061828       4.62505214       4.17796488       0.00000000 NULL
P        0.98646782       0.00367839       4.21723621       0.00000000 NULL
P        0.97695853       3.17273900       3.57107998       0.00000000 NULL
P        2.10695541       3.16518752       0.32133166       0.00000000 NULL
P        2.11646420      -0.00387275       7.46698470       0.00000000 NULL
P        0.64052494       2.05674575       1.64745054       0.00000000 NULL
P        0.65003393      -1.11231466       6.14086571       0.00000000 NULL
12
Lattice="4.964078272854364 0.29339619341511436 3.686967236399286e-07 -0.019631848965787103 6.383629459609426 -3.4724773297014084e-07 -2.4722238210620295 -3.338512400706936 7.862230061788692" Properties=species:S:1:pos:R:3:initial_magmoms:R:1:castep_labels:S:1 n_minim_iter=23 pbc="T T T"
P       -1.63164561       2.77260202       6.92698672       0.00000000 NULL
P        3.34224905      -0.12581684       0.93524333       0.00000000 NULL
P        1.12068847       3.11886095       6.62661364       0.00000000 NULL
P        1.13050482      -0.07295407       1.23561644       0.00000000 NULL
P       -0.51753967       1.46882993       3.64723222       0.00000000 NULL
P       -0.52735564       4.66064469       4.21499744       0.00000000 NULL
P        0.99635830       0.00221663       4.25529307       0.00000000 NULL
P        0.98654242       3.19403132       3.60693698       0.00000000 NULL
P        2.12835278       3.18918950       0.32058706       0.00000000 NULL
P        2.13816815      -0.00262484       7.54164317       0.00000000 NULL
P        0.64249747       2.07183173       1.66096004       0.00000000 NULL
P        0.65231304      -1.11998276       6.20127008       0.00000000 NULL
12
Lattice="4.932540687794005 0.29460418142213524 3.6618796084501853e-07 -0.015471239950852044 6.367700081121569 -3.4606268559603296e-07 -2.458535331474511 -3.3311517065604 7.8420322076161115" Properties=species:S:1:pos:R:3:initial_magmoms:R:1:castep_labels:S:1 n_minim_iter=24 pbc="T T T"
P       -1.61938725       2.76515851       6.90770745       0.00000000 NULL
P        3.32088952      -0.12408767       0.93432475       0.00000000 NULL
P        1.11557602       3.11038933       6.61027547       0.00000000 NULL
P        1.12331205      -0.07346100       1.23175675       0.00000000 NULL
P       -0.51336001       1.46629990       3.63916709       0.00000000 NULL
P       -0.52109567       4.65014997       4.20286471       0.00000000 NULL
P        0.98991789       0.00164515       4.24332173       0.00000000 NULL
P        0.98218232       3.18549515       3.59871046       0.00000000 NULL
P        2.11838858       3.18237193       0.31771963       0.00000000 NULL
P        2.12612364      -0.00147772       7.52431274       0.00000000 NULL
P        0.63805416       2.06725117       1.65548314       0.00000000 NULL
P        0.64578943      -1.11659863       6.18654913       0.00000000 NULL
