21
Lattice="3.3190799999999996 0.0 0.0 0.0 12.900579999999998 2.016279552175657e-15 0.0 -6.450290000000001 11.172230003553448" Properties=species:S:1:pos:R:3:initial_magmoms:R:1:castep_labels:S:1 n_minim_iter=1 pbc="T T T"
P        1.03137225       5.38267606      10.62795136       0.00000000 NULL
P        3.24409225       0.06244784       1.19672012       0.00000000 NULL
P        2.13773225      -5.44512389      10.51978853       0.00000000 NULL
P        2.67039768       7.91121360       1.91434374       0.00000000 NULL
P        1.56403768       4.15255352       3.36374619       0.00000000 NULL
P        0.45767768       7.28710290       5.89414008       0.00000000 NULL
P        0.59612934       4.50728140       6.57766270       0.00000000 NULL
P        2.80884934       9.89307230       3.97997847       0.00000000 NULL
P        1.70248934       4.95051631       0.61458884       0.00000000 NULL
P        2.20807506       1.48151809       7.91227160       0.00000000 NULL
P        1.10171506      -0.33882083       5.93306191       0.00000000 NULL
P        3.31443506      -1.14269724       8.49912650       0.00000000 NULL
P        1.14237788       0.15841783       3.86953985       0.00000000 NULL
P        0.03601788      -3.17837910       9.10026622       0.00000000 NULL
P        2.24873788       3.01996128       9.37465394       0.00000000 NULL
P        0.58721827       3.49487162       8.32223658       0.00000000 NULL
P        2.79993827      -0.99045751       3.98446411       0.00000000 NULL
P        1.69357827      -2.50441410      10.03775932       0.00000000 NULL
P        1.85707571      11.61509977       2.09498194       0.00000000 NULL
P        0.75071571       2.45704770       0.06576757       0.00000000 NULL
P        2.96343571       5.27872254       9.01148050       0.00000000 NULL
21
Lattice="3.3249760047027785 0.0 0.0 0.0 12.919419466328291 -2.1371302938718869e-16 0.0 -6.4597097331641455 11.188545459987493" Properties=species:S:1:pos:R:3:initial_magmoms:R:1:castep_labels:S:1 n_minim_iter=2 pbc="T T T"
P        1.03324714       5.39059744      10.64355876       0.00000000 NULL
P        3.24989781       0.06258383       1.19837176       0.00000000 NULL
P        2.14157247      -5.45318125      10.53516040       0.00000000 NULL
P        2.67519003       7.92283450       1.91729275       0.00000000 NULL
P        1.56686469       4.15871672       3.36852315       0.00000000 NULL
P        0.45853936       7.29757800       5.90272957       0.00000000 NULL
P        0.59715482       4.51411446       6.58700217       0.00000000 NULL
P        2.81380549       9.90716373       3.98570658       0.00000000 NULL
P        1.70548016       4.95785103       0.61583671       0.00000000 NULL
P        2.21199746       1.48355284       7.92375452       0.00000000 NULL
P        1.10367213      -0.33931343       5.94187376       0.00000000 NULL
P        3.32032280      -1.14423939       8.51146264       0.00000000 NULL
P        1.14441674       0.15910891       3.87512754       0.00000000 NULL
P        0.03609141      -3.18330529       9.11318934       0.00000000 NULL
P        2.25274208       3.02419639       9.38877404       0.00000000 NULL
P        0.58829554       3.49989973       8.33417129       0.00000000 NULL
P        2.80494621      -0.99205554       3.99045774       0.00000000 NULL
P        1.69662088      -2.50784418      10.05246189       0.00000000 NULL
P        1.86027301      11.63195157       2.09789004       0.00000000 NULL
P        0.75194768       2.46056003       0.06603489       0.00000000 NULL
P        2.96859835       5.28661762       9.02462053       0.00000000 NULL
21
Lattice="3.4016936671397677 0.0 0.0 0.0 13.164297751403888 3.2221427802547635e-16 0.0 -6.582148875701945 11.400616275698127" Properties=species:S:1:pos:R:3:initial_magmoms:R:1:castep_labels:S:1 n_minim_iter=3 pbc="T T T"
P        1.05764743       5.49366229      10.84648545       0.00000000 NULL
P        3.32544321       0.06435193       1.21972245       0.00000000 NULL
P        2.19154532      -5.55801420      10.73502465       0.00000000 NULL
P        2.73762269       8.07395479       1.95583517       0.00000000 NULL
P        1.60372480       4.23897443       3.43044874       0.00000000 NULL
P        0.46982691       7.43351742       6.01433237       0.00000000 NULL
P        0.61044307       4.60319628       6.70816918       0.00000000 NULL
P        2.87823885      10.08999567       4.06004677       0.00000000 NULL
P        1.74434096       5.05325469       0.63240032       0.00000000 NULL
P        2.26303422       1.50991472       8.07297540       0.00000000 NULL
P        1.12913633      -0.34570445       6.05650408       0.00000000 NULL
P        3.39693211      -1.16421025       8.67175308       0.00000000 NULL
P        1.17095955       0.16850334       3.94773809       0.00000000 NULL
P        0.03706166      -3.24755906       9.28081906       0.00000000 NULL
P        2.30485744       3.07905574       9.57267540       0.00000000 NULL
P        0.60233960       3.56521442       8.48907855       0.00000000 NULL
P        2.87013538      -1.01299841       4.06851075       0.00000000 NULL
P        1.73623749      -2.55221600      10.24364326       0.00000000 NULL
P        1.90181097      11.85091457       2.13556643       0.00000000 NULL
P        0.76791308       2.50614638       0.06963999       0.00000000 NULL
P        3.03570885       5.38938569       9.19540986       0.00000000 NULL
21
Lattice="3.414263595954152 0.0 0.0 0.0 13.168373169237885 2.6048043094254908e-15 0.0 -6.584186584618945 11.404145691073404" Properties=species:S:1:pos:R:3:initial_magmoms:R:1:castep_labels:S:1 n_minim_iter=4 pbc="T T T"
P        1.06162632       5.49666733      10.85053865       0.00000000 NULL
P        3.33780205       0.06432188       1.21862283       0.00000000 NULL
P        2.19971418      -5.56098919      10.73912991       0.00000000 NULL
P        2.74870111       8.07743544       1.95915328       0.00000000 NULL
P        1.61061325       4.24214538       3.42930476       0.00000000 NULL
P        0.47252538       7.43297894       6.01568765       0.00000000 NULL
P        0.61202345       4.60805937       6.70725741       0.00000000 NULL
P        2.88819918      10.08881221       4.05982051       0.00000000 NULL
P        1.75011131       5.05568819       0.63706777       0.00000000 NULL
P        2.27135407       1.50931679       8.07501369       0.00000000 NULL
P        1.13326620      -0.34567798       6.05953217       0.00000000 NULL
P        3.40944193      -1.16363879       8.67374553       0.00000000 NULL
P        1.17543535       0.17390480       3.94877281       0.00000000 NULL
P        0.03734748      -3.25140142       9.27915332       0.00000000 NULL
P        2.31352321       3.07749663       9.58036526       0.00000000 NULL
P        0.60482927       3.56577012       8.48876279       0.00000000 NULL
P        2.88100500      -1.01558742       4.07171679       0.00000000 NULL
P        1.74291713      -2.55018269      10.24781181       0.00000000 NULL
P        1.90811056      11.85362595       2.13463965       0.00000000 NULL
P        0.77002270       2.50602578       0.07128467       0.00000000 NULL
P        3.04619843       5.39290804       9.19822137       0.00000000 NULL
21
Lattice="3.42279101975257 0.0 0.0 0.0 13.138067611187957 -6.441482602102915e-16 0.0 -6.569033805593978 11.377900307926303" Properties=species:S:1:pos:R:3:initial_magmoms:R:1:castep_labels:S:1 n_minim_iter=5 pbc="T T T"
P        1.06428740       5.48595522      10.82651308       0.00000000 NULL
P        3.34614808       0.06402395       1.21366719       0.00000000 NULL
P        2.20521774      -5.54997915      10.71562035       0.00000000 NULL
P        2.75701074       8.06030270       1.95867723       0.00000000 NULL
P        1.61608040       4.23514670       3.41813480       0.00000000 NULL
P        0.47515007       7.41165203       6.00108828       0.00000000 NULL
P        0.61254453       4.60249997       6.68750155       0.00000000 NULL
P        2.89440521      10.05933006       4.04826765       0.00000000 NULL
P        1.75347487       5.04527140       0.64213112       0.00000000 NULL
P        2.27696715       1.50433993       8.05577583       0.00000000 NULL
P        1.13603681      -0.34469725       6.04721580       0.00000000 NULL
P        3.41789749      -1.15964267       8.65280899       0.00000000 NULL
P        1.17858070       0.18095568       3.93944861       0.00000000 NULL
P        0.03765036      -3.24784907       9.25146379       0.00000000 NULL
P        2.31951104       3.06689340       9.56488822       0.00000000 NULL
P        0.60668114       3.55674105       8.46518451       0.00000000 NULL
P        2.88854182      -1.01633949       4.06507996       0.00000000 NULL
P        1.74761148      -2.54040154      10.22553615       0.00000000 NULL
P        1.91193862      11.82505541       2.12753658       0.00000000 NULL
P        0.77100828       2.49900684       0.07333364       0.00000000 NULL
P        3.05286896       5.38303919       9.17703009       0.00000000 NULL
21
Lattice="3.457277329831464 0.0 0.0 0.0 12.925853051334913 -2.342880032762036e-15 0.0 -6.462926525667455 11.194117108040635" Properties=species:S:1:pos:R:3:initial_magmoms:R:1:castep_labels:S:1 n_minim_iter=6 pbc="T T T"
P        1.07482628       5.40864456      10.65726998       0.00000000 NULL
P        3.37967783       0.06221774       1.18145853       0.00000000 NULL
P        2.22725206      -5.47086228      10.54950571       0.00000000 NULL
P        2.79370855       7.93890221       1.95136334       0.00000000 NULL
P        1.64128278       4.18340565       3.34314445       0.00000000 NULL
P        0.48885700       7.26647173       5.89960932       0.00000000 NULL
P        0.61255650       4.55867207       6.55323569       0.00000000 NULL
P        2.91740805       9.85885909       3.96957345       0.00000000 NULL
P        1.76498227       4.97124844       0.67130797       0.00000000 NULL
P        2.29959549       1.47072353       7.92140686       0.00000000 NULL
P        1.14716971      -0.33814871       5.95972975       0.00000000 NULL
P        3.45202127      -1.13257480       8.50709762       0.00000000 NULL
P        1.19170332       0.22055905       3.87392552       0.00000000 NULL
P        0.03927754      -3.21828813       9.06614461       0.00000000 NULL
P        2.34412909       2.99772909       9.44816409       0.00000000 NULL
P        0.61479986       3.49365644       8.30647627       0.00000000 NULL
P        2.91965141      -1.01613527       4.01528374       0.00000000 NULL
P        1.76722563      -2.47752116      10.06647420       0.00000000 NULL
P        1.92568613      11.62650725       2.08065911       0.00000000 NULL
P        0.77326035       2.45157655       0.08493693       0.00000000 NULL
P        3.07811190       5.31069579       9.02852108       0.00000000 NULL
21
Lattice="3.51654315231685 0.0 0.0 0.0 12.968353205013086 -1.6876037209562946e-15 0.0 -6.484176602506542 11.230923320790675" Properties=species:S:1:pos:R:3:initial_magmoms:R:1:castep_labels:S:1 n_minim_iter=7 pbc="T T T"
P        1.09150046       5.43940204      10.70128704       0.00000000 NULL
P        3.43586256       0.06370881       1.16961946       0.00000000 NULL
P        2.26368151      -5.50311084      10.59094015       0.00000000 NULL
P        2.85453022       7.97959351       1.99355263       0.00000000 NULL
P        1.68234917       4.22084708       3.32361632       0.00000000 NULL
P        0.51016812       7.25208924       5.91375437       0.00000000 NULL
P        0.61471481       4.62024764       6.53336670       0.00000000 NULL
P        2.95907691       9.83211432       3.96298815       0.00000000 NULL
P        1.78689586       5.00016786       0.73456848       0.00000000 NULL
P        2.33907130       1.45797775       7.93710128       0.00000000 NULL
P        1.16689025      -0.33943413       5.99972691       0.00000000 NULL
P        3.51125235      -1.11854361       8.52501845       0.00000000 NULL
P        1.21375403       0.26942687       3.87936906       0.00000000 NULL
P        0.04157298      -3.25925788       9.05790828       0.00000000 NULL
P        2.38593508       2.98983102       9.52456931       0.00000000 NULL
P        0.62791044       3.49219284       8.31716824       0.00000000 NULL
P        2.97227254      -1.02739404       4.04801149       0.00000000 NULL
P        1.80009149      -2.46479879      10.09666692       0.00000000 NULL
P        1.95161016      11.65396407       2.07354476       0.00000000 NULL
P        0.77942910       2.45293701       0.10152201       0.00000000 NULL
P        3.12379121       5.34562874       9.05585656       0.00000000 NULL
21
Lattice="3.46744018433653 0.0 0.0 0.0 12.68100375681323 1.7761063941836876e-15 0.0 -6.3405018784066165 10.982071398886156" Properties=species:S:1:pos:R:3:initial_magmoms:R:1:castep_labels:S:1 n_minim_iter=8 pbc="T T T"
P        1.07552556       5.32012937      10.46451443       0.00000000 NULL
P        3.38715235       0.06196878       1.14244700       0.00000000 NULL
P        2.23133896      -5.38209813      10.35718137       0.00000000 NULL
P        2.81619025       7.80452597       1.95350705       0.00000000 NULL
P        1.66037686       4.13002563       3.24640012       0.00000000 NULL
P        0.50456346       7.08695405       5.78216423       0.00000000 NULL
P        0.60523917       4.52195579       6.38582777       0.00000000 NULL
P        2.91686596       9.60981306       3.87302893       0.00000000 NULL
P        1.76105256       4.88973679       0.72321470       0.00000000 NULL
P        2.30644836       1.42463644       7.76064935       0.00000000 NULL
P        1.15063497      -0.33190060       5.86797538       0.00000000 NULL
P        3.46226176      -1.09273582       8.33551807       0.00000000 NULL
P        1.19681510       0.26620466       3.79334115       0.00000000 NULL
P        0.04100170      -3.18847441       8.85486083       0.00000000 NULL
P        2.35262849       2.92226976       9.31594083       0.00000000 NULL
P        0.61889162       3.41435948       8.13139447       0.00000000 NULL
P        2.93051841      -1.00568743       3.95945212       0.00000000 NULL
P        1.77470501      -2.40867204       9.87329621       0.00000000 NULL
P        1.92466923      11.39535858       2.02701583       0.00000000 NULL
P        0.76885584       2.39826980       0.09989347       0.00000000 NULL
P        3.08048263       5.22787727       8.85516209       0.00000000 NULL
21
Lattice="3.488037903519154 0.0 0.0 0.0 12.727952651901916 7.963308015157369e-16 0.0 -6.363976325950959 11.02273033471257" Properties=species:S:1:pos:R:3:initial_magmoms:R:1:castep_labels:S:1 n_minim_iter=9 pbc="T T T"
P        1.08169291       5.34036365      10.50399893       0.00000000 NULL
P        3.40705151       0.06257177       1.14584029       0.00000000 NULL
P        2.24437221      -5.40293541      10.39562145       0.00000000 NULL
P        2.83388729       7.83500133       1.96351215       0.00000000 NULL
P        1.67120798       4.14692707       3.25566408       0.00000000 NULL
P        0.50852868       7.11000060       5.80355412       0.00000000 NULL
P        0.60824022       4.54226124       6.40642451       0.00000000 NULL
P        2.93359883       9.64097209       3.88580446       0.00000000 NULL
P        1.77091953       4.90869567       0.73050137       0.00000000 NULL
P        2.32017346       1.42828369       7.78824419       0.00000000 NULL
P        1.15749416      -0.33330084       5.89167829       0.00000000 NULL
P        3.48285276      -1.09498283       8.36553819       0.00000000 NULL
P        1.20408134       0.27022308       3.80663567       0.00000000 NULL
P        0.04140204      -3.20244467       8.88539245       0.00000000 NULL
P        2.36676064       2.93222160       9.35343255       0.00000000 NULL
P        0.62270635       3.42608021       8.16049734       0.00000000 NULL
P        2.94806496      -1.00981842       3.97540917       0.00000000 NULL
P        1.78538565      -2.41626178       9.90955416       0.00000000 NULL
P        1.93563118      11.43661105       2.03378835       0.00000000 NULL
P        0.77295188       2.40698318       0.10144046       0.00000000 NULL
P        3.09831048       5.24833475       8.88750153       0.00000000 NULL
21
Lattice="3.493476269533913 0.0 0.0 0.0 12.708743697427536 -1.44545982369113e-15 0.0 -6.354371848713767 11.00609489215762" Properties=species:S:1:pos:R:3:initial_magmoms:R:1:castep_labels:S:1 n_minim_iter=10 pbc="T T T"
P        1.08302708       5.33293065      10.48876878       0.00000000 NULL
P        3.41201126       0.06270305       1.14325709       0.00000000 NULL
P        2.24751917      -5.39563369      10.38016392       0.00000000 NULL
P        2.83932091       7.82472157       1.96341469       0.00000000 NULL
P        1.67482882       4.14237807       3.24797990       0.00000000 NULL
P        0.51033673       7.09601592       5.79470031       0.00000000 NULL
P        0.60858187       4.53881334       6.39401804       0.00000000 NULL
P        2.93756605       9.62234724       3.87835822       0.00000000 NULL
P        1.77307396       4.90195498       0.73371864       0.00000000 NULL
P        2.32381903       1.42471337       7.77550655       0.00000000 NULL
P        1.15932694      -0.33294233       5.88450366       0.00000000 NULL
P        3.48831112      -1.09177103       8.35217958       0.00000000 NULL
P        1.20606993       0.27247927       3.80029385       0.00000000 NULL
P        0.04157784      -3.19946047       8.86997400       0.00000000 NULL
P        2.37056202       2.92698120       9.34192194       0.00000000 NULL
P        0.62373976       3.42016350       8.14720888       0.00000000 NULL
P        2.95272394      -1.00876373       3.97054199       0.00000000 NULL
P        1.78823185      -2.41139975       9.89443892       0.00000000 NULL
P        1.93839115      11.41858718       2.03009891       0.00000000 NULL
P        0.77389906       2.40319550       0.10225887       0.00000000 NULL
P        3.10288324       5.24133289       8.87373711       0.00000000 NULL
21
Lattice="3.5843868474663347 0.0 0.0 0.0 12.430672928779694 -1.4766804582950429e-15 0.0 -6.215336464389846 10.765278542458724" Properties=species:S:1:pos:R:3:initial_magmoms:R:1:castep_labels:S:1 n_minim_iter=11 pbc="T T T"
P        1.10506560       5.22568310      10.26905033       0.00000000 NULL
P        3.49465683       0.06508045       1.10517907       0.00000000 NULL
P        2.29986121      -5.29076354      10.15632769       0.00000000 NULL
P        2.92975053       7.67784933       1.96464959       0.00000000 NULL
P        1.73495492       4.07784826       3.13374119       0.00000000 NULL
P        0.54015930       6.89031182       5.66688777       0.00000000 NULL
P        0.61458071       4.49204300       6.21193209       0.00000000 NULL
P        3.00417194       9.34900597       3.76908915       0.00000000 NULL
P        1.80937632       4.80496044       0.78425731       0.00000000 NULL
P        2.38476137       1.37144989       7.58973408       0.00000000 NULL
P        1.18996575      -0.32815888       5.78270106       0.00000000 NULL
P        3.57955698      -1.04329100       8.15812194       0.00000000 NULL
P        1.23915969       0.30676370       3.70765954       0.00000000 NULL
P        0.04436408      -3.15779096       8.64578362       0.00000000 NULL
P        2.43395531       2.85102727       9.17711393       0.00000000 NULL
P        0.64108789       3.33373432       7.95446009       0.00000000 NULL
P        3.03067913      -0.99343910       3.90094989       0.00000000 NULL
P        1.83588351      -2.34029520       9.67514710       0.00000000 NULL
P        1.98498449      11.15687044       1.97650610       0.00000000 NULL
P        0.79018887       2.34860574       0.11489227       0.00000000 NULL
P        3.17978010       5.14053323       8.67388018       0.00000000 NULL
21
Lattice="3.6671552800734357 0.0 0.0 0.0 12.523924623902133 9.085374566273923e-16 0.0 -6.261962311951067 10.846036879380714" Properties=species:S:1:pos:R:3:initial_magmoms:R:1:castep_labels:S:1 n_minim_iter=12 pbc="T T T"
P        1.10851423       5.27494929      10.36408631       0.00000000 NULL
P        3.55328442       0.07612508       1.09575364       0.00000000 NULL
P        2.33089932      -5.35107436      10.23223382       0.00000000 NULL
P        3.02684671       7.78528505       2.04450428       0.00000000 NULL
P        1.80446161       4.13991243       3.08153012       0.00000000 NULL
P        0.58207652       6.86068946       5.72000249       0.00000000 NULL
P        0.61226210       4.60387849       6.19623802       0.00000000 NULL
P        3.05703229       9.32612260       3.76084215       0.00000000 NULL
P        1.83464719       4.85588585       0.88895672       0.00000000 NULL
P        2.44118993       1.34274702       7.61327313       0.00000000 NULL
P        1.21880484      -0.34004788       5.87654729       0.00000000 NULL
P        3.66357503      -1.00269912       8.20225335       0.00000000 NULL
P        1.26763032       0.35361760       3.71717651       0.00000000 NULL
P        0.04524523      -3.21960182       8.68120681       0.00000000 NULL
P        2.49001541       2.86598423       9.29369045       0.00000000 NULL
P        0.66085268       3.34082624       8.00082020       0.00000000 NULL
P        3.10562287      -1.00346189       3.95238639       0.00000000 NULL
P        1.88323778      -2.33736434       9.73886718       0.00000000 NULL
P        2.03377624      11.22087800       1.98757338       0.00000000 NULL
P        0.81139115       2.37281236       0.13468479       0.00000000 NULL
P        3.25616133       5.19219659       8.72377871       0.00000000 NULL
21
Lattice="3.5884347786082897 0.0 0.0 0.0 12.142443147081634 1.6856619862783468e-15 0.0 -6.071221573540819 10.515664229380958" Properties=species:S:1:pos:R:3:initial_magmoms:R:1:castep_labels:S:1 n_minim_iter=13 pbc="T T T"
P        1.08267629       5.11498028      10.04896481       0.00000000 NULL
P        3.47496614       0.07394710       1.06147897       0.00000000 NULL
P        2.27882121      -5.18892736       9.92088469       0.00000000 NULL
P        2.96389307       7.55117056       1.98645990       0.00000000 NULL
P        1.76774815       4.01596103       2.98292875       0.00000000 NULL
P        0.57160322       6.64653314       5.54627559       0.00000000 NULL
P        0.59807323       4.46714248       6.00595568       0.00000000 NULL
P        2.99036308       9.03896053       3.64402752       0.00000000 NULL
P        1.79421815       4.70756172       0.86568103       0.00000000 NULL
P        2.38886649       1.30063260       7.38052025       0.00000000 NULL
P        1.19272156      -0.32981984       5.69902323       0.00000000 NULL
P        3.58501142      -0.97081275       7.95178498       0.00000000 NULL
P        1.24035962       0.34308410       3.60412668       0.00000000 NULL
P        0.04421469      -3.12149835       8.41648134       0.00000000 NULL
P        2.43650454       2.77841426       9.01072044       0.00000000 NULL
P        0.64629813       3.23944859       7.75597307       0.00000000 NULL
P        3.03858798      -0.97407615       3.83223293       0.00000000 NULL
P        1.84244306      -2.26537243       9.44312246       0.00000000 NULL
P        1.99153238      10.87891284       1.92763483       0.00000000 NULL
P        0.79538745       2.30114589       0.13043193       0.00000000 NULL
P        3.18767731       5.03360600       8.45759747       0.00000000 NULL
21
Lattice="3.6244760957389146 -1.7161074640085436e-62 1.817213998732396e-46 -5.288531835184228e-61 12.273522658759212 -8.018578009346725e-16 -1.0318162527014516e-44 -6.136761329379605 10.629182416409401" Properties=species:S:1:pos:R:3:initial_magmoms:R:1:castep_labels:S:1 n_minim_iter=14 pbc="T T T"
P        1.09271857       5.16986876      10.15813497       0.00000000 NULL
P        3.50903597       0.07550723       1.07287726       0.00000000 NULL
P        2.30087727      -5.24537598      10.02735261       0.00000000 NULL
P        2.99466202       7.63430800       2.00947999       0.00000000 NULL
P        1.78650332       4.05986805       3.01293776       0.00000000 NULL
P        0.57834462       6.71610795       5.60676467       0.00000000 NULL
P        0.60351219       4.51724532       6.06902680       0.00000000 NULL
P        3.01982959       9.13407006       3.68261982       0.00000000 NULL
P        1.81167089       4.75896863       0.87753580       0.00000000 NULL
P        2.41298477       1.31291147       7.45886831       0.00000000 NULL
P        1.20482608      -0.33364762       5.76273358       0.00000000 NULL
P        3.62114347      -0.97926384       8.03676294       0.00000000 NULL
P        1.25286497       0.34828667       3.64266121       0.00000000 NULL
P        0.04470627      -3.15626752       8.50622672       0.00000000 NULL
P        2.46102367       2.80798086       9.10947691       0.00000000 NULL
P        0.65311832       3.27390333       7.83873602       0.00000000 NULL
P        3.06943572      -0.98516846       3.87453096       0.00000000 NULL
P        1.86127702      -2.28873485       9.54509786       0.00000000 NULL
P        2.01143266      10.99540530       1.94862919       0.00000000 NULL
P        0.80327397       2.32662107       0.13256751       0.00000000 NULL
P        3.21959136       5.08825763       8.54798572       0.00000000 NULL
21
Lattice="3.626324412236712 -1.8971020773972304e-47 3.791161250190017e-46 -6.424135438579183e-47 12.260194702133793 7.88924679627499e-17 -1.0142570650146275e-44 -6.130097351066897 10.617640067391251" Properties=species:S:1:pos:R:3:initial_magmoms:R:1:castep_labels:S:1 n_minim_iter=15 pbc="T T T"
P        1.09229071       5.16426465      10.14766230       0.00000000 NULL
P        3.50984032       0.07590367       1.07142455       0.00000000 NULL
P        2.30106551      -5.24016830      10.01619329       0.00000000 NULL
P        2.99722846       7.62767714       2.00915628       0.00000000 NULL
P        1.78845366       4.05623917       3.00729975       0.00000000 NULL
P        0.57967885       6.70637576       5.60118403       0.00000000 NULL
P        0.60326806       4.51419647       6.06110599       0.00000000 NULL
P        3.02081767       9.12207088       3.67767826       0.00000000 NULL
P        1.81204286       4.75402471       0.87885582       0.00000000 NULL
P        2.41432275       1.31017852       7.44978944       0.00000000 NULL
P        1.20554794      -0.33347970       5.75809747       0.00000000 NULL
P        3.62309755      -0.97669881       8.02739323       0.00000000 NULL
P        1.25349875       0.34879262       3.63851314       0.00000000 NULL
P        0.04472395      -3.15344885       8.49632023       0.00000000 NULL
P        2.46227356       2.80465624       9.10044677       0.00000000 NULL
P        0.65356200       3.27017756       7.82939575       0.00000000 NULL
P        3.07111160      -0.98473051       3.87088536       0.00000000 NULL
P        1.86233680      -2.28544703       9.53499903       0.00000000 NULL
P        2.01274313      10.98290185       1.94677447       0.00000000 NULL
P        0.80396833       2.32460258       0.13278082       0.00000000 NULL
P        3.22151794       5.08278763       8.53808477       0.00000000 NULL
21
Lattice="3.6318832172568127 -3.281805844952729e-47 5.205003914013445e-46 -1.1120774002127647e-46 12.250133689959805 3.089873324306031e-15 -9.548132301449113e-45 -6.125066844979905 10.608926975260792" Properties=species:S:1:pos:R:3:initial_magmoms:R:1:castep_labels:S:1 n_minim_iter=16 pbc="T T T"
P        1.09215118       5.16001774      10.14037550       0.00000000 NULL
P        3.51340666       0.07674708       1.07003278       0.00000000 NULL
P        2.30277892      -5.23676480      10.00744567       0.00000000 NULL
P        3.00372299       7.62441584       2.01083136       0.00000000 NULL
P        1.79309525       4.05428997       3.00057349       0.00000000 NULL
P        0.58246751       6.69649473       5.59752212       0.00000000 NULL
P        0.60318415       4.51382727       6.05367931       0.00000000 NULL
P        3.02443963       9.11079328       3.67299824       0.00000000 NULL
P        1.81381189       4.75058000       0.88224943       0.00000000 NULL
P        2.41822506       1.30666418       7.44185517       0.00000000 NULL
P        1.20759733      -0.33356330       5.75639502       0.00000000 NULL
P        3.62885280      -0.97310087       8.01960376       0.00000000 NULL
P        1.25540793       0.35014106       3.63517087       0.00000000 NULL
P        0.04478019      -3.15198705       8.48811049       0.00000000 NULL
P        2.46603567       2.80184600       9.09457259       0.00000000 NULL
P        0.65480204       3.26714977       7.82145478       0.00000000 NULL
P        3.07605752      -0.98506320       3.86876489       0.00000000 NULL
P        1.86542978      -2.28208657       9.52763429       0.00000000 NULL
P        2.01632370      10.97283880       1.94566206       0.00000000 NULL
P        0.80569596       2.32364022       0.13333880       0.00000000 NULL
P        3.22695143       5.07872152       8.52992612       0.00000000 NULL
21
Lattice="3.6841696483843367 -1.3400331791734003e-46 5.920999684849726e-46 -4.548178144676651e-46 12.170785580656725 -7.7055242782098e-16 -8.507088249208154e-45 -6.085392790328362 10.540209496862062" Properties=species:S:1:pos:R:3:initial_magmoms:R:1:castep_labels:S:1 n_minim_iter=17 pbc="T T T"
P        1.08546034       5.12646289      10.08720638       0.00000000 NULL
P        3.54157344       0.08715275       1.05695921       0.00000000 NULL
P        2.31351689      -5.21361563       9.93625340       0.00000000 NULL
P        3.07001151       7.60995552       2.03633541       0.00000000 NULL