16
Lattice="5.487366834960732 -0.36609777509479946 1.0200726550044261 0.03080014745892816 6.9599720233981 0.792206413219659 3.8403183665774523 2.8789172787813953 10.152733373740158" Properties=species:S:1:pos:R:3:initial_magmoms:R:1:castep_labels:S:1:forces:R:3 n_minim_iter=1 energy=-85.28034976282159 stress="0.003555803758288214 0.0006114209315224296 -0.0002418313749182409 0.0006114209315224296 0.0014099546422532679 -0.0011216183206872008 -0.0002418313749182409 -0.0011216183206872008 -0.000502227845597977" free_energy=-85.28034976282159 pbc="T T T"
P        6.69207988       7.55125165       6.85326609       0.00000000 NULL      -0.22096787      -0.30499704       0.08741416
P        5.78558995       2.59907266       3.39852037       0.00000000 NULL      -0.05773315      -0.38343194      -0.09288150
P        4.96684693       3.05917897       6.42419884       0.00000000 NULL      -0.06182172      -0.16015516       0.09955932
P        6.08304937       8.13005417      10.67863649       0.00000000 NULL       0.13833743       0.09283308       0.01921071
P        3.61479031       4.37279600       1.99992638       0.00000000 NULL      -0.10415200      -0.18676814      -0.15450809
P        3.42813529       5.84361218       7.28598851       0.00000000 NULL       0.16080338       0.01702992       0.12311117
P        3.19538322       5.80906580       9.45913159       0.00000000 NULL       0.12694814       0.13342413      -0.03509150
P        4.81589988       1.31472924       5.02699732       0.00000000 NULL       0.35551114       0.21132292      -0.09787867
P        5.55602382       4.38606962       4.67260957       0.00000000 NULL       0.06603060       0.31271380       0.04377305
P        5.57859456       6.17357883       9.81352267       0.00000000 NULL      -0.22488861       0.00544673       0.01760301
P        6.66819116       4.47739708      10.78219722       0.00000000 NULL      -0.06804612      -0.11070227      -0.06889512
P        2.52358788       2.47498119       2.68171061       0.00000000 NULL       0.03066992       0.25906737       0.11716989
P        5.76223654       5.73173533       7.66253048       0.00000000 NULL       0.12567154       0.09053932      -0.13881057
P        2.92655596       3.66270830       6.94325693       0.00000000 NULL      -0.16395949       0.04561579       0.00898348
P        3.62362185       5.50378188       3.97519965       0.00000000 NULL      -0.20893100      -0.15099962       0.09223975
P        2.22716429       4.03580347       4.86556037       0.00000000 NULL       0.10652782       0.12906111      -0.02099909
16
Lattice="5.4557259860148655 -0.36890081654969487 1.022445875347395 0.023875172739001357 6.945099573094139 0.8058834322359484 3.8187799021394806 2.887233637435697 10.168171559752313" Properties=species:S:1:pos:R:3:initial_magmoms:R:1:castep_labels:S:1:forces:R:3 n_minim_iter=2 energy=-85.28852779715717 stress="-0.0013826415167895356 -0.0001993019104255127 5.22586218593688e-05 -0.0001993019104255127 -0.0008519937989099782 0.0006712946452035889 5.22586218593688e-05 0.0006712946452035889 -0.0008964717803139674" free_energy=-85.28852779715717 pbc="T T T"
P        6.64657556       7.53809637       6.87622298       0.00000000 NULL      -0.10067301      -0.23563984       0.09117083
P        5.74985903       2.59161872       3.40809767       0.00000000 NULL      -0.07360545      -0.30802096      -0.07983417
P        4.93668001       3.05819953       6.43777336       0.00000000 NULL      -0.00095103      -0.23154592       0.08720856
P        6.04380379       8.12520814      10.70531706       0.00000000 NULL       0.10183255       0.13570880       0.00716800
P        3.58930223       4.36171458       2.01047766       0.00000000 NULL      -0.03507759      -0.12678228      -0.11488706
P        3.40564254       5.84012200       7.30498510       0.00000000 NULL       0.13725832       0.06407959       0.10565069
P        3.17500983       5.81050814       9.47903470       0.00000000 NULL       0.16666631       0.16223903      -0.08380431
P        4.78982425       1.31715988       5.03513560       0.00000000 NULL       0.22986877       0.19761893      -0.09307300
P        5.52093513       4.38037377       4.68716511       0.00000000 NULL       0.11569997       0.30981480       0.01221582
P        5.54223370       6.17179965       9.83561135       0.00000000 NULL      -0.20340828       0.02128539      -0.04752439
P        6.62825098       4.47974129      10.80195129       0.00000000 NULL      -0.11896452      -0.18410408       0.03465307
P        2.50738776       2.47286832       2.69016171       0.00000000 NULL       0.04934467       0.15842691       0.08940385
P        5.72604900       5.72719291       7.68131200       0.00000000 NULL       0.12314513      -0.01114604      -0.06956384
P        2.90755097       3.66433847       6.95714231       0.00000000 NULL      -0.27201305       0.04868549       0.04456540
P        3.59722659       5.49390288       3.99071074       0.00000000 NULL      -0.14764605      -0.02826393       0.00715969
P        2.21237056       4.03378576       4.87797556       0.00000000 NULL       0.02852326       0.02764412       0.00949085
16
Lattice="5.453488209198571 -0.37221928707921015 1.0305430343057378 0.02202426462438918 6.954485585659786 0.8027876189027532 3.8187888108445303 2.8787813752966196 10.22789052039618" Properties=species:S:1:pos:R:3:initial_magmoms:R:1:castep_labels:S:1:forces:R:3 n_minim_iter=3 energy=-85.29956487249785 stress="-7.737975215993258e-05 -0.001039486274323209 0.00023554332370855365 -0.001039486274323209 0.001440295293967591 0.0008688687375542517 0.00023554332370855365 0.0008688687375542517 0.00518470543955582" free_energy=-85.29956487249785 pbc="T T T"
P        6.63996244       7.53373517       6.91325759       0.00000000 NULL      -0.05445874      -0.15424221       0.05139289
P        5.74571086       2.58245928       3.42549494       0.00000000 NULL      -0.05545186      -0.16667464       0.05230520
P        4.93470710       3.04919836       6.47687650       0.00000000 NULL       0.00374908      -0.11396311      -0.01556408
P        6.04384418       8.12603498      10.76310012       0.00000000 NULL       0.10151859       0.04174935       0.03082898
P        3.58559387       4.36159144       2.01577170       0.00000000 NULL      -0.05524928      -0.06556515      -0.06320738
P        3.40743470       5.84057959       7.34623549       0.00000000 NULL       0.12692813       0.02640232       0.17391226
P        3.17773288       5.81082404       9.52943169       0.00000000 NULL       0.11055552       0.15600635      -0.14174252
P        4.79440937       1.31647614       5.06346604       0.00000000 NULL       0.17865741       0.15048230      -0.07250076
P        5.52047799       4.38688717       4.71266170       0.00000000 NULL       0.06559303       0.12965527       0.00643275
P        5.53567522       6.16848159       9.88930701       0.00000000 NULL      -0.11298403      -0.00810146      -0.03286286
P        6.62429399       4.46844980      10.86452899       0.00000000 NULL      -0.13640158      -0.04913660       0.08941661
P        2.50714007       2.47695690       2.70660486       0.00000000 NULL       0.02339439       0.09173620      -0.08876889
P        5.72640689       5.72564624       7.72104015       0.00000000 NULL       0.06610163      -0.03289100       0.03175063
P        2.90154867       3.66206550       6.99690418       0.00000000 NULL      -0.19153324       0.06306704      -0.04733372
P        3.59124218       5.49501261       4.01038332       0.00000000 NULL      -0.08421466      -0.06892951      -0.01214680
P        2.21255247       4.03483791       4.90368268       0.00000000 NULL       0.01379563       0.00040486       0.03808768
16
Lattice="5.449675042556321 -0.36292014052873506 1.0260381553129945 0.03825851434493625 6.940271011565321 0.7701902861689409 3.821296109725714 2.8411212827982477 10.167939025762196" Properties=species:S:1:pos:R:3:initial_magmoms:R:1:castep_labels:S:1:forces:R:3 n_minim_iter=4 energy=-85.31702677326294 stress="-0.0007435153381464512 -0.000714823434596407 -0.0005886555780622777 -0.000714823434596407 -0.0001610286453801453 -0.0012554812978807636 -0.0005886555780622777 -0.0012554812978807636 2.1279403543613806e-05" free_energy=-85.31702677326294 pbc="T T T"
P        6.64773114       7.49898052       6.85213593       0.00000000 NULL       0.09682992      -0.06160336       0.04482967
P        5.74534485       2.56509800       3.39511904       0.00000000 NULL       0.00129072      -0.01732552       0.00477353
P        4.93733202       3.02114325       6.43629968       0.00000000 NULL      -0.01332373       0.11868682       0.08483527
P        6.06221386       8.08782067      10.67896088       0.00000000 NULL       0.05545308       0.06778307      -0.00384660
P        3.59130946       4.34938982       1.98257768       0.00000000 NULL       0.00533036      -0.04223348      -0.02982421
P        3.42380660       5.81112278       7.29260738       0.00000000 NULL       0.06097777       0.07409811      -0.04037259
P        3.19388071       5.77650300       9.45708589       0.00000000 NULL       0.00478244       0.06609000       0.06964852
P        4.80458235       1.31313393       5.02963567       0.00000000 NULL       0.00946554      -0.05271575      -0.12890449
P        5.53103105       4.38551467       4.67219902       0.00000000 NULL      -0.00610372      -0.04642020       0.03621018
P        5.53704408       6.13163757       9.81555890       0.00000000 NULL      -0.10272749      -0.04322912       0.03120418
P        6.62435883       4.42625963      10.79524573       0.00000000 NULL       0.00705872      -0.00451257      -0.05182330
P        2.51282593       2.47511237       2.68596444       0.00000000 NULL      -0.00660828       0.02868098      -0.02307742
P        5.74009774       5.69877624       7.65743887       0.00000000 NULL       0.04062152      -0.12078813      -0.00526164
P        2.89730154       3.63648187       6.94960602       0.00000000 NULL      -0.08010556       0.03788934      -0.01923365
P        3.59511876       5.47557007       3.96925813       0.00000000 NULL      -0.02924657       0.00777653       0.06290975
P        2.22172564       4.01550704       4.86413659       0.00000000 NULL      -0.04369470      -0.01217673      -0.03206721
16
Lattice="5.458661511126062 -0.34960823918934025 1.0312862989516736 0.05332782865557614 6.942191864325733 0.7849904308248852 3.846122740785167 2.8715940741266914 10.168959497540165" Properties=species:S:1:pos:R:3:initial_magmoms:R:1:castep_labels:S:1:forces:R:3 n_minim_iter=5 energy=-85.31966620086956 stress="-0.00011976997807949138 -3.539216407038872e-05 0.00011327206348890894 -3.539216407038872e-05 0.000544314263195679 0.0002804993110647758 0.00011327206348890894 0.0002804993110647758 -0.0003957442263706057" free_energy=-85.31966620086956 pbc="T T T"
P        6.68186146       7.52593762       6.87145883       0.00000000 NULL       0.09888311      -0.05321229       0.03262787
P        5.76335555       2.58232059       3.40456990       0.00000000 NULL       0.03028555       0.06057482       0.00870457
P        4.95921285       3.04510384       6.44397027       0.00000000 NULL      -0.03113249       0.07024002       0.08782745
P        6.10281548       8.12519577      10.69419567       0.00000000 NULL       0.02094594       0.04187795      -0.05835948
P        3.60786491       4.36005496       1.99404558       0.00000000 NULL       0.01261640      -0.05858472      -0.03804253
P        3.45158226       5.83521096       7.30320766       0.00000000 NULL       0.05546889       0.06546806      -0.08282331
P        3.22370971       5.80559733       9.46449784       0.00000000 NULL      -0.04006632       0.02765665       0.10828147
P        4.82281683       1.33499485       5.03229918       0.00000000 NULL      -0.00521635      -0.02928127      -0.07536193
P        5.55502712       4.40866796       4.68484322       0.00000000 NULL      -0.02421661      -0.06852059      -0.00810799
P        5.56880831       6.16463875       9.82655352       0.00000000 NULL      -0.10510908       0.02018672       0.03990059
P        6.65685310       4.46291014      10.80262077       0.00000000 NULL       0.06947519       0.02474822      -0.01459963
P        2.52539245       2.48751178       2.69228578       0.00000000 NULL      -0.01254607      -0.00614483      -0.01537129
P        5.77136165       5.72684746       7.66944908       0.00000000 NULL       0.03655097      -0.14899532       0.00153856
P        2.91614166       3.65848914       6.95444729       0.00000000 NULL      -0.05189881       0.05892029       0.01157228
P        3.61571527       5.49142329       3.98273668       0.00000000 NULL      -0.03881320       0.00126758       0.02933120
P        2.23956826       4.03114821       4.87092193       0.00000000 NULL      -0.01522712      -0.00620130      -0.02711782
16
Lattice="5.465502976240626 -0.33867232237378675 1.0332422542492985 0.06571736143069638 6.913778231108019 0.784486382804289 3.8580877364905155 2.86483091448644 10.178255892540788" Properties=species:S:1:pos:R:3:initial_magmoms:R:1:castep_labels:S:1:forces:R:3 n_minim_iter=6 energy=-85.32178202005669 stress="0.00048276542642993587 0.00028820377296819125 -5.4631236317443085e-05 0.00028820377296819125 -0.0013749146092651187 8.389891590103098e-05 -5.4631236317443085e-05 8.389891590103098e-05 0.00037455678444905515" free_energy=-85.32178202005669 pbc="T T T"
P        6.70689650       7.50336487       6.87873136       0.00000000 NULL       0.08776862      -0.03379119       0.01121955
P        5.77643256       2.58101998       3.40815479       0.00000000 NULL       0.04279208       0.03820641      -0.01143682
P        4.97158765       3.04128526       6.45247918       0.00000000 NULL      -0.02302065       0.03098165       0.09422719
P        6.12831467       8.10247947      10.70239324       0.00000000 NULL       0.00845517       0.08307058      -0.05132774
P        3.62062154       4.34635517       1.99428555       0.00000000 NULL       0.02383078      -0.04920594      -0.02487918
P        3.46975452       5.81796565       7.30822139       0.00000000 NULL       0.04168713       0.12627941      -0.01338053
P        3.23983931       5.78744920       9.47450360       0.00000000 NULL      -0.04628292       0.01786929       0.05895458
P        4.83365499       1.33732735       5.03493651       0.00000000 NULL       0.01365958      -0.05285431      -0.07351095
P        5.57093241       4.39943084       4.68937509       0.00000000 NULL      -0.05172023      -0.00442958      -0.00498599
P        5.58541001       6.14773902       9.83604888       0.00000000 NULL      -0.11736787       0.02014567      -0.01079863
P        6.67627071       4.45436153      10.81228920       0.00000000 NULL       0.09955361      -0.01107418      -0.00745897
P        2.53351394       2.48219080       2.69453606       0.00000000 NULL      -0.01611915      -0.05138867      -0.01737450
P        5.79184609       5.70897377       7.67606457       0.00000000 NULL       0.00773535      -0.16701053       0.05526773
P        2.92525024       3.64898396       6.96071835       0.00000000 NULL      -0.03635865       0.03736516      -0.00354585
P        3.62927533       5.47435756       3.98697181       0.00000000 NULL      -0.03726117       0.02920357       0.02106185
P        2.25022248       4.01782896       4.87435302       0.00000000 NULL       0.00264831      -0.01336735      -0.02203176
16
Lattice="5.456978760543308 -0.3265638866679838 1.037135083426779 0.08390066190619444 6.9156250106324055 0.7727160572824466 3.8692391521208327 2.860756171458896 10.157632534814221" Properties=species:S:1:pos:R:3:initial_magmoms:R:1:castep_labels:S:1:forces:R:3 n_minim_iter=7 energy=-85.32814181013617 stress="-0.0006078856103210884 0.0005916581511021411 0.0003205679684601898 0.0005916581511021411 0.00022234625129864962 -0.00037583263628900466 0.0003205679684601898 -0.00037583263628900466 0.00010458907718186769" free_energy=-85.32814181013617 pbc="T T T"
P        6.72980834       7.50473619       6.86478957       0.00000000 NULL      -0.01796130      -0.08348517       0.00195332
P        5.77923885       2.59166166       3.40290694       0.00000000 NULL       0.02423528       0.03195763      -0.03944278
P        4.97487659       3.04954608       6.45018221       0.00000000 NULL      -0.00080150      -0.08171580      -0.00891414
P        6.15369385       8.11282114      10.67043235       0.00000000 NULL      -0.00102509      -0.00113803      -0.05187668
P        3.62829790       4.34693318       1.98235154       0.00000000 NULL       0.03354089       0.00787074      -0.02611122
P        3.49376760       5.82758317       7.28467034       0.00000000 NULL      -0.01591779       0.06189727       0.08524709
P        3.25724219       5.78941417       9.45810533       0.00000000 NULL      -0.05403265       0.03461440      -0.06746089
P        4.83835987       1.34160421       5.01792361       0.00000000 NULL       0.05739307      -0.02346030       0.08878781
P        5.57611702       4.40743066       4.67927220       0.00000000 NULL      -0.07198881      -0.00908682       0.03265372
P        5.58798497       6.15099211       9.81502917       0.00000000 NULL      -0.01747156       0.01617857       0.00810863
P        6.69298501       4.45641987      10.78937307       0.00000000 NULL       0.05211864      -0.02452547      -0.06265525
P        2.53767105       2.48677425       2.68689746       0.00000000 NULL       0.01253109      -0.06040031       0.02984768
P        5.80909051       5.69951391       7.65891829       0.00000000 NULL       0.02632469      -0.01518428       0.02232252
P        2.92822671       3.65344172       6.94471355       0.00000000 NULL      -0.01399094       0.12579875       0.02088723
P        3.63529027       5.47962637       3.97818746       0.00000000 NULL      -0.01625255       0.03639041      -0.00343944
P        2.26090734       4.01782305       4.85836745       0.00000000 NULL       0.00329853      -0.01571159      -0.02990760
16
Lattice="5.463840295998934 -0.3326181916623597 1.0314632218111817 0.07430250736441342 6.911854379265437 0.7774886907869909 3.8625737952636365 2.862182646312479 10.146293368085427" Properties=species:S:1:pos:R:3:initial_magmoms:R:1:castep_labels:S:1:forces:R:3 n_minim_iter=8 energy=-85.32939874864067 stress="0.0001269491388961601 -0.00038887143496007485 -6.061170908226107e-06 -0.00038887143496007485 -4.394226690848308e-05 6.547592701763519e-05 -6.061170908226107e-06 6.547592701763519e-05 -0.00028971314690438507" free_energy=-85.32939874864067 pbc="T T T"
P        6.72477435       7.49453248       6.85923423       0.00000000 NULL      -0.02840385      -0.04621070      -0.01153763
P        5.78143639       2.58558725       3.39647937       0.00000000 NULL       0.03321608       0.04513055      -0.05933593
P        4.97179251       3.04646807       6.44385431       0.00000000 NULL      -0.05146776      -0.08738452      -0.00091762
P        6.14352083       8.10983413      10.65966418       0.00000000 NULL       0.00353212      -0.00721719      -0.05529839
P        3.62620766       4.33977288       1.97974246       0.00000000 NULL       0.04174530       0.05136604      -0.00658149
P        3.48631620       5.82764509       7.27908343       0.00000000 NULL       0.00005179       0.05228621       0.06612236
P        3.24570946       5.79058648       9.45126010       0.00000000 NULL      -0.04970359       0.04514569      -0.06925624
P        4.84034816       1.33814635       5.00883471       0.00000000 NULL       0.05992480      -0.03637551       0.12363766
P        5.57305593       4.40097215       4.67388642       0.00000000 NULL      -0.06886686       0.00266049       0.03118060
P        5.57672858       6.14822670       9.80583933       0.00000000 NULL       0.00006001       0.00249173      -0.00005301
P        6.68896648       4.45336771      10.77561964       0.00000000 NULL       0.01602780      -0.01876223      -0.04780378
P        2.53559772       2.48379967       2.68414080       0.00000000 NULL       0.00677199      -0.08657303       0.03992682
P        5.80432625       5.69158802       7.65134091       0.00000000 NULL      -0.00726417      -0.02041773       0.04037954
P        2.92007650       3.65521126       6.93835202       0.00000000 NULL       0.04901125       0.08225866       0.01770973
P        3.62846125       5.47498232       3.97629587       0.00000000 NULL       0.01963339       0.05288398      -0.03601776
P        2.25467664       4.01616698       4.85402984       0.00000000 NULL      -0.02426830      -0.03128245      -0.03215485
16
Lattice="5.461320517479229 -0.31758332197484124 1.020398380401669 0.0899870930125681 6.904084963398273 0.78424074273393 3.8508336068740476 2.87845639210835 10.138107198521705" Properties=species:S:1:pos:R:3:initial_magmoms:R:1:castep_labels:S:1:forces:R:3 n_minim_iter=9 energy=-85.3326618553832 stress="-0.0002895306980597376 0.0006506077847053658 -0.001678411830620739 0.0006506077847053658 0.00043760896433925036 0.00041100837589388257 -0.001678411830620739 0.00041100837589388257 -6.042883392614024e-05" free_energy=-85.3326618553832 pbc="T T T"
P        6.73293415       7.50071457       6.85329469       0.00000000 NULL       0.01388049      -0.07697612       0.02390353
P        5.78476133       2.60273041       3.38344823       0.00000000 NULL      -0.00646358       0.01822097       0.00245751
P        4.96373683       3.05800307       6.43991837       0.00000000 NULL      -0.02460771      -0.09663265      -0.01021928
P        6.14611508       8.12895717      10.64659984       0.00000000 NULL      -0.02352020      -0.00624846      -0.07312724
P        3.63609683       4.34395930       1.97323896       0.00000000 NULL       0.03930102       0.01396350       0.06107502
P        3.49086370       5.84446115       7.27875452       0.00000000 NULL      -0.02291792       0.04138564      -0.00650654
P        3.23850967       5.80622417       9.44685999       0.00000000 NULL      -0.04989908       0.04056412      -0.02734887
P        4.84044347       1.35108084       5.00148106       0.00000000 NULL       0.00925959       0.02274670       0.04576934
P        5.57005951       4.41340471       4.66827212       0.00000000 NULL      -0.04123715      -0.01645608       0.05737480
P        5.56655539       6.16525581       9.79914692       0.00000000 NULL       0.02197153       0.02957217      -0.04282611
P        6.68459617       4.47374517      10.75944227       0.00000000 NULL       0.00997723      -0.02485891       0.02105788
P        2.53692407       2.48529794       2.68256608       0.00000000 NULL       0.06554775      -0.06939457       0.00323287
P        5.80675429       5.69786786       7.64609994       0.00000000 NULL      -0.01984822       0.01584364       0.06236897
P        2.91397198       3.67396796       6.93524514       0.00000000 NULL       0.05700279       0.07453789       0.00344549
P        3.63221764       5.48388463       3.97382528       0.00000000 NULL      -0.05437160       0.02110047      -0.05683798
P        2.25439005       4.01991519       4.84883674       0.00000000 NULL       0.02592505       0.01263169      -0.06381941
16
Lattice="5.469643384812513 -0.3074327288978745 1.0370036960376603 0.1037583248127975 6.880059074282998 0.7839421382304113 3.8920602388855285 2.8752345188959807 10.14042992178819" Properties=species:S:1:pos:R:3:initial_magmoms:R:1:castep_labels:S:1:forces:R:3 n_minim_iter=10 energy=-85.33751337739038 stress="0.00014478492677972917 0.0001352365523437731 7.378025404732829e-05 0.0001352365523437731 -7.741912685091376e-05 -4.589076434309852e-05 7.378025404732829e-05 -4.589076434309852e-05 -0.00031552745299656904" free_energy=-85.33751337739038 pbc="T T T"
P        6.77733934       7.47300085       6.87102525       0.00000000 NULL       0.02624001      -0.03895143       0.00210233
P        5.81025156       2.60742669       3.39357971       0.00000000 NULL       0.00992843      -0.04488961       0.07570375
P        4.98851111       3.04951424       6.45660550       0.00000000 NULL      -0.02154091      -0.06940454       0.01971531
P        6.20285386       8.11604601      10.64641961       0.00000000 NULL       0.02135088      -0.04577548      -0.00097316
P        3.65761488       4.33295704       1.97862909       0.00000000 NULL      -0.02993954       0.01525985      -0.01558397
P        3.53255593       5.84281291       7.28735011       0.00000000 NULL      -0.00260158       0.06802731      -0.09898138
P        3.27506917       5.80011742       9.44660583       0.00000000 NULL      -0.05603481       0.01666886       0.04592119
P        4.87278991       1.35108030       5.01610223       0.00000000 NULL      -0.01215246      -0.00701870      -0.01523845
P        5.58929230       4.40625444       4.68547614       0.00000000 NULL      -0.01561975       0.03253579       0.02468824
P        5.60292631       6.15509587       9.80874587       0.00000000 NULL       0.07725942      -0.00099484      -0.00397047
P        6.74011872       4.46706565      10.76446421       0.00000000 NULL      -0.02218470      -0.01604545       0.02077916
P        2.55295056       2.47357618       2.69062611       0.00000000 NULL       0.05067982      -0.00679477      -0.03594600
P        5.84990194       5.67484795       7.66214639       0.00000000 NULL      -0.05306892       0.02319727       0.04187769
P        2.94235947       3.68071198       6.93967581       0.00000000 NULL       0.01466894       0.03802825      -0.02221239
P        3.65319116       5.47522746       3.98141382       0.00000000 NULL      -0.03880549       0.01848117      -0.06101220
P        2.27713981       4.00733816       4.84576333       0.00000000 NULL       0.05182067       0.01767632       0.02313032
16
Lattice="5.471690907659368 -0.2927322013331711 1.0381673131206965 0.11946051619509922 6.863164701413114 0.7946781116931357 3.9037723464424796 2.8920844200919853 10.144251921275242" Properties=species:S:1:pos:R:3:initial_magmoms:R:1:castep_labels:S:1:forces:R:3 n_minim_iter=11 energy=-85.34201054677537 stress="0.0001760103728980158 0.00021802867463335736 1.8495991360409428e-05 0.00021802867463335736 -0.0001006294326615303 4.856594874036725e-05 1.8495991360409428e-05 4.856594874036725e-05 -0.0005296850839483522" free_energy=-85.34201054677537 pbc="T T T"
P        6.80634437       7.46245251       6.88666108       0.00000000 NULL       0.02471824      -0.01174517      -0.00394657
P        5.82479174       2.61682189       3.40476349       0.00000000 NULL       0.02194307       0.02328532       0.05764744
P        4.99152876       3.04862513       6.47040112       0.00000000 NULL       0.02240871      -0.01610323       0.02706634
P        6.23344688       8.12366279      10.65084879       0.00000000 NULL      -0.03676583       0.02847964      -0.03183321
P        3.66971881       4.33315915       1.98027372       0.00000000 NULL       0.02055964      -0.05254935       0.00701642
P        3.55488143       5.86666061       7.28822914       0.00000000 NULL      -0.02576156       0.02712588       0.05633074
P        3.28034779       5.81725539       9.45887357       0.00000000 NULL       0.02195895       0.00162603      -0.07861356
P        4.88637415       1.36223814       5.01988553       0.00000000 NULL      -0.03145827      -0.04098503      -0.03148001
P        5.59392521       4.41694761       4.70013667       0.00000000 NULL       0.04369285      -0.02385663       0.02201139
P        5.62263231       6.16765860       9.81906289       0.00000000 NULL      -0.01261575      -0.01521194       0.00592812
P        6.75892794       4.48272834      10.76954651       0.00000000 NULL       0.00482037      -0.02178019       0.02813167
P        2.56773499       2.46962091       2.69136883       0.00000000 NULL       0.01746826       0.01254498      -0.00000610
P        5.86429171       5.67515940       7.68177640       0.00000000 NULL      -0.04636669       0.02903826      -0.03051171
P        2.95283042       3.70639733       6.94341694       0.00000000 NULL       0.00262362       0.03511616       0.01189377
P        3.65975396       5.48123399       3.98217430       0.00000000 NULL      -0.01696200      -0.01041511      -0.02317943
P        2.29333681       4.00891172       4.85008782       0.00000000 NULL      -0.01026362       0.03543038      -0.01645530
16
Lattice="5.463231380712145 -0.2827082807741747 1.0375092014406173 0.13013702850587852 6.851716708858268 0.800763234633262 3.8992831474859533 2.900206510579151 10.161208056324696" Properties=species:S:1:pos:R:3:initial_magmoms:R:1:castep_labels:S:1:forces:R:3 n_minim_iter=12 energy=-85.34454005519714 stress="6.468492911376044e-05 0.00023273286211466737 -1.1605596714951658e-07 0.00023273286211466737 -0.0001520580044227734 8.959634685156997e-05 -1.1605596714951658e-07 8.959634685156997e-05 -0.0003398032280899947" free_energy=-85.34454005519714 pbc="T T T"
P        6.81370277       7.45503587       6.90162530       0.00000000 NULL      -0.02864030       0.00090874      -0.01512107
P        5.82470585       2.62561552       3.42086346       0.00000000 NULL      -0.00416855       0.01767012      -0.02391825
P        4.98542110       3.04745516       6.48819401       0.00000000 NULL       0.01270352      -0.04633959      -0.00758084
P        6.23382057       8.12868341      10.66400431       0.00000000 NULL      -0.02200087      -0.01378423       0.01099556
P        3.67297684       4.32783098       1.98282698       0.00000000 NULL       0.01097937       0.01001179      -0.01304328
P        3.55722850       5.88077217       7.30572710       0.00000000 NULL      -0.05849343       0.03083692      -0.05150678
P        3.27798126       5.82564952       9.46910935       0.00000000 NULL       0.02860449      -0.03614943       0.04195757