27
Lattice="8.593160000000001 -1.3423089841981085e-16 -9.886660014739646e-16 -1.0690355534754992 8.526403800606989 -9.276432640408686e-16 -1.069035553475499 -1.2114404633947626 8.439903659086115" Properties=species:S:1:pos:R:3:initial_magmoms:R:1:castep_labels:S:1 n_minim_iter=1 pbc="T T T"
P        3.40622118       2.69772365       7.87666078       0.00000000 NULL
P        6.93211287       4.30203396       3.78947960       0.00000000 NULL
P        2.25301398       7.26886839       4.79680320       0.00000000 NULL
P        6.78261209       2.70580801       2.58581346       0.00000000 NULL
P        1.31444518       7.00051991       3.04575276       0.00000000 NULL
P        1.84099426       1.55555922       7.36224358       0.00000000 NULL
P        0.01126071       4.03022719       2.65832490       0.00000000 NULL
P        2.04134308       0.26729128       4.36703825       0.00000000 NULL
P        3.99751737       2.55853187       0.88505303       0.00000000 NULL
P        1.76643469       4.89386831       3.13213349       0.00000000 NULL
P        2.16659452       2.05191109       5.28923698       0.00000000 NULL
P        4.63609614       2.76482859       2.78259488       0.00000000 NULL
P        0.72383197       7.23515211       1.13152776       0.00000000 NULL
P        0.00130653       0.72966292       7.32252034       0.00000000 NULL
P        7.08889702       0.89011854       1.76265193       0.00000000 NULL
P        0.56088628       3.07177423       5.94159343       0.00000000 NULL
P        5.33279925       1.23390093       3.88479903       0.00000000 NULL
P        2.97813378       5.74794828       1.77333938       0.00000000 NULL
P        3.02839149       0.80468229       0.96694963       0.00000000 NULL
P        0.45951418       3.10971545       0.93390403       0.00000000 NULL
P        0.42168282       0.51598223       3.21085753       0.00000000 NULL
P        2.78545762       4.14358645       0.56581789       0.00000000 NULL
P       -0.37495089       2.76025482       4.18194187       0.00000000 NULL
P        3.76487090       0.09415081       3.32642682       0.00000000 NULL
P        6.56102117       0.62915141       5.35266370       0.00000000 NULL
P        4.35227805       7.15807579       1.38328080       0.00000000 NULL
P       -0.19196267       4.36228539       7.28199530       0.00000000 NULL
27
Lattice="8.654815971453736 0.0033716657945401874 0.0038901814219330297 -1.07336041668335 8.588000249403713 0.0038901814219336832 -1.073360416683349 -1.2163414363059106 8.501427934623393" Properties=species:S:1:pos:R:3:initial_magmoms:R:1:castep_labels:S:1 n_minim_iter=2 pbc="T T T"
P        3.43586253       2.72312804       7.93780158       0.00000000 NULL
P        6.98489426       4.33852508       3.82331321       0.00000000 NULL
P        2.27453348       7.32476112       4.83773124       0.00000000 NULL
P        6.83321726       2.72941830       2.60913490       0.00000000 NULL
P        1.32772662       7.05318650       3.07243706       0.00000000 NULL
P        1.85812557       1.57109256       7.41816721       0.00000000 NULL
P        0.01432838       4.06123085       2.67987701       0.00000000 NULL
P        2.05775836       0.27244111       4.40078953       0.00000000 NULL
P        4.02789854       2.57888485       0.89494602       0.00000000 NULL
P        1.78254330       4.93163494       3.15904403       0.00000000 NULL
P        2.18569688       2.07054086       5.33044395       0.00000000 NULL
P        4.67156538       2.78852762       2.80689038       0.00000000 NULL
P        0.73228447       7.28871631       1.14370609       0.00000000 NULL
P        0.00466478       0.73860265       7.37727144       0.00000000 NULL
P        7.14099357       0.90003493       1.77928006       0.00000000 NULL
P        0.56872714       3.09753213       5.98777260       0.00000000 NULL
P        5.37354810       1.24691224       3.91685681       0.00000000 NULL
P        3.00271614       5.79209829       1.79077350       0.00000000 NULL
P        3.05075341       0.81189895       0.97593663       0.00000000 NULL
P        0.46454157       3.13288278       0.94232436       0.00000000 NULL
P        0.42606148       0.52159797       3.23498620       0.00000000 NULL
P        2.80674384       4.17524881       0.57335912       0.00000000 NULL
P       -0.37465596       2.78174467       4.21435449       0.00000000 NULL
P        3.79363917       0.09805501       3.35230388       0.00000000 NULL
P        6.61092107       0.63900877       5.39577213       0.00000000 NULL
P        4.38702017       7.21272232       1.39916305       0.00000000 NULL
P       -0.18838970       4.39774749       7.33834400       0.00000000 NULL
27
Lattice="9.133577977666627 0.02891676636735763 0.03336376561605687 -1.1075743453991973 9.066220928419265 0.03336376561605687 -1.1075743453991975 -1.2551129603430027 8.978984715464357" Properties=species:S:1:pos:R:3:initial_magmoms:R:1:castep_labels:S:1 n_minim_iter=3 pbc="T T T"
P        3.66540502       2.91951701       8.41161041       0.00000000 NULL
P        7.39401015       4.62115945       4.08502908       0.00000000 NULL
P        2.44084047       7.75793160       5.15468315       0.00000000 NULL
P        7.22544038       2.91189029       2.78900418       0.00000000 NULL
P        1.42986890       7.46128702       3.27861389       0.00000000 NULL
P        1.99038535       1.69061720       7.85142138       0.00000000 NULL
P        0.03780326       4.30182672       2.84656798       0.00000000 NULL
P        2.18463750       0.31200782       4.66262818       0.00000000 NULL
P        4.26370493       2.73632264       0.97131364       0.00000000 NULL
P        1.90699029       5.22433048       3.36743065       0.00000000 NULL
P        2.33362169       2.21450891       5.64977789       0.00000000 NULL
P        4.94650523       2.97208238       2.99476919       0.00000000 NULL
P        0.79731024       7.70440320       1.23741856       0.00000000 NULL
P        0.03001395       0.80731580       7.80205597       0.00000000 NULL
P        7.54536163       0.97628200       1.90764995       0.00000000 NULL
P        0.62875600       3.29709793       6.34602456       0.00000000 NULL
P        5.68980859       1.34706365       4.16529883       0.00000000 NULL
P        3.19326369       6.13472564       1.92520778       0.00000000 NULL
P        3.22419957       0.86738297       1.04534970       0.00000000 NULL
P        0.50331706       3.31254856       1.00710778       0.00000000 NULL
P        0.45953683       0.56487417       3.42203377       0.00000000 NULL
P        2.97128871       4.42087482       0.63117343       0.00000000 NULL
P       -0.37297070       2.94778912       4.46570295       0.00000000 NULL
P        4.01688676       0.12774411       3.55237566       0.00000000 NULL
P        6.99794672       0.71464073       5.72952843       0.00000000 NULL
P        4.65601355       7.63650437       1.52144817       0.00000000 NULL
P       -0.16149338       4.67221917       7.77520119       0.00000000 NULL
27
Lattice="9.33351288129342 0.05531895874129483 0.06382625049155936 -1.106250241921111 9.267887207703591 0.06382625049156006 -1.1062502419211107 -1.2536124746707904 9.182933237714266" Properties=species:S:1:pos:R:3:initial_magmoms:R:1:castep_labels:S:1 n_minim_iter=4 pbc="T T T"
P        3.78393994       3.02842915       8.63253991       0.00000000 NULL
P        7.58089891       4.76405443       4.22422621       0.00000000 NULL
P        2.53416014       7.95798395       5.31590574       0.00000000 NULL
P        7.39733264       3.00713821       2.88625233       0.00000000 NULL
P        1.49057054       7.64213581       3.38671265       0.00000000 NULL
P        2.06350901       1.76096229       8.04579426       0.00000000 NULL
P        0.06201988       4.41181356       2.92774506       0.00000000 NULL
P        2.24584848       0.34408863       4.78303293       0.00000000 NULL
P        4.36982466       2.81131809       1.02017623       0.00000000 NULL
P        1.97424202       5.35984627       3.47421599       0.00000000 NULL
P        2.41103142       2.29199277       5.79909104       0.00000000 NULL
P        5.07260178       3.06590809       3.09268155       0.00000000 NULL
P        0.84029681       7.88560612       1.29665405       0.00000000 NULL
P        0.05729974       0.85405999       7.98983683       0.00000000 NULL
P        7.71980910       1.02565354       1.98060003       0.00000000 NULL
P        0.67088445       3.39837957       6.51217176       0.00000000 NULL
P        5.83347319       1.40753452       4.28915934       0.00000000 NULL
P        3.28851752       6.29145790       2.00266341       0.00000000 NULL
P        3.30025759       0.89786935       1.08402153       0.00000000 NULL
P        0.52753927       3.39223903       1.04277941       0.00000000 NULL
P        0.48032434       0.59189235       3.50598405       0.00000000 NULL
P        3.04699428       4.53264011       0.67179182       0.00000000 NULL
P       -0.35825128       3.02593293       4.58210549       0.00000000 NULL
P        4.11836562       0.15530213       3.64626530       0.00000000 NULL
P        7.17207733       0.77177302       5.88993319       0.00000000 NULL
P        4.78384040       7.82802516       1.60079133       0.00000000 NULL
P       -0.12646771       4.80543831       7.97605217       0.00000000 NULL
27
Lattice="9.45069359737726 0.09721549942819778 0.11216590043178752 -1.0792570901504293 9.389369758306282 0.11216590043178827 -1.0792570901504288 -1.2230235983857611 9.31005149960019" Properties=species:S:1:pos:R:3:initial_magmoms:R:1:castep_labels:S:1 n_minim_iter=5 pbc="T T T"
P        3.89057577       3.13718885       8.80082794       0.00000000 NULL
P        7.71758686       4.88866300       4.35579308       0.00000000 NULL
P        2.62880886       8.10760907       5.45794333       0.00000000 NULL
P        7.51184036       3.09467973       2.98078178       0.00000000 NULL
P        1.55682734       7.76584729       3.48679690       0.00000000 NULL
P        2.13612508       1.83684241       8.18247076       0.00000000 NULL
P        0.10021949       4.49216183       2.99519325       0.00000000 NULL
P        2.29601424       0.38887707       4.87214918       0.00000000 NULL
P        4.44479650       2.87127654       1.07717203       0.00000000 NULL
P        2.03958927       5.46184451       3.56999175       0.00000000 NULL
P        2.48259006       2.36682363       5.91366243       0.00000000 NULL
P        5.16567809       3.14969684       3.18303167       0.00000000 NULL
P        0.89194331       8.00467006       1.36519519       0.00000000 NULL
P        0.10140806       0.91164113       8.11743127       0.00000000 NULL
P        7.83152299       1.08411382       2.05572576       0.00000000 NULL
P        0.72473042       3.48732614       6.63663961       0.00000000 NULL
P        5.93648301       1.47471738       4.39488808       0.00000000 NULL
P        3.37007437       6.40549978       2.08418675       0.00000000 NULL
P        3.35114189       0.92848100       1.12305082       0.00000000 NULL
P        0.55522666       3.44699315       1.07862583       0.00000000 NULL
P        0.50436790       0.62281108       3.56527578       0.00000000 NULL
P        3.10421567       4.61309654       0.72313263       0.00000000 NULL
P       -0.32628729       3.08760995       4.66904024       0.00000000 NULL
P        4.19107836       0.19663306       3.71966840       0.00000000 NULL
P        7.29468936       0.84782176       6.01955656       0.00000000 NULL
P        4.88517724       7.96430272       1.69448558       0.00000000 NULL
P       -0.06626336       4.91511694       8.12425938       0.00000000 NULL
27
Lattice="9.431495862096968 0.12788502521155026 0.1475519756516817 -1.046437519379858 9.37413661594814 0.1475519756516816 -1.0464375193798585 -1.1858321729991506 9.300000588035381" Properties=species:S:1:pos:R:3:initial_magmoms:R:1:castep_labels:S:1 n_minim_iter=6 pbc="T T T"
P        3.92631271       3.18359557       8.82852462       0.00000000 NULL
P        7.73380141       4.92671272       4.40566419       0.00000000 NULL
P        2.67040920       8.12916640       5.50269277       0.00000000 NULL
P        7.51139811       3.12483439       3.01772926       0.00000000 NULL
P        1.58891977       7.76942531       3.52189518       0.00000000 NULL
P        2.16610050       1.87294440       8.19099928       0.00000000 NULL
P        0.12879084       4.50218023       3.01180978       0.00000000 NULL
P        2.30736762       0.41909560       4.88442684       0.00000000 NULL
P        4.45118264       2.88351950       1.10882841       0.00000000 NULL
P        2.06574472       5.47733218       3.60226162       0.00000000 NULL
P        2.50884711       2.39647596       5.93357793       0.00000000 NULL
P        5.17779157       3.17767825       3.21521279       0.00000000 NULL
P        0.92106927       8.00393915       1.40196751       0.00000000 NULL
P        0.13400416       0.94508201       8.12193242       0.00000000 NULL
P        7.82717434       1.11641990       2.08946691       0.00000000 NULL
P        0.75692395       3.51527831       6.65531914       0.00000000 NULL
P        5.94688373       1.50846700       4.42521067       0.00000000 NULL
P        3.39380434       6.41895718       2.12190225       0.00000000 NULL
P        3.35182289       0.94111113       1.14019090       0.00000000 NULL
P        0.57019577       3.44955630       1.09356310       0.00000000 NULL
P        0.51681519       0.63945802       3.56993524       0.00000000 NULL
P        3.11230939       4.62137588       0.75351233       0.00000000 NULL
P       -0.29862351       3.09923551       4.68155196       0.00000000 NULL
P        4.19828648       0.22541718       3.73295369       0.00000000 NULL
P        7.30350258       0.89610569       6.04858336       0.00000000 NULL
P        4.90578301       7.97576848       1.74640384       0.00000000 NULL
P       -0.01945093       4.94175335       8.14298541       0.00000000 NULL
27
Lattice="9.330409810944477 0.2909115043318143 0.3356496754249009 -0.8721018647646688 9.294117229785488 0.33564967542489976 -0.8721018647646702 -0.9882734804686367 9.2475181164143" Properties=species:S:1:pos:R:3:initial_magmoms:R:1:castep_labels:S:1 n_minim_iter=7 pbc="T T T"
P        4.11816534       3.43111708       8.97719277       0.00000000 NULL
P        7.82105569       5.13100732       4.67179752       0.00000000 NULL
P        2.89214032       8.24490435       5.74272731       0.00000000 NULL
P        7.50644789       3.28266125       3.21116135       0.00000000 NULL
P        1.75726789       7.78554372       3.70560393       0.00000000 NULL
P        2.32331711       2.06232230       8.23305571       0.00000000 NULL
P        0.28304550       4.55780359       3.09985151       0.00000000 NULL
P        2.36680741       0.58201050       4.95199497       0.00000000 NULL
P        4.48718378       2.94793847       1.27969069       0.00000000 NULL
P        2.20496181       5.56013186       3.77607092       0.00000000 NULL
P        2.65056435       2.55455144       6.04023262       0.00000000 NULL
P        5.24262866       3.32863428       3.38683822       0.00000000 NULL
P        1.07631925       8.00184917       1.59830138       0.00000000 NULL
P        0.30781718       1.12334007       8.14775897       0.00000000 NULL
P        7.80578665       1.28891218       2.26958601       0.00000000 NULL
P        0.92703940       3.66531222       6.75615792       0.00000000 NULL
P        6.00360942       1.68702658       4.58804977       0.00000000 NULL
P        3.52150942       6.49213859       2.32178669       0.00000000 NULL
P        3.35656445       1.00807974       1.23169564       0.00000000 NULL
P        0.65003762       3.46434551       1.17285341       0.00000000 NULL
P        0.58267368       0.72818228       3.59584006       0.00000000 NULL
P        3.15352289       4.66625687       0.91446798       0.00000000 NULL
P       -0.15199284       3.15915615       4.74884639       0.00000000 NULL
P        4.23769163       0.37813647       3.80182770       0.00000000 NULL
P        7.35115999       1.15306969       6.20281203       0.00000000 NULL
P        5.01510612       8.03750589       2.02267391       0.00000000 NULL
P        0.22958800       5.08315676       8.24334925       0.00000000 NULL
27
Lattice="9.200806593273512 0.31878692381186635 0.3678119493861947 -0.8283196554105661 9.168988691130513 0.367811949386195 -0.8283196554105658 -0.9386590969095996 9.128228653357633" Properties=species:S:1:pos:R:3:initial_magmoms:R:1:castep_labels:S:1 n_minim_iter=8 pbc="T T T"
P        4.11170066       3.44033433       8.90057019       0.00000000 NULL
P        7.74530447       5.11499438       4.67003464       0.00000000 NULL
P        2.90209021       8.16980755       5.72662635       0.00000000 NULL
P        7.40517036       3.26640696       3.20035661       0.00000000 NULL
P        1.76154680       7.68400974       3.68797939       0.00000000 NULL
P        2.31978857       2.06619231       8.13004767       0.00000000 NULL
P        0.32054546       4.52202112       3.07418665       0.00000000 NULL
P        2.34197959       0.61669117       4.91292902       0.00000000 NULL
P        4.44701409       2.91787981       1.30846899       0.00000000 NULL
P        2.20392776       5.50892992       3.77313200       0.00000000 NULL
P        2.65502479       2.55406855       5.98913255       0.00000000 NULL
P        5.19195312       3.32677597       3.37909987       0.00000000 NULL
P        1.09487392       7.91194936       1.61956212       0.00000000 NULL
P        0.33906427       1.14595775       8.06179194       0.00000000 NULL
P        7.71427693       1.30893049       2.27975995       0.00000000 NULL
P        0.94166275       3.65582937       6.69950595       0.00000000 NULL
P        5.94748547       1.69472763       4.57061396       0.00000000 NULL
P        3.51028103       6.43416741       2.32693232       0.00000000 NULL
P        3.32111210       1.00636921       1.23694829       0.00000000 NULL
P        0.65984819       3.42984563       1.17190653       0.00000000 NULL
P        0.58538690       0.73840985       3.56155565       0.00000000 NULL
P        3.11386120       4.62274540       0.93274120       0.00000000 NULL
P       -0.12297726       3.12282189       4.70837262       0.00000000 NULL
P        4.19945231       0.40258480       3.76011150       0.00000000 NULL
P        7.27282930       1.19126945       6.15599270       0.00000000 NULL
P        4.97348126       7.95334301       2.05383400       0.00000000 NULL
P        0.27723577       5.04718005       8.16446746       0.00000000 NULL
27
Lattice="9.256978317217875 0.3467287241737164 0.40005081269201065 -0.8075829877813641 9.22820015449682 0.40005081269201 -0.8075829877813651 -0.9151601233157722 9.191419949762022" Properties=species:S:1:pos:R:3:initial_magmoms:R:1:castep_labels:S:1 n_minim_iter=9 pbc="T T T"
P        4.17491222       3.50604931       8.99268745       0.00000000 NULL
P        7.81865067       5.18789695       4.74817106       0.00000000 NULL
P        2.95943082       8.25091734       5.80989103       0.00000000 NULL
P        7.46317345       3.31643273       3.25503509       0.00000000 NULL
P        1.80098172       7.74741129       3.74526643       0.00000000 NULL
P        2.36220981       2.11125473       8.20094541       0.00000000 NULL
P        0.34818809       4.56624971       3.11211565       0.00000000 NULL
P        2.36955802       0.64800799       4.96209790       0.00000000 NULL
P        4.48746019       2.95074527       1.34645407       0.00000000 NULL
P        2.24285695       5.56319518       3.83098795       0.00000000 NULL
P        2.69935573       2.59886071       6.05106753       0.00000000 NULL
P        5.24095382       3.37759767       3.43223740       0.00000000 NULL
P        1.12758033       7.97402585       1.66288652       0.00000000 NULL
P        0.36879577       1.18264795       8.12939424       0.00000000 NULL
P        7.77180232       1.34610726       2.32568294       0.00000000 NULL
P        0.97508937       3.70758715       6.76720071       0.00000000 NULL
P        6.00251779       1.73531588       4.63146480       0.00000000 NULL
P        3.55747827       6.49554816       2.37575456       0.00000000 NULL
P        3.34806701       1.02463369       1.26074217       0.00000000 NULL
P        0.67728950       3.45919837       1.19336638       0.00000000 NULL
P        0.60015616       0.75783947       3.59365964       0.00000000 NULL
P        3.14297998       4.66598832       0.96501691       0.00000000 NULL
P       -0.10099597       3.15492465       4.75576261       0.00000000 NULL
P        4.23873677       0.42966365       3.79862180       0.00000000 NULL
P        7.33808665       1.24087100       6.22826140       0.00000000 NULL
P        5.02935001       8.02611609       2.11320036       0.00000000 NULL
P        0.31833362       5.10863903       8.24493708       0.00000000 NULL
27
Lattice="9.23107465704674 0.35742483104734113 0.4123918330606889 -0.7937474185627005 9.203828381132757 0.4123918330606895 -0.7937474185627001 -0.8994815349553595 9.169048852612484" Properties=species:S:1:pos:R:3:initial_magmoms:R:1:castep_labels:S:1 n_minim_iter=10 pbc="T T T"
P        4.18069260       3.51641031       8.98474987       0.00000000 NULL
P        7.80867487       5.19247182       4.75729917       0.00000000 NULL
P        2.96899222       8.24206224       5.81571642       0.00000000 NULL
P        7.44671732       3.31968192       3.26051766       0.00000000 NULL
P        1.80795568       7.73170071       3.74926162       0.00000000 NULL
P        2.36748099       2.11894419       8.18596186       0.00000000 NULL
P        0.36003822       4.56171464       3.11137317       0.00000000 NULL
P        2.36799390       0.65975479       4.95750335       0.00000000 NULL
P        4.48148613       2.94841988       1.35742890       0.00000000 NULL
P        2.24785008       5.55673791       3.83693715       0.00000000 NULL
P        2.70548799       2.60466180       6.04552103       0.00000000 NULL
P        5.23392554       3.38289674       3.43719158       0.00000000 NULL
P        1.13637279       7.95861286       1.67369892       0.00000000 NULL
P        0.38049438       1.19297602       8.11567385       0.00000000 NULL
P        7.75541524       1.35584286       2.33395682       0.00000000 NULL
P        0.98389940       3.71095113       6.76072238       0.00000000 NULL
P        5.99458474       1.74320025       4.63387420       0.00000000 NULL
P        3.55972010       6.48783408       2.38390127       0.00000000 NULL
P        3.34219051       1.02689875       1.26487580       0.00000000 NULL
P        0.68176116       3.45383651       1.19619577       0.00000000 NULL
P        0.60313469       0.76271959       3.58875419       0.00000000 NULL
P        3.13758407       4.65988642       0.97385729       0.00000000 NULL
P       -0.09078175       3.15076716       4.75097866       0.00000000 NULL
P        4.23335354       0.43928289       3.79382677       0.00000000 NULL
P        7.32670124       1.25675592       6.22589152       0.00000000 NULL
P        5.02619939       8.01424651       2.12858741       0.00000000 NULL
P        0.33551154       5.10761751       8.23537413       0.00000000 NULL
27
Lattice="9.216858673642815 0.37253446732351314 0.42982512269127215 -0.7769866167322504 9.191602555412615 0.42982512269127343 -0.7769866167322493 -0.8804880473483886 9.159423997787245" Properties=species:S:1:pos:R:3:initial_magmoms:R:1:castep_labels:S:1 n_minim_iter=11 pbc="T T T"
P        4.19758476       3.53803266       8.99389748       0.00000000 NULL
P        7.81250960       5.20997704       4.78000186       0.00000000 NULL
P        2.98834512       8.24835345       5.83626967       0.00000000 NULL
P        7.44181861       3.33177009       3.27551353       0.00000000 NULL
P        1.82158937       7.72847303       3.76335779       0.00000000 NULL
P        2.38008468       2.13426486       8.18476972       0.00000000 NULL
P        0.37625308       4.56542463       3.11755612       0.00000000 NULL
P        2.37152634       0.67653949       4.96205418       0.00000000 NULL
P        4.48315009       2.95218860       1.37468991       0.00000000 NULL
P        2.25960377       5.56033720       3.85309820       0.00000000 NULL
P        2.71939117       2.61825068       6.05137998       0.00000000 NULL
P        5.23603464       3.39717321       3.45147506       0.00000000 NULL
P        1.15056117       7.95538971       1.69171409       0.00000000 NULL
P        0.39687753       1.20932959       8.11504302       0.00000000 NULL
P        7.75045202       1.37173200       2.35005486       0.00000000 NULL
P        0.99819127       3.72341514       6.76681264       0.00000000 NULL
P        5.99703125       1.75791076       4.64707708       0.00000000 NULL
P        3.57030930       6.49162741       2.40033842       0.00000000 NULL
P        3.34156191       1.03231868       1.27307012       0.00000000 NULL
P        0.68912345       3.45412606       1.20272498       0.00000000 NULL
P        0.60859072       0.77082359       3.58996848       0.00000000 NULL
P        3.13765577       4.66193845       0.98795590       0.00000000 NULL
P       -0.07723280       3.15253818       4.75501302       0.00000000 NULL
P        4.23538071       0.45319209       3.79615303       0.00000000 NULL
P        7.32784134       1.28069220       6.23671586       0.00000000 NULL
P        5.03331438       8.01628761       2.15381879       0.00000000 NULL
P        0.35912003       5.11774822       8.24097943       0.00000000 NULL
27
Lattice="9.050935094335339 0.5520973479597802 0.6370022941213133 -0.5781768851149385 9.049306550947094 0.6370022941213135 -0.5781768851149386 -0.6551951161499274 9.048007534010075" Properties=species:S:1:pos:R:3:initial_magmoms:R:1:castep_labels:S:1 n_minim_iter=12 pbc="T T T"
P        4.40026804       3.79652753       9.10567326       0.00000000 NULL
P        7.86063509       5.42028114       5.05175554       0.00000000 NULL
P        3.21961697       8.32585246       6.08305129       0.00000000 NULL
P        7.38555990       3.47440926       3.45200355       0.00000000 NULL
P        1.98182175       7.69186369       3.92962578       0.00000000 NULL
P        2.52861465       2.31437436       8.17215532       0.00000000 NULL
P        0.57016099       4.61139391       3.19347900       0.00000000 NULL
P        2.41549135       0.87747788       5.01834430       0.00000000 NULL
P        4.50463906       2.99919210       1.58158755       0.00000000 NULL
P        2.40074660       5.60399993       4.04791892       0.00000000 NULL
P        2.88702294       2.78151614       6.12228010       0.00000000 NULL
P        5.26179925       3.56934778       3.62315776       0.00000000 NULL
P        1.32006960       7.92078196       1.90705374       0.00000000 NULL
P        0.59216782       1.40465054       8.11138204       0.00000000 NULL
P        7.69502535       1.56160191       2.54287413       0.00000000 NULL
P        1.16818945       3.87196080       6.84080568       0.00000000 NULL
P        6.02761439       1.93307441       4.80462876       0.00000000 NULL
P        3.69655228       6.53827827       2.59611014       0.00000000 NULL
P        3.33548235       1.09711726       1.37096571       0.00000000 NULL
P        0.77689431       3.45900357       1.28077528       0.00000000 NULL
P        0.67364224       0.86743776       3.60588597       0.00000000 NULL
P        3.13785586       4.68662132       1.15424911       0.00000000 NULL
P        0.08259000       3.17277832       4.80307260       0.00000000 NULL
P        4.25984694       0.61733377       3.82301619       0.00000000 NULL
P        7.34434891       1.56564751       6.36728257       0.00000000 NULL
P        5.11932661       8.04370859       2.45443429       0.00000000 NULL
P        0.63980803       5.23962637       8.31083399       0.00000000 NULL
27
Lattice="9.29812087024782 0.5165302078336078 0.595965419121949 -0.6442189675982611 9.29014731288634 0.5959654191219493 -0.6442189675982611 -0.7300345831321499 9.280574410204876" Properties=species:S:1:pos:R:3:initial_magmoms:R:1:castep_labels:S:1 n_minim_iter=13 pbc="T T T"
P        4.46271412       3.81908422       9.27794571       0.00000000 NULL
P        8.01888651       5.50305760       5.09856004       0.00000000 NULL
P        3.23422980       8.48717503       6.17163802       0.00000000 NULL
P        7.54809902       3.49924003       3.45294551       0.00000000 NULL
P        1.95902558       7.85281722       3.95433848       0.00000000 NULL
P        2.53303177       2.29195353       8.33498718       0.00000000 NULL
P        0.56767288       4.72310690       3.22932993       0.00000000 NULL
P        2.43526342       0.87744930       5.13401771       0.00000000 NULL
P        4.61579374       3.03305549       1.59799426       0.00000000 NULL
P        2.41601844       5.69531916       4.12255813       0.00000000 NULL
P        2.94555714       2.80424653       6.22327771       0.00000000 NULL
P        5.35050916       3.63946267       3.66000740       0.00000000 NULL
P        1.30779281       8.12667739       1.89545724       0.00000000 NULL
P        0.55327886       1.38740176       8.31354103       0.00000000 NULL
P        7.90084858       1.54821447       2.55452330       0.00000000 NULL
P        1.12338057       3.92646699       6.97900106       0.00000000 NULL
P        6.16123543       1.90466803       4.87821693       0.00000000 NULL
P        3.75620950       6.68042527       2.57844743       0.00000000 NULL
P        3.42277870       1.09112586       1.38328408       0.00000000 NULL
P        0.77897750       3.54724458       1.27659488       0.00000000 NULL
P        0.65683724       0.86743026       3.69263783       0.00000000 NULL
P        3.16619844       4.79306316       1.12634583       0.00000000 NULL