32
Lattice="9.09922620006097 -1.0525468726855758 -0.29772616696463017 -2.55485293648004 8.796391239140942 -0.29772616696461957 -3.344366385690841 -3.9573312450432945 8.437088482456847" Properties=species:S:1:pos:R:3:initial_magmoms:R:1:castep_labels:S:1:forces:R:3 n_minim_iter=1 energy=-171.54831843297637 stress="2.5764495715272317e-05 0.00010224684206688424 -3.2410668179614824e-05 0.00010224684206688424 6.034197293483875e-05 -3.835099121899893e-05 -3.2410668179614824e-05 -3.835099121899893e-05 1.804904847267783e-05" free_energy=-171.54831843297637 pbc="T T T"
P        0.87403867       3.57524666       1.79333640       0.00000000 NULL      -0.00643871      -0.00175578      -0.01296927
P        3.37948643       1.45787646       1.79333640       0.00000000 NULL      -0.00065774      -0.00664132      -0.01296927
P        0.26324709      -2.73449751       4.94006261       0.00000000 NULL       0.00227997      -0.01919710      -0.00817863
P       -2.74011449      -0.19633710       4.94006261       0.00000000 NULL      -0.01930854      -0.00095251      -0.00817863
P        2.83457149       5.03638749       1.83262965       0.00000000 NULL       0.01753678      -0.01863028      -0.00642970
P        4.49331399       3.63457341       1.83262965       0.00000000 NULL      -0.02129329       0.01418526      -0.00642970
P        2.58602510       5.65931740      -0.48651243       0.00000000 NULL       0.00615525       0.00897309      -0.00855654
P        5.14896343       3.49336154      -0.48651243       0.00000000 NULL       0.00782129       0.00756511      -0.00855654
P        1.76118509       0.34680525       4.84568259       0.00000000 NULL       0.00914924       0.00646668       0.01573137
P        0.04832379       1.79435549       4.84568259       0.00000000 NULL       0.00485080       0.01009932       0.01573137
P       -3.91670989       0.39121041       6.74574865       0.00000000 NULL       0.00679515       0.00145079       0.00024587
P        1.03873515      -3.79666844       6.74574865       0.00000000 NULL       0.00029758       0.00694192       0.00024587
P        1.05448301       2.99890475       7.84206651       0.00000000 NULL      -0.00618794       0.00632844       0.01328459
P        2.78112702       1.53970666       7.84206651       0.00000000 NULL       0.00727153      -0.00504625       0.01328459
P        3.10161222       1.95149446       5.63210202       0.00000000 NULL      -0.00780720      -0.01636544      -0.01030411
P        1.40707563       3.38355836       5.63210202       0.00000000 NULL      -0.01483477      -0.01042640      -0.01030411
P        6.82302511       2.32403650       0.60693163       0.00000000 NULL       0.01114570       0.00004972      -0.00074479
P        1.15396369       7.11499720       0.60693163       0.00000000 NULL      -0.00180920       0.01099799      -0.00074479
P        1.62663854       0.14416858       2.60599467       0.00000000 NULL       0.00312623      -0.00419807      -0.00361778
P       -0.12904497       1.62790814       2.60599467       0.00000000 NULL      -0.00466052       0.00238256      -0.00361778
P        0.03095213       7.99374559      -1.10936443       0.00000000 NULL      -0.00546392      -0.00690413       0.00342095
P        7.87670483       1.36324893      -1.10936443       0.00000000 NULL      -0.00589655      -0.00653851       0.00342095
P        5.08322311       0.01081234       1.39972985       0.00000000 NULL      -0.00349838       0.00752750       0.00419517
P       -0.83682205       5.01388103       1.39972985       0.00000000 NULL       0.00800540      -0.00219442       0.00419517
P        5.04440165       3.66474361       4.06541040       0.00000000 NULL      -0.00520125       0.01161690       0.01998426
P        2.77244121       5.58479216       4.06541040       0.00000000 NULL       0.01232147      -0.00319166       0.01998425
P       -2.79458676       2.97734898       3.86707296       0.00000000 NULL       0.01746743      -0.03156005       0.02356472
P        3.40159600      -2.25908538       3.86707296       0.00000000 NULL      -0.03403053       0.01196121       0.02356472
P        4.92329459       0.23534441       3.59489277       0.00000000 NULL       0.01085707       0.00101886      -0.01120492
P       -0.58876899       4.89362521       3.59489277       0.00000000 NULL      -0.00080551       0.01087498      -0.01120491
P       -1.99296700       2.81316934       5.89568727       0.00000000 NULL       0.00673681       0.00730170      -0.01842117
P        3.10606689      -1.49605738       5.89568727       0.00000000 NULL       0.00607634       0.00785987      -0.01842117
32
Lattice="9.098966328319888 -1.0542204013817995 -0.2972309325525467 -2.5564597162563505 8.795855991189665 -0.2972309325525361 -3.3429102454492106 -3.955608219330553 8.436302639011773" Properties=species:S:1:pos:R:3:initial_magmoms:R:1:castep_labels:S:1:forces:R:3 n_minim_iter=2 energy=-171.54836474003235 stress="-4.732814340216885e-05 -8.844784391485566e-05 -6.930813107315555e-06 -8.844784391485566e-05 -7.723909248904763e-05 -8.20111976518215e-06 -6.930813107315555e-06 -8.20111976518215e-06 -3.9122431873842e-05" free_energy=-171.54836474003235 pbc="T T T"
P        0.87339047       3.57479109       1.79355066       0.00000000 NULL      -0.00728475       0.00057613      -0.01462330
P        3.37914530       1.45716137       1.79355066       0.00000000 NULL       0.00178259      -0.00708674      -0.01462330
P        0.26407891      -2.73393161       4.93968438       0.00000000 NULL       0.00637144      -0.01530825      -0.00866273
P       -2.73969518      -0.19542257       4.93968438       0.00000000 NULL      -0.01615625       0.00373005      -0.00866273
P        2.83361746       5.03533372       1.83309021       0.00000000 NULL       0.01869726      -0.01643563      -0.00650592
P        4.49243403       3.63345705       1.83309021       0.00000000 NULL      -0.01932284       0.01569539      -0.00650592
P        2.58478419       5.65815459      -0.48594838       0.00000000 NULL       0.00190999       0.00558168      -0.00751134
P        5.14802378       3.49194413      -0.48594838       0.00000000 NULL       0.00518512       0.00281385      -0.00751134
P        1.76135804       0.34679592       4.84569771       0.00000000 NULL       0.00487153       0.00355373       0.01544296
P        0.04828575       1.79452446       4.84569771       0.00000000 NULL       0.00269180       0.00539583       0.01544296
P       -3.91615674       0.39242583       6.74530413       0.00000000 NULL       0.00870897       0.00454174      -0.00137161
P        1.03984134      -3.79592040       6.74530413       0.00000000 NULL       0.00302620       0.00934428      -0.00137161
P        1.05431252       2.99894675       7.84212132       0.00000000 NULL      -0.00102858       0.00714698       0.01390065
P        2.78119686       1.53954556       7.84212132       0.00000000 NULL       0.00721843       0.00017738       0.01390065
P        3.10140396       1.95102781       5.63221125       0.00000000 NULL      -0.00661452      -0.01165199      -0.00967550
P        1.40665024       3.38327521       5.63221125       0.00000000 NULL      -0.01038613      -0.00846459      -0.00967550
P        6.82230873       2.32248451       0.60749967       0.00000000 NULL       0.00679168      -0.00372483      -0.00008214
P        1.15255285       7.11403209       0.60749967       0.00000000 NULL      -0.00480502       0.00607562      -0.00008214
P        1.62670102       0.14401280       2.60600508       0.00000000 NULL       0.00014193      -0.00601255      -0.00280731
P       -0.12920898       1.62794377       2.60600508       0.00000000 NULL      -0.00595206      -0.00086248      -0.00280731
P        0.02930816       7.99271862      -1.10872989       0.00000000 NULL      -0.00770836      -0.00860688       0.00472863
P        7.87596632       1.36145675      -1.10872989       0.00000000 NULL      -0.00720127      -0.00903543       0.00472863
P        5.08304738       0.00994583       1.40000912       0.00000000 NULL      -0.00129173       0.01193538       0.00410737
P       -0.83764713       5.01356329       1.40000912       0.00000000 NULL       0.01198370       0.00071624       0.00410737
P        5.04367540       3.66367178       4.06591043       0.00000000 NULL      -0.00605678       0.00782313       0.01905206
P        2.77150547       5.58389737       4.06591043       0.00000000 NULL       0.00872343      -0.00466773       0.01905206
P       -2.79473794       2.97773814       3.86705633       0.00000000 NULL       0.01897076      -0.02401423       0.02177281
P        3.40200491      -2.25916957       3.86705633       0.00000000 NULL      -0.02684097       0.01470155       0.02177281
P        4.92326200       0.23462393       3.59505643       0.00000000 NULL       0.00729905      -0.00429890      -0.00998757
P       -0.58947396       4.89347296       3.59505643       0.00000000 NULL      -0.00545564       0.00648018      -0.00998757
P       -1.99303280       2.81368713       5.89551121       0.00000000 NULL       0.00685943       0.00610060      -0.01777706
P        3.10658840      -1.49603593       5.89551121       0.00000000 NULL       0.00487160       0.00778053      -0.01777706
32
Lattice="9.10052836434837 -1.054269337035959 -0.29541717431542913 -2.5567683921445092 8.79738800634905 -0.29541717431541825 -3.3416202053096065 -3.9540817370128085 8.435829722262538" Properties=species:S:1:pos:R:3:initial_magmoms:R:1:castep_labels:S:1:forces:R:3 n_minim_iter=3 energy=-171.54845956870963 stress="0.000216722956791667 -9.336977356399706e-05 0.00010746171745896227 -9.336977356399706e-05 0.00018514750317787866 0.00012715759124860447 0.00010746171745896227 0.00012715759124860447 0.00022604944568234466" free_energy=-171.54845956870963 pbc="T T T"
P        0.87392727       3.57599116       1.79478346       0.00000000 NULL      -0.00740441       0.00049145      -0.01399756
P        3.38023908       1.45789074       1.79478346       0.00000000 NULL       0.00171905      -0.00721884      -0.01399756
P        0.26532097      -2.73340874       4.93964500       0.00000000 NULL       0.00545788      -0.01670951      -0.00984532
P       -2.73938671      -0.19411072       4.93964500       0.00000000 NULL      -0.01738559       0.00259566      -0.00984532
P        2.83507135       5.03652884       1.83535670       0.00000000 NULL       0.00920364      -0.00799879      -0.00153682
P        4.49337003       3.63508984       1.83535670       0.00000000 NULL      -0.00942128       0.00774125      -0.00153682
P        2.58536543       5.65931235      -0.48399049       0.00000000 NULL       0.00358638       0.00991725      -0.00067794
P        5.14906843       3.49271026      -0.48399049       0.00000000 NULL       0.00918052       0.00518961      -0.00067794
P        1.76297777       0.34836862       4.84735408       0.00000000 NULL       0.00451945       0.00695602       0.01264616
P        0.04956639       1.79638372       4.84735408       0.00000000 NULL       0.00610518       0.00561592       0.01264616
P       -3.91509972       0.39435794       6.74561667       0.00000000 NULL       0.00556461      -0.00062461      -0.00525434
P        1.04157018      -3.79455605       6.74561667       0.00000000 NULL      -0.00154360       0.00538259      -0.00525434
P        1.05637549       3.00188872       7.84482369       0.00000000 NULL      -0.00155448       0.00274589       0.00784748
P        2.78375371       1.54207014       7.84482369       0.00000000 NULL       0.00296663      -0.00107492       0.00784748
P        3.10321121       1.95278172       5.63424831       0.00000000 NULL      -0.01031763      -0.01138797      -0.00817427
P        1.40807829       3.38534958       5.63424831       0.00000000 NULL      -0.00950841      -0.01207184      -0.00817427
P        6.82393682       2.32323509       0.60986738       0.00000000 NULL       0.00623263      -0.00098175      -0.00075723
P        1.15302149       7.11576254       0.60986738       0.00000000 NULL      -0.00200713       0.00598172      -0.00075723
P        1.62765065       0.14470851       2.60680930       0.00000000 NULL       0.00019348      -0.00137104       0.00374598
P       -0.12868134       1.62899610       2.60680930       0.00000000 NULL      -0.00138411      -0.00003781       0.00374598
P        0.02912116       7.99377631      -1.10658123       0.00000000 NULL      -0.00163528      -0.00936077       0.00606789
P        7.87704038       1.36144871      -1.10658123       0.00000000 NULL      -0.00895712      -0.00317304       0.00606789
P        5.08426044       0.01067585       1.40154122       0.00000000 NULL      -0.00359118       0.01074997       0.00270306
P       -0.83712957       5.01488108       1.40154122       0.00000000 NULL       0.01119824      -0.00174866       0.00270306
P        5.04554005       3.66584027       4.06922526       0.00000000 NULL       0.00133806      -0.00093508       0.01071008
P        2.77333273       5.58609746       4.06922526       0.00000000 NULL      -0.00114507       0.00116344       0.01071008
P       -2.79387877       2.97876102       3.86834698       0.00000000 NULL       0.00901110      -0.01029670       0.01736471
P        3.40287024      -2.25815189       3.86834698       0.00000000 NULL      -0.01165493       0.00716830       0.01736471
P        4.92520156       0.23576763       3.59668639       0.00000000 NULL       0.00716805      -0.00556643      -0.00801131
P       -0.58866963       4.89557605       3.59668639       0.00000000 NULL      -0.00668359       0.00613968      -0.00801132
P       -1.99178515       2.81596485       5.89646041       0.00000000 NULL       0.00717446       0.00483830      -0.01283056
P        3.10862623      -1.49442600       5.89646041       0.00000000 NULL       0.00357444       0.00788070      -0.01283056
32
Lattice="9.098691162892225 -1.0523605139969452 -0.29500350576787354 -2.554579983815805 8.79589476036409 -0.29500350576786283 -3.341434992257943 -3.9538625775931138 8.433727226555751" Properties=species:S:1:pos:R:3:initial_magmoms:R:1:castep_labels:S:1:forces:R:3 n_minim_iter=4 energy=-171.54859031958074 stress="-7.022189182298412e-05 9.283300848792467e-05 0.00011032329475347126 9.283300848792467e-05 -3.882796961718466e-05 0.0001305436543293474 0.00011032329475347126 0.0001305436543293474 -9.466718259543537e-05" free_energy=-171.54859031958074 pbc="T T T"
P        0.87440992       3.57585813       1.79433636       0.00000000 NULL       0.00037062      -0.00552155      -0.01400495
P        3.38002745       1.45834446       1.79433636       0.00000000 NULL      -0.00550607      -0.00055513      -0.01400495
P        0.26505456      -2.73316660       4.93830192       0.00000000 NULL      -0.00188412      -0.00747029      -0.01033167
P       -2.73910355      -0.19433304       4.93830192       0.00000000 NULL      -0.00705161      -0.00310321      -0.01033167
P        2.83602755       5.03627630       1.83524322       0.00000000 NULL      -0.00597743       0.00502866       0.00040076
P        4.49296160       3.63599055       1.83524322       0.00000000 NULL       0.00595485      -0.00505539       0.00040076
P        2.58609247       5.65933991      -0.48362978       0.00000000 NULL       0.00490172       0.00824847       0.00158279
P        5.14897439       3.49343172      -0.48362978       0.00000000 NULL       0.00731581       0.00620831       0.00158279
P        1.76309460       0.34904988       4.84678535       0.00000000 NULL       0.00463105       0.00198375       0.00959276
P        0.05021865       1.79661250       4.84678535       0.00000000 NULL       0.00118389       0.00489697       0.00959276
P       -3.91385776       0.39395392       6.74404225       0.00000000 NULL       0.00480286      -0.00106211      -0.00106885
P        1.04096476      -3.79339883       6.74404225       0.00000000 NULL      -0.00184798       0.00455857      -0.00106885
P        1.05706786       3.00232248       7.84369482       0.00000000 NULL      -0.00292380       0.00373216       0.00703038
P        2.78406597       1.54282514       7.84369482       0.00000000 NULL       0.00416738      -0.00226065       0.00703038
P        3.10313575       1.95318580       5.63311336       0.00000000 NULL      -0.00341583      -0.00934220      -0.00600078
P        1.40848930       3.38534255       5.63311336       0.00000000 NULL      -0.00864196      -0.00492557      -0.00600078
P        6.82340052       2.32432511       0.61016208       0.00000000 NULL       0.00360079      -0.00159483       0.00553448
P        1.15418568       7.11541547       0.61016208       0.00000000 NULL      -0.00217284       0.00328450       0.00553448
P        1.62753642       0.14504983       2.60630014       0.00000000 NULL       0.00196746      -0.00340315       0.00343683
P       -0.12832575       1.62894037       2.60630014       0.00000000 NULL      -0.00368354       0.00137255       0.00343683
P        0.03052064       7.99266596      -1.10583053       0.00000000 NULL      -0.00628448      -0.00316999       0.00297912
P        7.87571225       1.36264349      -1.10583053       0.00000000 NULL      -0.00207786      -0.00672503       0.00297912
P        5.08336999       0.01198064       1.40156809       0.00000000 NULL       0.00171397       0.00620078      -0.00551314
P       -0.83569459       5.01422063       1.40156809       0.00000000 NULL       0.00582824       0.00272378      -0.00551314
P        5.04544951       3.66683648       4.06921118       0.00000000 NULL       0.00022122      -0.00291002       0.00744353
P        2.77433009       5.58617428       4.06921118       0.00000000 NULL      -0.00290618      -0.00026704       0.00744353
P       -2.79223965       2.97752606       3.86806324       0.00000000 NULL       0.00235623      -0.00353910       0.00274521
P        3.40137929      -2.25674161       3.86806324       0.00000000 NULL      -0.00388240       0.00173321       0.00274521
P        4.92472652       0.23685886       3.59595243       0.00000000 NULL       0.00276995      -0.00321875      -0.00224190
P       -0.58751447       4.89528959       3.59595243       0.00000000 NULL      -0.00363551       0.00219455      -0.00224190
P       -1.99045758       2.81571238       5.89491950       0.00000000 NULL       0.01351072      -0.00116899      -0.00158458
P        3.10815597      -1.49315910       5.89491950       0.00000000 NULL      -0.00340516       0.01312673      -0.00158458
32
Lattice="9.099423007986154 -1.0529109698830021 -0.29681447944833855 -2.5552447499081934 8.796524589679397 -0.29681447944832773 -3.3433133135849245 -3.9560851629256604 8.436403080192617" Properties=species:S:1:pos:R:3:initial_magmoms:R:1:castep_labels:S:1:forces:R:3 n_minim_iter=5 energy=-171.5486637286789 stress="-2.4035287866783256e-06 1.1154635463996347e-05 -6.067479615642212e-06 1.1154635463996347e-05 1.368694860122249e-06 -7.179530916643415e-06 -6.067479615642212e-06 -7.179530916643415e-06 2.491327640769732e-05" free_energy=-171.5486637286789 pbc="T T T"
P        0.87373691       3.57545344       1.79311892       0.00000000 NULL       0.00121477      -0.00774162      -0.01179206
P        3.37974062       1.45761339       1.79311892       0.00000000 NULL      -0.00783580      -0.00009293      -0.01179206
P        0.26418524      -2.73488811       4.93932126       0.00000000 NULL      -0.00091869      -0.00749421      -0.00690988
P       -2.74065603      -0.19547720       4.93932126       0.00000000 NULL      -0.00723616      -0.00215528      -0.00690987
P        2.83568780       5.03561905       1.83335586       0.00000000 NULL      -0.01179731       0.00870945       0.00241043
P        4.49237020       3.63554598       1.83335586       0.00000000 NULL       0.01055442      -0.01018014       0.00241043
P        2.58607773       5.65968379      -0.48587550       0.00000000 NULL       0.00378402       0.00772384       0.00304600
P        5.14931592       3.49347451      -0.48587550       0.00000000 NULL       0.00698486       0.00501879       0.00304600
P        1.76219412       0.34772817       4.84702800       0.00000000 NULL       0.00178468      -0.00261682       0.00310629
P        0.04906556       1.79550427       4.84702800       0.00000000 NULL      -0.00287774       0.00132341       0.00310629
P       -3.91554737       0.39244673       6.74548893       0.00000000 NULL       0.00262341      -0.00507652       0.00179975
P        1.03976035      -3.79531607       6.74548893       0.00000000 NULL      -0.00544284       0.00174033       0.00179975
P        1.05511405       3.00038248       7.84364977       0.00000000 NULL       0.00120174       0.00381588       0.00224284
P        2.78247887       1.54057524       7.84364977       0.00000000 NULL       0.00356212       0.00182111       0.00224284
P        3.10182181       1.95134375       5.63230264       0.00000000 NULL      -0.00223430      -0.00405663       0.00196808
P        1.40689209       3.38373989       5.63230264       0.00000000 NULL      -0.00362735      -0.00287935       0.00196808
P        6.82368893       2.32379319       0.60806758       0.00000000 NULL       0.00232989       0.00109836       0.00015394
P        1.15361311       7.11561116       0.60806758       0.00000000 NULL       0.00069455       0.00248040       0.00015394
P        1.62706760       0.14417459       2.60613744       0.00000000 NULL       0.00053415       0.00110428       0.00444443
P       -0.12911058       1.62833220       2.60613744       0.00000000 NULL       0.00099977       0.00071078       0.00444443
P        0.03015380       7.99319043      -1.10802360       0.00000000 NULL       0.00057389      -0.00293712      -0.00114552
P        7.87629053       1.36236922      -1.10802360       0.00000000 NULL      -0.00299169       0.00007618      -0.00114551
P        5.08335871       0.01144072       1.40058887       0.00000000 NULL       0.00112062       0.00525430      -0.00675019
P       -0.83622507       5.01411949       1.40058887       0.00000000 NULL       0.00499393       0.00198094      -0.00675019
P        5.04455721       3.66568454       4.06777610       0.00000000 NULL       0.00166739      -0.00864027       0.00304252
P        2.77334304       5.58510241       4.06777610       0.00000000 NULL      -0.00879733       0.00020354       0.00304252
P       -2.79324620       2.97643957       3.86860091       0.00000000 NULL      -0.00422661       0.00266327      -0.00164407
P        3.40047581      -2.25791521       3.86860091       0.00000000 NULL       0.00333066      -0.00372343      -0.00164407
P        4.92434751       0.23554338       3.59498943       0.00000000 NULL       0.00128712      -0.00435845       0.00013291
P       -0.58874835       4.89469657       3.59498943       0.00000000 NULL      -0.00451204       0.00054245       0.00013291
P       -1.99196238       2.81446553       5.89496982       0.00000000 NULL       0.01367729       0.00188527       0.00589450
P        3.10717744      -1.49485072       5.89496982       0.00000000 NULL      -0.00042142       0.01380018       0.00589450
32
Lattice="9.100799795093417 -1.0532634427955785 -0.29675302462145126 -2.5558218297552187 8.797823342443772 -0.29675302462144043 -3.3437385420845245 -3.956588328498354 8.434224849365517" Properties=species:S:1:pos:R:3:initial_magmoms:R:1:castep_labels:S:1:forces:R:3 n_minim_iter=6 energy=-171.54869885107786 stress="0.00010976072108206985 -1.819021954182779e-05 -9.288769321684159e-06 -1.819021954182779e-05 0.0001036092212424408 -1.0991259157517458e-05 -9.288769321684159e-06 -1.0991259157517458e-05 -0.00018267292938371158" free_energy=-171.54869885107786 pbc="T T T"
P        0.87377049       3.57574354       1.79226032       0.00000000 NULL       0.00123739      -0.00582931      -0.01146650
P        3.38002107       1.45769487       1.79226032       0.00000000 NULL      -0.00595402       0.00024820      -0.01146650
P        0.26428449      -2.73557234       4.93781400       0.00000000 NULL      -0.00245934      -0.00569544      -0.00763696
P       -2.74134723      -0.19549341       4.93781400       0.00000000 NULL      -0.00520570      -0.00337447      -0.00763696
P        2.83580632       5.03638208       1.83288406       0.00000000 NULL      -0.00548397       0.00021320       0.00119252
P        4.49310279       3.63579005       1.83288406       0.00000000 NULL       0.00112451      -0.00537167       0.00119251
P        2.58644771       5.66065687      -0.48573404       0.00000000 NULL       0.00493757       0.00900341       0.00324869
P        5.15021370       3.49400155      -0.48573404       0.00000000 NULL       0.00805419       0.00636953       0.00324869
P        1.76251856       0.34769106       4.84593790       0.00000000 NULL      -0.00065558      -0.00178412       0.00502083
P        0.04897488       1.79581798       4.84593790       0.00000000 NULL      -0.00164985      -0.00094386       0.00502083
P       -3.91603591       0.39247295       6.74377407       0.00000000 NULL       0.00125521      -0.00489621       0.00379815
P        1.03986766      -3.79579340       6.74377407       0.00000000 NULL      -0.00503695       0.00042134       0.00379815
P        1.05520138       3.00089707       7.84174012       0.00000000 NULL       0.00295451       0.00011512       0.00518167
P        2.78297169       1.54074714       7.84174012       0.00000000 NULL      -0.00037907       0.00293235       0.00518167
P        3.10212865       1.95135528       5.63080955       0.00000000 NULL      -0.00365604      -0.00047892      -0.00056758
P        1.40685230       3.38404435       5.63080955       0.00000000 NULL       0.00013732      -0.00368471      -0.00056758
P        6.82475247       2.32397274       0.60790016       0.00000000 NULL       0.00150272       0.00378182       0.00396748
P        1.15361283       7.11668975       0.60790016       0.00000000 NULL       0.00347836       0.00211220       0.00396748
P        1.62731957       0.14414261       2.60555254       0.00000000 NULL       0.00002582       0.00273548       0.00139584
P       -0.12918412       1.62857531       2.60555254       0.00000000 NULL       0.00269288       0.00048152       0.00139584
P        0.02994605       7.99419690      -1.10775066       0.00000000 NULL       0.00167558      -0.00295082      -0.00359987
P        7.87731756       1.36233217      -1.10775066       0.00000000 NULL      -0.00318888       0.00116016      -0.00359987
P        5.08412963       0.01152256       1.40006973       0.00000000 NULL      -0.00259727       0.00425558      -0.01028395
P       -0.83627290       5.01489327       1.40006973       0.00000000 NULL       0.00462904      -0.00185142      -0.01028395
P        5.04522551       3.66591305       4.06688834       0.00000000 NULL       0.00363706      -0.00984270       0.00364606
P        2.77345694       5.58579946       4.06688834       0.00000000 NULL      -0.01031132       0.00194516       0.00364606
P       -2.79372987       2.97683298       3.86768302       0.00000000 NULL      -0.00837319       0.00247188      -0.00458703
P        3.40094436      -2.25832652       3.86768302       0.00000000 NULL       0.00383327      -0.00784389      -0.00458703
P        4.92514619       0.23532807       3.59398627       0.00000000 NULL       0.00203787      -0.00144760       0.00350900
P       -0.58909380       4.89544816       3.59398627       0.00000000 NULL      -0.00176710       0.00176800       0.00350900
P       -1.99195084       2.81497170       5.89347091       0.00000000 NULL       0.01343833       0.00233985       0.00718165
P        3.10767461      -1.49475496       5.89347091       0.00000000 NULL       0.00006664       0.01364035       0.00718165
32
Lattice="9.100010089276063 -1.0522235680284877 -0.296298879566911 -2.5546648480509417 8.797218058919162 -0.29629887956690015 -3.3434080670462833 -3.956197283067407 8.435023821088171" Properties=species:S:1:pos:R:3:initial_magmoms:R:1:castep_labels:S:1:forces:R:3 n_minim_iter=7 energy=-171.54884506439416 stress="-1.2029422583330507e-06 1.1391338635263056e-05 1.6127856763556316e-06 1.1391338635263056e-05 2.649329436744707e-06 1.9083765681590757e-06 1.6127856763556316e-06 1.9083765681590757e-06 1.2730063863601226e-05" free_energy=-171.54884506439416 pbc="T T T"
P        0.87418198       3.57487627       1.79089321       0.00000000 NULL       0.00934335      -0.00286609      -0.00868437
P        3.37909733       1.45795601       1.79089321       0.00000000 NULL      -0.00438372       0.00873474      -0.00868437
P        0.26428542      -2.73648947       4.93720421       0.00000000 NULL      -0.00529876       0.00737533      -0.00120570
P       -2.74225168      -0.19564540       4.93720421       0.00000000 NULL       0.00815553      -0.00399498      -0.00120570
P        2.83532928       5.03725855       1.83385250       0.00000000 NULL       0.01050436      -0.01715754       0.00566015
P        4.49404652       3.63546582       1.83385250       0.00000000 NULL      -0.01866870       0.00749680       0.00566015
P        2.58746327       5.66194025      -0.48501632       0.00000000 NULL       0.00140734       0.00317078       0.00268167
P        5.15130980       3.49521687      -0.48501632       0.00000000 NULL       0.00289177       0.00191628       0.00268167
P        1.76311406       0.34805234       4.84772689       0.00000000 NULL      -0.00374027      -0.00407365      -0.00420509
P        0.04923182       1.79646537       4.84772689       0.00000000 NULL      -0.00339305      -0.00436709      -0.00420509
P       -3.91470860       0.39198547       6.74480401       0.00000000 NULL       0.00297032      -0.00079783       0.00331761
P        1.03916571      -3.79456594       6.74480401       0.00000000 NULL      -0.00128188       0.00279573       0.00331761