10
Lattice="6.599388143828784 2.418599117292288e-18 0.7615995911773967 -3.5548973029194454e-18 5.007308169473717 -4.093120893091353e-18 0.547896218826196 -4.57605920151499e-17 5.249920286967032" Properties=species:S:1:pos:R:3:initial_magmoms:R:1:castep_labels:S:1:forces:R:3 n_minim_iter=1 energy=-54.544964728973135 stress="-0.004644846737410429 3.561743836965915e-13 -0.0017518396686617924 3.561743836965915e-13 -0.004079162064480045 6.002305287939677e-13 -0.0017518396686617924 6.002305287939677e-13 -0.0007666363905878922" free_energy=-54.544964728973135 pbc="T T T"
P        3.59170430       3.88246511       2.03684192       0.00000000 NULL       0.04397528       0.15528122       0.06581956
P        3.59170430       1.12484306       2.03684192       0.00000000 NULL       0.04397528      -0.15528122       0.06581956
P        2.88910628       1.20945610       5.24045158       0.00000000 NULL      -0.09298627      -0.09913526      -0.02037283
P        2.88910628       3.79785207       5.24045158       0.00000000 NULL      -0.09298627       0.09913526      -0.02037283
P        1.59428382       3.60668392       3.16330814       0.00000000 NULL       0.04994549       0.11125576       0.06204463
P        1.59428382       1.40062425       3.16330814       0.00000000 NULL       0.04994549      -0.11125576       0.06204463
P        4.88115955       1.40954585       4.00993529       0.00000000 NULL       0.04739040      -0.07442164      -0.03017143
P        4.88115955       3.59776232       4.00993529       0.00000000 NULL       0.04739040       0.07442164      -0.03017143
P        0.30878102       3.90435088       1.22698034       0.00000000 NULL      -0.04832490       0.04839137      -0.07731993
P        0.30878102       1.10295729       1.22698034       0.00000000 NULL      -0.04832490      -0.04839137      -0.07731993
10
Lattice="6.62879388617065 2.435114640416704e-18 0.7727647101508381 -3.571555853084083e-18 5.026074697347723 -4.0967368376971046e-18 0.558690864679213 -4.5926309277511824e-17 5.254501725595866" Properties=species:S:1:pos:R:3:initial_magmoms:R:1:castep_labels:S:1:forces:R:3 n_minim_iter=2 energy=-54.548947479990495 stress="-0.00041842839993125997 -3.3097788938750154e-12 -0.0006040616554292661 -3.3097788938750154e-12 0.0017391973916449169 -4.485907323931278e-12 -0.0006040616554292661 -4.485907323931278e-12 0.001265480563523273" free_energy=-54.548947479990495 pbc="T T T"
P        3.61055801       3.89784987       2.04441440       0.00000000 NULL      -0.00118643       0.19049937       0.06460546
P        3.61055801       1.12822482       2.04441440       0.00000000 NULL      -0.00118643      -0.19049937       0.06460546
P        2.90938273       1.21345652       5.24868705       0.00000000 NULL      -0.08512428      -0.11462127      -0.01696992
P        2.90938273       3.81261818       5.24868705       0.00000000 NULL      -0.08512428       0.11462127      -0.01696992
P        1.60645487       3.62079866       3.16843725       0.00000000 NULL       0.08615671       0.04326053       0.04856451
P        1.60645487       1.40527603       3.16843725       0.00000000 NULL       0.08615671      -0.04326053       0.04856451
P        4.90871444       1.41442890       4.02046076       0.00000000 NULL       0.01378772       0.00318405      -0.04242491
P        4.90871444       3.61164580       4.02046076       0.00000000 NULL       0.01378772      -0.00318405      -0.04242491
P        0.31181525       3.91924360       1.22792774       0.00000000 NULL      -0.01363372       0.10677618      -0.05377514
P        0.31181525       1.10683110       1.22792774       0.00000000 NULL      -0.01363372      -0.10677618      -0.05377514
10
Lattice="6.650521885558961 2.4510807993320393e-18 0.7849070115832697 -3.5760980926691414e-18 5.0164608436006155 -4.08796382897638e-18 0.5714682669570934 -4.583002853280338e-17 5.243114857911159" Properties=species:S:1:pos:R:3:initial_magmoms:R:1:castep_labels:S:1:forces:R:3 n_minim_iter=3 energy=-54.55129893975487 stress="0.0014803556726456389 -3.661967950144984e-12 0.0010350293581129822 -3.661967950144984e-12 -0.0016418064129068394 -2.451663072233883e-12 0.0010350293581129822 -2.451663072233883e-12 0.0005068997869689669" free_energy=-54.55129893975487 pbc="T T T"
P        3.62592502       3.89321204       2.04813062       0.00000000 NULL      -0.01663960       0.14146463       0.02962746
P        3.62592502       1.12324881       2.04813062       0.00000000 NULL      -0.01663960      -0.14146463       0.02962746
P        2.92794376       1.20942470       5.24200182       0.00000000 NULL      -0.07503882      -0.10626514      -0.01790146
P        2.92794376       3.80703615       5.24200182       0.00000000 NULL      -0.07503882       0.10626514      -0.01790146
P        1.61924038       3.61471521       3.16503043       0.00000000 NULL       0.09006603       0.04532880       0.07082966
P        1.61924038       1.40174564       3.16503043       0.00000000 NULL       0.09006603      -0.04532880       0.07082966
P        4.93237663       1.41156529       4.02059533       0.00000000 NULL      -0.00365798      -0.02912066      -0.05325145
P        4.93237663       3.60489555       4.02059533       0.00000000 NULL      -0.00365798       0.02912066      -0.05325145
P        0.31504383       3.91322341       1.22476836       0.00000000 NULL       0.00527036       0.04235865      -0.02930421
P        0.31504383       1.10323743       1.22476836       0.00000000 NULL       0.00527036      -0.04235865      -0.02930421
10
Lattice="6.648606029854366 2.428480137827796e-19 0.7801363185117647 -3.5791715589860876e-18 5.027851242745988 -1.9012961411459286e-17 0.5700648493654011 -6.087245641275219e-17 5.221011706576913" Properties=species:S:1:pos:R:3:initial_magmoms:R:1:castep_labels:S:1:forces:R:3 n_minim_iter=4 energy=-54.554093420899754 stress="7.468504399732405e-05 -3.160157472050612e-12 0.00015808624998388815 -3.160157472050612e-12 0.001097303553683535 -3.5508165620827403e-12 0.00015808624998388815 -3.5508165620827403e-12 -0.0038924070411773645" free_energy=-54.554093420899754 pbc="T T T"
P        3.62436761       3.90766588       2.04037570       0.00000000 NULL      -0.01153507       0.10067855       0.01108234
P        3.62436761       1.12018537       2.04037570       0.00000000 NULL      -0.01153507      -0.10067855       0.01108234
P        2.92313593       1.20844139       5.21876502       0.00000000 NULL      -0.05976795      -0.10724123      -0.02511118
P        2.92313593       3.81940985       5.21876502       0.00000000 NULL      -0.05976795       0.10724123      -0.02511119
P        1.62097276       3.62465968       3.15344790       0.00000000 NULL       0.06882848      -0.03170019       0.07149543
P        1.62097276       1.40319156       3.15344790       0.00000000 NULL       0.06882848       0.03170019       0.07149543
P        4.93043266       1.41411132       4.00108945       0.00000000 NULL       0.00899438       0.03512661      -0.03460906
P        4.93043266       3.61373992       4.00108945       0.00000000 NULL       0.00899438      -0.03512661      -0.03460906
P        0.31437572       3.92454531       1.21805325       0.00000000 NULL      -0.00651985       0.03697455      -0.02285753
P        0.31437572       1.10330593       1.21805325       0.00000000 NULL      -0.00651985      -0.03697455      -0.02285753
10
Lattice="6.641859718456492 2.3498526294192806e-19 0.7764670826434618 -3.5626167253144936e-18 5.032740511626414 -1.9086488469123807e-17 0.5642512613267952 -6.093375688378987e-17 5.241241036824684" Properties=species:S:1:pos:R:3:initial_magmoms:R:1:castep_labels:S:1:forces:R:3 n_minim_iter=5 energy=-54.55886087546494 stress="-0.00027819151959260533 -1.1259050855102986e-12 -6.048977760571742e-05 -1.1259050855102986e-12 -0.00038569887185454854 2.1755596195338793e-12 -6.048977760571742e-05 2.1755596195338793e-12 -8.185824624530559e-05" free_energy=-54.55886087546494 pbc="T T T"
P        3.61863033       3.92265388       2.04776316       0.00000000 NULL      -0.00199209      -0.05781697       0.02011614
P        3.61863033       1.11008663       2.04776316       0.00000000 NULL      -0.00199209       0.05781697       0.02011614
P        2.90948842       1.20149932       5.23512840       0.00000000 NULL      -0.02271845      -0.09081376      -0.02586231
P        2.90948842       3.83124119       5.23512840       0.00000000 NULL      -0.02271845       0.09081376      -0.02586231
P        1.62241290       3.63060270       3.16903031       0.00000000 NULL       0.01889979      -0.09326308       0.00690280
P        1.62241290       1.40213781       3.16903031       0.00000000 NULL       0.01889979       0.09326308       0.00690280
P        4.92259883       1.41494001       4.00878660       0.00000000 NULL      -0.00177996       0.08861019      -0.00801034
P        4.92259883       3.61780051       4.00878660       0.00000000 NULL      -0.00177997      -0.08861019      -0.00801034
P        0.31226498       3.93308502       1.21965379       0.00000000 NULL       0.00759071      -0.03161688       0.00685371
P        0.31226498       1.09965549       1.21965379       0.00000000 NULL       0.00759071       0.03161688       0.00685371
10
Lattice="6.652962890221691 2.3277818680287146e-19 0.774440936014752 -3.566479454375713e-18 5.053010080251995 -1.9073804564967055e-17 0.5639751013082074 -6.118020575698944e-17 5.237654854081851" Properties=species:S:1:pos:R:3:initial_magmoms:R:1:castep_labels:S:1:forces:R:3 n_minim_iter=6 energy=-54.56424095063981 stress="0.00020063765280735075 -3.132066465021029e-12 -0.00046053551849611896 -3.132066465021029e-12 -0.00047498897426418666 -5.719168897619046e-12 -0.00046053551849611896 -5.719168897619046e-12 -0.00044490131571953503" free_energy=-54.56424095063981 pbc="T T T"
P        3.62337829       3.94165991       2.05152130       0.00000000 NULL       0.00795696      -0.03224952      -0.00590485
P        3.62337829       1.11135017       2.05152130       0.00000000 NULL       0.00795696       0.03224952      -0.00590485
P        2.90427953       1.18524164       5.22599219       0.00000000 NULL       0.02244351      -0.08873943       0.00246630
P        2.90427953       3.86776844       5.22599219       0.00000000 NULL       0.02244351       0.08873943       0.00246630
P        1.63337734       3.63410968       3.17189318       0.00000000 NULL      -0.01536717       0.00274331      -0.05322369
P        1.63337734       1.41890040       3.17189318       0.00000000 NULL      -0.01536717      -0.00274331      -0.05322369
P        4.93018758       1.43316446       4.00064315       0.00000000 NULL      -0.02061905      -0.03892799       0.02339790
P        4.93018758       3.61984562       4.00064315       0.00000000 NULL      -0.02061905       0.03892799       0.02339790
P        0.31322308       3.94964868       1.21691733       0.00000000 NULL       0.00558575       0.02782848       0.03326435
P        0.31322308       1.10336140       1.21691733       0.00000000 NULL       0.00558575      -0.02782848       0.03326435
10
Lattice="6.647230781419997 2.3155085743840307e-19 0.7812052109005888 -3.5831853147158655e-18 5.05646849480972 -1.908079522877887e-17 0.5686958584254246 -6.122178105663678e-17 5.239253062216776" Properties=species:S:1:pos:R:3:initial_magmoms:R:1:castep_labels:S:1:forces:R:3 n_minim_iter=7 energy=-54.564659988332686 stress="-0.0011800570279806041 6.43520225714517e-12 0.0008181283153148579 6.43520225714517e-12 -9.031213548030268e-05 6.042990549854128e-12 0.0008181283153148579 6.042990549854128e-12 -0.00022823197761230685" free_energy=-54.564659988332686 pbc="T T T"
P        3.62190411       3.94436779       2.05597015       0.00000000 NULL       0.02472621      -0.02411066      -0.01932217
P        3.62190411       1.11210071       2.05597015       0.00000000 NULL       0.02472621       0.02411066      -0.01932217
P        2.90625516       1.18301353       5.22955388       0.00000000 NULL       0.02596707      -0.08513223       0.00369710
P        2.90625516       3.87345497       5.22955388       0.00000000 NULL       0.02596707       0.08513223       0.00369710
P        1.63555453       3.63581338       3.17383127       0.00000000 NULL      -0.03267978       0.00599291      -0.04268082
P        1.63555453       1.42065511       3.17383127       0.00000000 NULL      -0.03267978      -0.00599291      -0.04268082
P        4.92908472       1.43456805       4.00627095       0.00000000 NULL      -0.00842031      -0.03308349       0.00963089
P        4.92908472       3.62190044       4.00627095       0.00000000 NULL      -0.00842031       0.03308349       0.00963089
P        0.31429937       3.95296573       1.21776474       0.00000000 NULL      -0.00959319       0.02541547       0.04867499
P        0.31429937       1.10350277       1.21776474       0.00000000 NULL      -0.00959319      -0.02541547       0.04867499
10
Lattice="6.651998823746609 2.309726564100411e-19 0.7785187545614408 -3.5778921791558044e-18 5.06394270003932 -1.9087180319432283e-17 0.5667703148395993 -6.131364694593145e-17 5.240849859604605" Properties=species:S:1:pos:R:3:initial_magmoms:R:1:castep_labels:S:1:forces:R:3 n_minim_iter=8 energy=-54.5671812927844 stress="-0.0006373877283006118 6.496083065528921e-12 0.0003307886989643242 6.496083065528921e-12 -0.0007953321581463536 6.799820525638106e-12 0.0003307886989643242 6.799820525638106e-12 -0.0001392342205620445" free_energy=-54.5671812927844 pbc="T T T"
P        3.62461758       3.94983985       2.05650394       0.00000000 NULL       0.01795240       0.00138175      -0.02074418
P        3.62461758       1.11410285       2.05650394       0.00000000 NULL       0.01795240      -0.00138175      -0.02074418
P        2.90504850       1.16730756       5.22865566       0.00000000 NULL       0.03316904      -0.02142989       0.00886588
P        2.90504850       3.89663514       5.22865566       0.00000000 NULL       0.03316904       0.02142989       0.00886588
P        1.63700988       3.63806420       3.17105047       0.00000000 NULL      -0.02634697       0.02335935      -0.04349743
P        1.63700988       1.42587850       3.17105047       0.00000000 NULL      -0.02634697      -0.02335935      -0.04349743
P        4.92921971       1.43715035       4.00554272       0.00000000 NULL      -0.01037507       0.00043937       0.02135945
P        4.92921971       3.62679235       4.00554272       0.00000000 NULL      -0.01037507      -0.00043937       0.02135945
P        0.31445457       3.96310493       1.22120191       0.00000000 NULL      -0.01439941      -0.03009858       0.03401628
P        0.31445457       1.10083777       1.22120191       0.00000000 NULL      -0.01439941       0.03009858       0.03401628
10
Lattice="6.652239458757509 2.2937176235755883e-19 0.7785222075745585 -3.578879215253519e-18 5.067718197334651 -1.9091514238413022e-17 0.5666509150365396 -6.135939787166026e-17 5.242081394799446" Properties=species:S:1:pos:R:3:initial_magmoms:R:1:castep_labels:S:1:forces:R:3 n_minim_iter=9 energy=-54.56780234824658 stress="-0.0005842968800747196 2.292865281020931e-12 0.0003822443633239412 2.292865281020931e-12 -0.0009828602549963523 3.458520662438875e-12 0.0003822443633239412 3.458520662438875e-12 -4.239099502951985e-05" free_energy=-54.56780234824658 pbc="T T T"
P        3.62551999       3.95588007       2.05653959       0.00000000 NULL       0.01618717      -0.03694420      -0.01711273
P        3.62551999       1.11183812       2.05653959       0.00000000 NULL       0.01618717       0.03694420      -0.01711273
P        2.90639519       1.16244515       5.22990958       0.00000000 NULL       0.02012574       0.00195566       0.01121765
P        2.90639519       3.90527305       5.22990958       0.00000000 NULL       0.02012574      -0.00195566       0.01121765
P        1.63715780       3.64129525       3.16830371       0.00000000 NULL      -0.01958820      -0.00415007      -0.03062428
P        1.63715780       1.42642295       3.16830371       0.00000000 NULL      -0.01958820       0.00415007      -0.03062428
P        4.92790032       1.44129148       4.00781154       0.00000000 NULL      -0.00665530      -0.04381970       0.01528367
P        4.92790032       3.62642672       4.00781154       0.00000000 NULL      -0.00665530       0.04381970       0.01528367
P        0.31348047       3.96438898       1.22375544       0.00000000 NULL      -0.01006941       0.01195595       0.02123569
P        0.31348047       1.10332922       1.22375544       0.00000000 NULL      -0.01006941      -0.01195595       0.02123569
10
Lattice="6.653290345061169 2.268705592406475e-19 0.7760202760710516 -3.573716813051452e-18 5.073741477099046 -1.9096576909580705e-17 0.5646059979212943 -6.143380862379124e-17 5.243310436216548" Properties=species:S:1:pos:R:3:initial_magmoms:R:1:castep_labels:S:1:forces:R:3 n_minim_iter=10 energy=-54.56822132958152 stress="-0.0003542083306310039 -5.478430203557191e-12 0.00029798167008946786 -5.478430203557191e-12 -0.0006851860864360864 -2.59347782955837e-12 0.00029798167008946786 -2.59347782955837e-12 -4.982590949340479e-06" free_energy=-54.56822132958152 pbc="T T T"
P        3.62693763       3.96239473       2.05479598       0.00000000 NULL       0.00820709      -0.04636932      -0.00931834
P        3.62693763       1.11134674       2.05479598       0.00000000 NULL       0.00820709       0.04636932      -0.00931834
P        2.90612406       1.16315486       5.23171786       0.00000000 NULL       0.00594395      -0.00829826       0.00337223
P        2.90612406       3.91058662       5.23171786       0.00000000 NULL       0.00594395       0.00829826       0.00337223
P        1.63785910       3.64186884       3.16353377       0.00000000 NULL      -0.01704998       0.03650002      -0.01685916
P        1.63785910       1.43187264       3.16353377       0.00000000 NULL      -0.01704998      -0.03650002      -0.01685916
P        4.92533665       1.44323232       4.00973686       0.00000000 NULL      -0.00330742      -0.01990267       0.01231714
P        4.92533665       3.63050916       4.00973686       0.00000000 NULL      -0.00330742       0.01990267       0.01231714
P        0.31049318       3.97128602       1.22542515       0.00000000 NULL       0.00620635      -0.00037788       0.01048814
P        0.31049318       1.10245546       1.22542515       0.00000000 NULL       0.00620635       0.00037788       0.01048814
10
Lattice="6.653758572497737 2.260395596063786e-19 0.7726864264317727 -3.564004723023585e-18 5.075106681842517 -1.9105091846468368e-17 0.5617553484334296 -6.145233400578886e-17 5.245367472010279" Properties=species:S:1:pos:R:3:initial_magmoms:R:1:castep_labels:S:1:forces:R:3 n_minim_iter=11 energy=-54.568473863414766 stress="-0.00019017653128469207 3.9047302639371324e-12 0.00016805938776575787 3.9047302639371324e-12 -0.0004239330265886738 -6.312872642328332e-14 0.00016805938776575787 -6.312872642328332e-14 2.951622535563231e-05" free_energy=-54.568473863414766 pbc="T T T"
P        3.62722325       3.96148796       2.05342672       0.00000000 NULL       0.00906088      -0.01307624      -0.00515676
P        3.62722325       1.11361873       2.05342672       0.00000000 NULL       0.00906088       0.01307624      -0.00515676
P        2.90316605       1.16312770       5.23338279       0.00000000 NULL       0.00519757      -0.00954977      -0.00328291
P        2.90316605       3.91197898       5.23338279       0.00000000 NULL       0.00519757       0.00954977      -0.00328291
P        1.63765227       3.64448215       3.16062498       0.00000000 NULL      -0.02000905       0.00031379      -0.00493668
P        1.63765227       1.43062453       3.16062498       0.00000000 NULL      -0.02000905      -0.00031379      -0.00493668
P        4.92245625       1.44470452       4.01158608       0.00000000 NULL      -0.00242314      -0.03544220       0.01033510
P        4.92245625       3.63040216       4.01158608       0.00000000 NULL      -0.00242314       0.03544220       0.01033510
P        0.30931281       3.97396344       1.22585336       0.00000000 NULL       0.00817373      -0.02396851       0.00304126
P        0.30931281       1.10114324       1.22585336       0.00000000 NULL       0.00817373       0.02396851       0.00304126
10
Lattice="6.654381240606352 -3.523437166741009e-18 0.7693758332706808 -6.560595905028698e-18 5.071940455219283 -1.7939920437997506e-17 0.559082995360795 -6.052360304011948e-17 5.246150957840087" Properties=species:S:1:pos:R:3:initial_magmoms:R:1:castep_labels:S:1:forces:R:3 n_minim_iter=12 energy=-54.56871355169362 stress="-3.583455255415393e-05 4.14028072153763e-13 2.7187588190994177e-05 4.14028072153763e-13 -0.00018911936213943562 -6.554951405396223e-12 2.7187588190994177e-05 -6.554951405396223e-12 2.693944449836173e-05" free_energy=-54.56871355169362 pbc="T T T"
P        3.62831715       3.95752939       2.05190359       0.00000000 NULL       0.00171910      -0.00251294       0.00166754
P        3.62831715       1.11441106       2.05190359       0.00000000 NULL       0.00171910       0.00251294       0.00166754
P        2.89988282       1.16131859       5.23286365       0.00000000 NULL       0.00769793       0.00219703      -0.00372368
P        2.89988282       3.91062186       5.23286365       0.00000000 NULL       0.00769793      -0.00219703      -0.00372368
P        1.63595245       3.64273675       3.15789628       0.00000000 NULL      -0.00955575       0.00096117       0.00012875
P        1.63595245       1.42920371       3.15789628       0.00000000 NULL      -0.00955575      -0.00096117       0.00012875
P        4.91978483       1.44130142       4.01358628       0.00000000 NULL      -0.00124010       0.00093973       0.00219379
P        4.91978483       3.63063903       4.01358628       0.00000000 NULL      -0.00124010      -0.00093973       0.00219379
P        0.30969514       3.96920624       1.22485633       0.00000000 NULL       0.00137881       0.00033778      -0.00026640
P        0.30969514       1.10273422       1.22485633       0.00000000 NULL       0.00137881      -0.00033778      -0.00026640
