14
Lattice="5.23657 0.0 0.0 0.0 5.352449999999999 -3.7730275137137053e-16 0.0 -2.418564458345965 11.05545104954681" Properties=species:S:1:pos:R:3:initial_magmoms:R:1:castep_labels:S:1 n_minim_iter=1 pbc="T T T"
P        2.45399128       2.45977197       9.36238058       0.00000000 NULL
P        2.78257872      -0.21645303       9.36238058       0.00000000 NULL
P        3.84080154       1.37419760       1.55388566       0.00000000 NULL
P        1.39576846       4.05042260       1.55388566       0.00000000 NULL
P        2.60781762       2.78977623       0.43618066       0.00000000 NULL
P        2.62875238       0.11355123       0.43618066       0.00000000 NULL
P        0.85460718       2.23190353      10.60897776       0.00000000 NULL
P        4.38196282      -0.44432147      10.60897776       0.00000000 NULL
P        4.62726994       2.11124540       3.48017086       0.00000000 NULL
P        0.60930006      -0.56497960       3.48017086       0.00000000 NULL
P        4.38192931       4.87240849       2.07913456       0.00000000 NULL
P        0.85464069       2.19618349       2.07913456       0.00000000 NULL
P        0.55382069       1.86808514       5.12997251       0.00000000 NULL
P        4.68274931      -0.80813986       5.12997251       0.00000000 NULL
14
Lattice="5.252814084114014 0.0 0.0 0.0 5.365137480371382 -0.0009329102768807336 0.0 -2.4262243585770484 11.096740709543697" Properties=species:S:1:pos:R:3:initial_magmoms:R:1:castep_labels:S:1 n_minim_iter=2 pbc="T T T"
P        2.46179802       2.46402165       9.39636576       0.00000000 NULL
P        2.79101606      -0.21854709       9.39683222       0.00000000 NULL
P        3.85272456       1.37746170       1.55954207       0.00000000 NULL
P        1.40008952       4.06003044       1.55907561       0.00000000 NULL
P        2.61598570       2.79619051       0.43716978       0.00000000 NULL
P        2.63682838       0.11362177       0.43763624       0.00000000 NULL
P        0.85683114       2.23536762      10.64772747       0.00000000 NULL
P        4.39598294      -0.44720112      10.64819392       0.00000000 NULL
P        4.64137932       2.11581682       3.49292272       0.00000000 NULL
P        0.61143476      -0.56675192       3.49338917       0.00000000 NULL
P        4.39536914       4.88325073       2.08588532       0.00000000 NULL
P        0.85744494       2.20068199       2.08635177       0.00000000 NULL
P        0.55556279       1.87156214       5.14870131       0.00000000 NULL
P        4.69725129      -0.81100660       5.14916777       0.00000000 NULL
14
Lattice="5.484064081231974 0.0 0.0 0.0 5.541116331960949 -0.01455335784760017 0.0 -2.533875319775396 11.682321736964804" Properties=species:S:1:pos:R:3:initial_magmoms:R:1:castep_labels:S:1 n_minim_iter=3 pbc="T T T"
P        2.57301581       2.52186025       9.87799707       0.00000000 NULL
P        2.91104827      -0.24869791       9.88527374       0.00000000 NULL
P        4.02250888       1.42280570       1.63971726       0.00000000 NULL
P        1.46155520       4.19336387       1.63244058       0.00000000 NULL
P        2.73239109       2.88488959       0.45079142       0.00000000 NULL
P        2.75167299       0.11433142       0.45806810       0.00000000 NULL
P        0.88824849       2.28212518      11.19689472       0.00000000 NULL
P        4.59581559      -0.48843299      11.20417140       0.00000000 NULL
P        4.84220911       2.17897696       3.67385198       0.00000000 NULL
P        0.64185497      -0.59158121       3.68112866       0.00000000 NULL
P        4.58666932       5.03302000       2.18123240       0.00000000 NULL
P        0.89739476       2.26246184       2.18850908       0.00000000 NULL
P        0.58020403       1.91909367       5.41402306       0.00000000 NULL
P        4.90386005      -0.85146450       5.42129974       0.00000000 NULL
14
Lattice="5.54134667181446 0.0 0.0 0.0 5.530694013997405 -0.026179498124761485 0.0 -2.5531795966820647 11.775179190260573" Properties=species:S:1:pos:R:3:initial_magmoms:R:1:castep_labels:S:1 n_minim_iter=4 pbc="T T T"
P        2.60074754       2.49760656       9.94732862       0.00000000 NULL
P        2.94059913      -0.26774044       9.96041837       0.00000000 NULL
P        4.06520423       1.41987068       1.65007319       0.00000000 NULL
P        1.47614244       4.18521769       1.63698344       0.00000000 NULL
P        2.76251191       2.87595206       0.44549570       0.00000000 NULL
P        2.77883476       0.11060505       0.45858545       0.00000000 NULL
P        0.89452356       2.25531361      11.27521024       0.00000000 NULL
P        4.64682311      -0.51003340      11.28829999       0.00000000 NULL
P        4.89237605       2.16981817       3.70020878       0.00000000 NULL
P        0.64897062      -0.59552883       3.71329853       0.00000000 NULL
P        4.63432129       5.01534540       2.18749124       0.00000000 NULL
P        0.90702539       2.24999839       2.20058098       0.00000000 NULL
P        0.58415346       1.90346384       5.44896377       0.00000000 NULL
P        4.95719321      -0.86188317       5.46205352       0.00000000 NULL
14
Lattice="5.58949227331309 0.0 0.0 0.0 5.489490837004256 -0.04298909547971313 0.0 -2.569281595070401 11.817968368331881" Properties=species:S:1:pos:R:3:initial_magmoms:R:1:castep_labels:S:1 n_minim_iter=5 pbc="T T T"
P        2.62403141       2.45034932       9.97063681       0.00000000 NULL
P        2.96546087      -0.29439610       9.99213136       0.00000000 NULL
P        4.10148207       1.40841872       1.65176621       0.00000000 NULL
P        1.48801020       4.15316414       1.63027166       0.00000000 NULL
P        2.78860978       2.84971997       0.43445038       0.00000000 NULL
P        2.80088249       0.10497455       0.45594493       0.00000000 NULL
P        0.89898101       2.20562933      11.30078052       0.00000000 NULL
P        4.69051126      -0.53911608      11.32227506       0.00000000 NULL
P        4.93496017       2.14600316       3.70875387       0.00000000 NULL
P        0.65453211      -0.59874226       3.73024842       0.00000000 NULL
P        4.67459198       4.96666225       2.17977096       0.00000000 NULL
P        0.91490029       2.22191683       2.20126550       0.00000000 NULL
P        0.58605281       1.87173512       5.45694120       0.00000000 NULL
P        5.00343946      -0.87301030       5.47843575       0.00000000 NULL
14
Lattice="5.690946227181575 0.0 0.0 0.0 5.3743335509393315 -0.08741589851013064 0.0 -2.6090097619835837 11.86765290371213" Properties=species:S:1:pos:R:3:initial_magmoms:R:1:castep_labels:S:1 n_minim_iter=6 pbc="T T T"
P        2.67275773       2.32210719       9.97874397       0.00000000 NULL
P        3.01818850      -0.36505958      10.02245191       0.00000000 NULL
P        4.17834202       1.37584093       1.64654549       0.00000000 NULL
P        1.51260421       4.06300770       1.60283754       0.00000000 NULL
P        2.84441303       2.77796973       0.40335911       0.00000000 NULL
P        2.84653319       0.09080295       0.44706706       0.00000000 NULL
P        0.90779386       2.07175663      11.30766743       0.00000000 NULL
P        4.78315236      -0.61541015      11.35137538       0.00000000 NULL
P        5.02547867       2.07999253       3.70995728       0.00000000 NULL
P        0.66546756      -0.60717424       3.75366523       0.00000000 NULL
P        4.75979755       4.83306608       2.14819261       0.00000000 NULL
P        0.93114868       2.14589931       2.19190056       0.00000000 NULL
P        0.58833306       1.78580277       5.44910617       0.00000000 NULL
P        5.10261316      -0.90136401       5.49281411       0.00000000 NULL
14
Lattice="6.029468472729089 0.0 0.0 0.0 5.13829542735123 -0.23985719123946259 0.0 -2.817219802838507 12.074879671426968" Properties=species:S:1:pos:R:3:initial_magmoms:R:1:castep_labels:S:1 n_minim_iter=7 pbc="T T T"
P        2.83155311       1.95247443      10.03643972       0.00000000 NULL
P        3.19791536      -0.61667329      10.15636832       0.00000000 NULL
P        4.43422593       1.30226729       1.62883527       0.00000000 NULL
P        1.59524255       3.87141500       1.50890668       0.00000000 NULL
P        3.02932361       2.61976004       0.30193677       0.00000000 NULL
P        3.00014486       0.05061233       0.42186536       0.00000000 NULL
P        0.94152794       1.67932197      11.36725400       0.00000000 NULL
P        5.08794053      -0.88982574      11.48718259       0.00000000 NULL
P        5.33008956       1.91261450       3.71760716       0.00000000 NULL
P        0.69937891      -0.65653321       3.83753576       0.00000000 NULL
P        5.04427061       4.52177428       2.05129168       0.00000000 NULL
P        0.98519786       1.95262656       2.17122028       0.00000000 NULL
P        0.59551473       1.54753035       5.44447009       0.00000000 NULL
P        5.43395375      -1.02161737       5.56439868       0.00000000 NULL
14
Lattice="5.9505467181673355 0.0 0.0 0.0 5.084715455582908 -0.2891853741299442 0.0 -2.894896137210758 11.618362212852276" Properties=species:S:1:pos:R:3:initial_magmoms:R:1:castep_labels:S:1 n_minim_iter=8 pbc="T T T"
P        2.78093281       1.84102368       9.61778187       0.00000000 NULL
P        3.16961391      -0.70133405       9.76237455       0.00000000 NULL
P        4.38355374       1.29475718       1.54202418       0.00000000 NULL
P        1.56699298       3.83711491       1.39743150       0.00000000 NULL
P        2.99858023       2.57379447       0.24230632       0.00000000 NULL
P        2.95196649       0.03143674       0.38689901       0.00000000 NULL
P        0.92807157       1.56604826      10.88499279       0.00000000 NULL
P        5.02247515      -0.97630946      11.02958547       0.00000000 NULL
P        5.27270343       1.87935985       3.55480215       0.00000000 NULL
P        0.67784329      -0.66299788       3.69939484       0.00000000 NULL
P        4.97674757       4.43079893       1.93198416       0.00000000 NULL
P        0.97379915       1.88844120       2.07657685       0.00000000 NULL
P        0.56314482       1.47179419       5.19666367       0.00000000 NULL
P        5.38740190      -1.07056354       5.34125636       0.00000000 NULL
14
Lattice="6.0824269587610615 0.0 0.0 0.0 5.184261061469635 -0.29905631514752445 0.0 -2.960265298924545 12.043063819119785" Properties=species:S:1:pos:R:3:initial_magmoms:R:1:castep_labels:S:1 n_minim_iter=9 pbc="T T T"
P        2.84183892       1.86961607       9.96695453       0.00000000 NULL
P        3.24058804      -0.72251446      10.11648269       0.00000000 NULL
P        4.48159334       1.32061825       1.59873586       0.00000000 NULL
P        1.60083362       3.91274878       1.44920771       0.00000000 NULL
P        3.06555631       2.62245185       0.25197698       0.00000000 NULL
P        3.01687065       0.03032132       0.40150513       0.00000000 NULL
P        0.94539069       1.58921820      11.28257754       0.00000000 NULL
P        5.13703627      -1.00291233      11.43210570       0.00000000 NULL
P        5.38795944       1.91665361       3.68591783       0.00000000 NULL
P        0.69446752      -0.67547692       3.83544599       0.00000000 NULL
P        5.08544010       4.51350757       2.00394552       0.00000000 NULL
P        0.99698686       1.92137704       2.15347368       0.00000000 NULL
P        0.57562489       1.49462133       5.38891403       0.00000000 NULL
P        5.50680207      -1.09750920       5.53844219       0.00000000 NULL
14
Lattice="6.065147230918203 0.0 0.0 0.0 5.150042742116679 -0.28933459188994326 0.0 -2.9247232113566413 11.99792137691209" Properties=species:S:1:pos:R:3:initial_magmoms:R:1:castep_labels:S:1 n_minim_iter=10 pbc="T T T"
P        2.83248837       1.87060927       9.93752939       0.00000000 NULL
P        3.23265887      -0.70441210      10.08219669       0.00000000 NULL
P        4.47010738       1.31502316       1.59512097       0.00000000 NULL
P        1.59503985       3.89004453       1.45045367       0.00000000 NULL
P        3.05754282       2.60436696       0.25440029       0.00000000 NULL
P        3.00760441       0.02934559       0.39906759       0.00000000 NULL
P        0.94255408       1.59471395      11.24756610       0.00000000 NULL
P        5.12259315      -0.98030742      11.39223340       0.00000000 NULL
P        5.37388122       1.91157872       3.67757672       0.00000000 NULL
P        0.69126601      -0.66344265       3.82224401       0.00000000 NULL
P        5.07074859       4.48567926       2.00582361       0.00000000 NULL
P        0.99439864       1.91065788       2.15049090       0.00000000 NULL
P        0.57191099       1.49081575       5.37281930       0.00000000 NULL
P        5.49323624      -1.08420562       5.51748660       0.00000000 NULL
14
Lattice="6.065960313224591 0.0 0.0 0.0 5.140232225359059 -0.28409291343575765 0.0 -2.9094635663873882 12.008336603523782" Properties=species:S:1:pos:R:3:initial_magmoms:R:1:castep_labels:S:1 n_minim_iter=11 pbc="T T T"
P        2.83150859       1.87505766       9.95104904       0.00000000 NULL
P        3.23445172      -0.69505846      10.09309550       0.00000000 NULL
P        4.47202392       1.31499381       1.59795227       0.00000000 NULL
P        1.59393639       3.88510992       1.45590581       0.00000000 NULL
P        3.05860301       2.59828266       0.25643809       0.00000000 NULL
P        3.00735731       0.02816655       0.39848454       0.00000000 NULL
P        0.94211256       1.60169590      11.26185526       0.00000000 NULL
P        5.12384776      -0.96842022      11.40390172       0.00000000 NULL
P        5.37544453       1.91373297       3.68451278       0.00000000 NULL
P        0.69051579      -0.65638315       3.82655924       0.00000000 NULL
P        5.07092227       4.47757078       2.01394001       0.00000000 NULL
P        0.99503804       1.90745467       2.15598647       0.00000000 NULL
P        0.57004589       1.49097238       5.38018480       0.00000000 NULL
P        5.49591442      -1.07914373       5.52223126       0.00000000 NULL
14
Lattice="6.068444896288204 0.0 0.0 0.0 5.127037108813113 -0.2741791078182412 0.0 -2.883024303503857 12.041562597872222" Properties=species:S:1:pos:R:3:initial_magmoms:R:1:castep_labels:S:1 n_minim_iter=12 pbc="T T T"
P        2.82882362       1.88580630       9.98830756       0.00000000 NULL
P        3.23962128      -0.67771226      10.12539711       0.00000000 NULL
P        4.47760324       1.31738693       1.60497514       0.00000000 NULL
P        1.59084166       3.88090549       1.46788558       0.00000000 NULL
P        3.06154348       2.58823056       0.25977519       0.00000000 NULL
P        3.00690142       0.02471201       0.39686474       0.00000000 NULL
P        0.94087767       1.61782168      11.30170026       0.00000000 NULL
P        5.12756722      -0.94569687      11.43878981       0.00000000 NULL
P        5.37974882       1.92235707       3.70242869       0.00000000 NULL
P        0.68869608      -0.64116149       3.83951824       0.00000000 NULL
P        5.07153881       4.46572571       2.03273164       0.00000000 NULL
P        0.99690608       1.90220716       2.16982119       0.00000000 NULL
P        0.56499573       1.49180041       5.40016971       0.00000000 NULL
P        5.50344917      -1.07171814       5.53725926       0.00000000 NULL
14
Lattice="6.05633603191046 0.0 0.0 0.0 5.131291309573073 -0.2692293130525236 0.0 -2.8747228424942293 12.062773866153163" Properties=species:S:1:pos:R:3:initial_magmoms:R:1:castep_labels:S:1 n_minim_iter=13 pbc="T T T"
P        2.81635588       1.89563485      10.01198783       0.00000000 NULL
P        3.23998015      -0.67001081      10.14660248       0.00000000 NULL
P        4.47564475       1.32504740       1.60827438       0.00000000 NULL
P        1.58069129       3.89069305       1.47365973       0.00000000 NULL
P        3.05788334       2.58381840       0.25779483       0.00000000 NULL
P        2.99845269       0.01817275       0.39240948       0.00000000 NULL
P        0.93631556       1.63300620      11.32559644       0.00000000 NULL
P        5.12002047      -0.93263945      11.46021110       0.00000000 NULL
P        5.37202396       1.94031155       3.71437478       0.00000000 NULL
P        0.68431207      -0.62533411       3.84898944       0.00000000 NULL
P        5.05890348       4.46477876       2.04617448       0.00000000 NULL
P        0.99743255       1.89913310       2.18078914       0.00000000 NULL
P        0.55501442       1.49080003       5.41151074       0.00000000 NULL
P        5.50132161      -1.07484563       5.54612539       0.00000000 NULL
14
Lattice="6.014851755774325 0.0 0.0 0.0 5.165721211990906 -0.2543055526214518 0.0 -2.8594554481927825 12.2048016455916" Properties=species:S:1:pos:R:3:initial_magmoms:R:1:castep_labels:S:1 n_minim_iter=14 pbc="T T T"
P        2.77092468       1.93446051      10.15006140       0.00000000 NULL
P        3.24392708      -0.64840010      10.27721418       0.00000000 NULL
P        4.47712801       1.35494209       1.63016238       0.00000000 NULL
P        1.53772375       3.93780270       1.50300960       0.00000000 NULL
P        3.04423685       2.57422412       0.24982365       0.00000000 NULL
P        2.97061491      -0.00863648       0.37697643       0.00000000 NULL
P        0.91672928       1.69174368      11.47254626       0.00000000 NULL
P        5.09812248      -0.89111692      11.59969903       0.00000000 NULL
P        5.34313801       2.01982133       3.77552804       0.00000000 NULL
P        0.67171375      -0.56303927       3.90268082       0.00000000 NULL
P        5.01388579       4.47778781       2.10333474       0.00000000 NULL
P        1.00096597       1.89492720       2.23048752       0.00000000 NULL
P        0.51805529       1.48535835       5.48300366       0.00000000 NULL
P        5.49679647      -1.09750225       5.61015643       0.00000000 NULL
14
Lattice="5.90198447653476 0.0 0.0 0.0 5.089392351882471 -0.2387443010404163 0.0 -2.792823733122463 11.921726254407359" Properties=species:S:1:pos:R:3:initial_magmoms:R:1:castep_labels:S:1 n_minim_iter=15 pbc="T T T"
P        2.71351940       1.92564223       9.92561849       0.00000000 NULL
P        3.18846508      -0.61905395      10.04499064       0.00000000 NULL
P        4.40656390       1.33758206       1.59630488       0.00000000 NULL
P        1.49542058       3.88227824       1.47693272       0.00000000 NULL
P        2.98698676       2.53025198       0.24379595       0.00000000 NULL
P        2.91499771      -0.01444419       0.36316810       0.00000000 NULL
P        0.89578638       1.69348516      11.21572910       0.00000000 NULL
P        5.00619810      -0.85121102      11.33510125       0.00000000 NULL
P        5.24284748       2.01344556       3.69374418       0.00000000 NULL
P        0.65913700      -0.53125062       3.81311633       0.00000000 NULL
P        4.91924951       4.41519913       2.06516047       0.00000000 NULL
P        0.98273496       1.87050295       2.18453262       0.00000000 NULL
P        0.50027707       1.46514059       5.36033170       0.00000000 NULL
P        5.40170740      -1.07955558       5.47970385       0.00000000 NULL
14
Lattice="5.970327681852817 0.0 0.0 0.0 5.177391807844048 -0.24886586330317578 0.0 -2.8534932942922633 12.164528476645096" Properties=species:S:1:pos:R:3:initial_magmoms:R:1:castep_labels:S:1 n_minim_iter=16 pbc="T T T"
P        2.74477261       1.94844176      10.12122392       0.00000000 NULL
P        3.22555507      -0.64025414      10.24565685       0.00000000 NULL
P        4.45921113       1.35920257       1.62771823       0.00000000 NULL
P        1.51111655       3.94789848       1.50328530       0.00000000 NULL
P        3.02114920       2.57286322       0.24667364       0.00000000 NULL
P        2.94917848      -0.01583268       0.37110657       0.00000000 NULL
P        0.90370600       1.71135650      11.43938548       0.00000000 NULL
P        5.06662168      -0.87733940      11.56381842       0.00000000 NULL
P        5.30159632       2.04640831       3.76562569       0.00000000 NULL
P        0.66873136      -0.54228760       3.89005862       0.00000000 NULL
P        4.97536084       4.48843824       2.10172801       0.00000000 NULL
P        0.99496685       1.89974234       2.22616094       0.00000000 NULL
P        0.50645720       1.48341973       5.46841939       0.00000000 NULL
P        5.46387048      -1.10527617       5.59285233       0.00000000 NULL
