13
Lattice="4.637790940163887 1.1521612472119207 0.09970516986775217 1.348040574858929 5.19777883492804 -0.37510808061247497 1.883473664515645 1.8590588447601235 11.111439011022446" Properties=species:S:1:pos:R:3:initial_magmoms:R:1:castep_labels:S:1:forces:R:3 n_minim_iter=1 energy=-69.14692963541447 stress="0.0058719612840816586 0.001987769567592021 -0.001165391523237903 0.001987769567592021 -0.00017247413199769247 -0.009431398874561391 -0.001165391523237903 -0.009431398874561391 0.004710599352878935" free_energy=-69.14692963541447 pbc="T T T"
P        3.17125955       0.85018393       1.64051234       0.00000000 NULL       0.33409476       0.22510165      -0.08008980
P        2.57140347       3.97815069       7.39677700       0.00000000 NULL       0.15498993      -0.14725964      -0.26095064
P        4.74202138       1.29279872       0.14895223       0.00000000 NULL      -0.16456366      -0.30242744       0.18387994
P        1.50193903       2.10731244       0.83578823       0.00000000 NULL      -0.03221537      -0.16191371      -0.17408646
P        0.42171795       2.52150918       2.76751541       0.00000000 NULL       0.21886013       0.05316083       0.16592131
P        1.04995450       3.88635631       5.75896755       0.00000000 NULL      -0.07370170      -0.23911584       0.02245735
P        2.00577901       2.35677556       4.33275017       0.00000000 NULL       0.06367565       0.07341247      -0.09329664
P        4.31410439       3.89236228      -0.82926787       0.00000000 NULL      -0.20380968      -0.13118140      -0.22539438
P        2.82606145       3.95864342       0.77186833       0.00000000 NULL      -0.23558414       0.38017806       0.01415051
P        7.28921338       7.43707727       7.51393371       0.00000000 NULL      -0.21122129       0.24804158      -0.00918798
P        4.40584326       2.38598983       9.44272611       0.00000000 NULL       0.11723103       0.03813756       0.38750924
P        4.47296230       3.19757228       6.32520402       0.00000000 NULL      -0.01973473       0.05180024       0.18299816
P        5.38371897       6.98586690       3.08768074       0.00000000 NULL       0.05197907      -0.08793437      -0.11391061
13
Lattice="4.593439827123374 1.1401459943173753 0.12345358041592637 1.3199168515851645 5.190318447360626 -0.2960793737876072 1.8804742147700473 2.012442325612118 11.06325814030529" Properties=species:S:1:pos:R:3:initial_magmoms:R:1:castep_labels:S:1:forces:R:3 n_minim_iter=2 energy=-69.19911806622986 stress="-0.006326004909833764 0.0022645230368195175 0.0008254150979871334 0.0022645230368195175 -0.008258142715398308 -0.002319061345492759 0.0008254150979871334 -0.002319061345492759 -0.005688783365047733" free_energy=-69.19911806622986 pbc="T T T"
P        3.14545427       0.86573585       1.64615658       0.00000000 NULL       0.21063453       0.15877452       0.27941612
P        2.55046870       4.07641723       7.40446760       0.00000000 NULL       0.02075222      -0.22169920      -0.08861963
P        4.69543909       1.27942594       0.17560942       0.00000000 NULL      -0.12299329      -0.14974057      -0.10633341
P        1.48359387       2.11452100       0.86150112       0.00000000 NULL      -0.04056413      -0.03697699      -0.26299186
P        0.41654341       2.56094147       2.78576140       0.00000000 NULL       0.19776239       0.16046346       0.01831590
P        1.03857716       3.96527474       5.77588387       0.00000000 NULL       0.04389554      -0.05725439      -0.15110670
P        1.98884831       2.41381877       4.33886681       0.00000000 NULL       0.16098575       0.11572285       0.05088721
P        4.26160877       3.86828163      -0.76187748       0.00000000 NULL      -0.11918476      -0.28420317      -0.22560608
P        2.78912495       3.96494436       0.82786973       0.00000000 NULL      -0.18443947       0.22201056       0.20042659
P        7.21416928       7.52659189       7.57979069       0.00000000 NULL      -0.01363268       0.14641005      -0.12949022
P        4.37673872       2.50851188       9.42044194       0.00000000 NULL       0.04610596       0.22473332       0.39542805
P        4.43462152       3.27583768       6.33524496       0.00000000 NULL      -0.14511367      -0.02409239       0.06027960
P        5.32081033       7.01580628       3.17420229       0.00000000 NULL      -0.05420838      -0.25414804      -0.04060557
13
Lattice="4.603061814183878 1.1319688981207952 0.13698143530702273 1.29863508774719 5.240692164746056 -0.2353462120011407 1.8759094679689943 2.158333402481173 11.126597755255238" Properties=species:S:1:pos:R:3:initial_magmoms:R:1:castep_labels:S:1:forces:R:3 n_minim_iter=3 energy=-69.23002972697738 stress="0.0019417325266272306 0.0008268787315542421 1.9486313719426714e-05 0.0008268787315542421 -0.0005726898278518988 0.0016148080851379582 1.9486313719426714e-05 0.0016148080851379582 9.546719606598848e-05" free_energy=-69.23002972697738 pbc="T T T"
P        3.15384626       0.88148546       1.66331832       0.00000000 NULL       0.17930165       0.28255581       0.45076371
P        2.53888561       4.19758641       7.47779418       0.00000000 NULL      -0.04778130      -0.16611589      -0.16142274
P        4.70345812       1.27103824       0.19099240       0.00000000 NULL      -0.14756012      -0.11150034      -0.11523366
P        1.47765686       2.14114773       0.88755037       0.00000000 NULL       0.04269806       0.07675130      -0.15866965
P        0.40689513       2.62299983       2.82697872       0.00000000 NULL       0.29687318       0.01858581      -0.14662427
P        1.02193527       4.07389422       5.84294669       0.00000000 NULL       0.17101248      -0.12734098      -0.18455048
P        1.98427666       2.48463076       4.38293048       0.00000000 NULL       0.18591963       0.18541281       0.09546064
P        4.25531936       3.88087368      -0.72105060       0.00000000 NULL      -0.29251990      -0.23169008      -0.07064096
P        2.77683005       4.00980011       0.87906035       0.00000000 NULL      -0.11290154       0.08175929       0.08291320
P        7.19945815       7.67031932       7.69519564       0.00000000 NULL      -0.17282491      -0.00121844      -0.13827297
P        4.37881653       2.62966400       9.48717383       0.00000000 NULL       0.24800671       0.14784902       0.31681549
P        4.43180155       3.36745821       6.39746660       0.00000000 NULL      -0.13502455       0.07321463       0.11823108
P        5.30343709       7.10706273       3.26796846       0.00000000 NULL      -0.21519940      -0.22826294      -0.08876937
13
Lattice="4.558334753326952 1.1111444426569408 0.1368938383326287 1.2531579846555723 5.277498713195463 -0.2353033899403392 1.8478818566749777 2.1629298591492256 11.134229101917013" Properties=species:S:1:pos:R:3:initial_magmoms:R:1:castep_labels:S:1:forces:R:3 n_minim_iter=4 energy=-69.24769460301779 stress="-0.0034675272387799587 -0.0022832557141868326 0.00102414852367186 -0.0022832557141868326 0.0037904853633834714 -0.0012910570254586174 0.00102414852367186 -0.0012910570254586174 -0.0011196122631045005" free_energy=-69.24769460301779 pbc="T T T"
P        3.12721539       0.87465192       1.67346954       0.00000000 NULL      -0.03423614       0.26488559       0.39217935
P        2.49104698       4.21164605       7.47897362       0.00000000 NULL      -0.11137738      -0.09611878      -0.07329747
P        4.65366664       1.24740185       0.18883546       0.00000000 NULL      -0.11428153      -0.15299357      -0.15978882
P        1.45210060       2.15047706       0.88419492       0.00000000 NULL       0.05817855       0.02994681      -0.09153631
P        0.39289272       2.64328849       2.82686889       0.00000000 NULL       0.20717195      -0.05165121      -0.17143692
P        0.99038292       4.09809979       5.84323206       0.00000000 NULL       0.16829573      -0.12161972      -0.21484092
P        1.95613689       2.49636062       4.38782273       0.00000000 NULL       0.19582063       0.17216561       0.07340272
P        4.18897864       3.88078529      -0.72432040       0.00000000 NULL      -0.25973166      -0.12265298      -0.11324828
P        2.72460669       4.02925885       0.88195757       0.00000000 NULL      -0.08708551       0.12206798       0.04308323
P        7.08750413       7.68872373       7.69759859       0.00000000 NULL      -0.12211579      -0.03302922      -0.17100877
P        4.33201177       2.62575968       9.50159656       0.00000000 NULL       0.33102150       0.02408084       0.37305729
P        4.37150449       3.36786992       6.40462313       0.00000000 NULL      -0.15013184       0.02603782       0.10712144
P        5.20984071       7.12760016       3.26802000       0.00000000 NULL      -0.08152852      -0.06111917       0.00631348
13
Lattice="4.5468198638378485 1.0960021402168607 0.12050597166155315 1.2386754577167922 5.256549940177821 -0.20299172034479757 1.7761088280257198 2.2436337489162907 11.213996322804379" Properties=species:S:1:pos:R:3:initial_magmoms:R:1:castep_labels:S:1:forces:R:3 n_minim_iter=5 energy=-69.29289460379933 stress="-0.0032911689418987267 -0.0017309426268999541 -0.005892038027859418 -0.0017309426268999541 -0.0018659376418333358 0.0008858248598561574 -0.005892038027859418 0.0008858248598561574 0.0020847068993083886" free_energy=-69.29289460379933 pbc="T T T"
P        3.12003001       0.90085631       1.70569117       0.00000000 NULL      -0.10682317       0.02187920      -0.09743501
P        2.43034267       4.24120553       7.53486637       0.00000000 NULL      -0.08044104      -0.03619544       0.08368059
P        4.63070271       1.21987892       0.16424114       0.00000000 NULL      -0.37120818      -0.07507770      -0.06140825
P        1.44175464       2.14963371       0.88655351       0.00000000 NULL      -0.01540857       0.14711020       0.04798495
P        0.38992514       2.65769463       2.85428474       0.00000000 NULL       0.11630674      -0.17549260      -0.22875686
P        0.95657279       4.11968479       5.89312746       0.00000000 NULL       0.05850518       0.02108252      -0.33252644
P        1.93520318       2.53393318       4.43159593       0.00000000 NULL       0.20689316       0.07066626      -0.04669596
P        4.15529620       3.83505334      -0.73237710       0.00000000 NULL      -0.38950153      -0.13640855       0.20220204
P        2.69459707       4.02831928       0.91027610       0.00000000 NULL       0.24013754      -0.05379820      -0.10805157
P        6.99994615       7.71115594       7.75673069       0.00000000 NULL      -0.18788811      -0.07929391       0.10323574
P        4.28327842       2.69472928       9.58865233       0.00000000 NULL       0.53335831       0.10683233       0.11412660
P        4.30845284       3.40372105       6.45792382       0.00000000 NULL      -0.22148382      -0.05991427       0.00081819
P        5.15285666       7.10463638       3.30964408       0.00000000 NULL       0.21755349       0.24861015       0.32282598
13
Lattice="4.577885141023502 1.1097331453983932 0.1857749487738011 1.2525690005069083 5.273120894792784 -0.15046382340937797 1.9288348694321538 2.329087101021657 11.239091758537691" Properties=species:S:1:pos:R:3:initial_magmoms:R:1:castep_labels:S:1:forces:R:3 n_minim_iter=6 energy=-69.31838067004281 stress="-0.0010920227935049566 0.0009230462968995842 0.0051627843184679206 0.0009230462968995842 -1.936285736643618e-05 0.001231733068490187 0.0051627843184679206 0.001231733068490187 0.0007272928655015894" free_energy=-69.31838067004281 pbc="T T T"
P        3.17081875       0.94539225       1.77986094       0.00000000 NULL      -0.48880846      -0.11856450      -0.30984562
P        2.54106587       4.29598858       7.57539231       0.00000000 NULL      -0.34818292       0.03310425       0.06451319
P        4.64815218       1.22150130       0.22176535       0.00000000 NULL      -0.15628781      -0.05161448      -0.12853855
P        1.46734624       2.16876129       0.90784148       0.00000000 NULL       0.20499711       0.22937689       0.08074254
P        0.45345078       2.68283468       2.86269479       0.00000000 NULL       0.10413171      -0.24960125       0.03274262
P        1.05358433       4.16111967       5.90884149       0.00000000 NULL       0.19374158       0.11372730      -0.10373162
P        2.02171656       2.58969649       4.47469545       0.00000000 NULL      -0.12156649      -0.02440887      -0.31335791
P        4.15333205       3.83265724      -0.65960389       0.00000000 NULL      -0.16219809      -0.09894691       0.25900339
P        2.72203613       4.06236228       0.97660222       0.00000000 NULL      -0.02781955      -0.20117351      -0.05285534
P        7.13708880       7.80114448       7.88056864       0.00000000 NULL      -0.12581906      -0.16820961      -0.03072739
P        4.45736522       2.78744213       9.68038952       0.00000000 NULL       0.47147740       0.13839417       0.14725166
P        4.40730731       3.47053089       6.53826397       0.00000000 NULL      -0.01427867      -0.08013566      -0.08713383
P        5.22851478       7.14761152       3.41885696       0.00000000 NULL       0.47061327       0.47805218       0.44193687
13
Lattice="4.606661938274407 1.1028818166752838 0.16772726174127864 1.2458462601071487 5.307251984591069 -0.1323646851841428 1.8857280040864828 2.377730080855117 11.08667855854015" Properties=species:S:1:pos:R:3:initial_magmoms:R:1:castep_labels:S:1:forces:R:3 n_minim_iter=7 energy=-69.3543196084915 stress="0.002521461938336518 -0.00011224167596128479 0.002418249789338768 -0.00011224167596128479 0.0016570434659263704 0.000836309768546727 0.002418249789338768 0.000836309768546727 -0.0076788525051981315" free_energy=-69.3543196084915 pbc="T T T"
P        3.18026886       0.96166619       1.75797727       0.00000000 NULL      -0.44728439      -0.24674911      -0.43317036
P        2.50327981       4.33597574       7.47187987       0.00000000 NULL      -0.14307027       0.09749192       0.24681264
P        4.66078912       1.20414295       0.19477574       0.00000000 NULL      -0.23389576       0.00389832      -0.24305762
P        1.47219149       2.19069903       0.89250904       0.00000000 NULL       0.21529255       0.26352968      -0.04077860
P        0.45397733       2.70266013       2.82397946       0.00000000 NULL      -0.09604299      -0.21277147       0.02543219
P        1.03364725       4.20127104       5.82452921       0.00000000 NULL      -0.03204708      -0.03326145      -0.19092921
P        2.01819487       2.62644733       4.41252003       0.00000000 NULL      -0.02805043      -0.04878185      -0.21519161
P        4.15135740       3.82995002      -0.65247806       0.00000000 NULL      -0.10229912      -0.07864347       0.22556710
P        2.72056210       4.08985860       0.96922162       0.00000000 NULL      -0.13914531      -0.27594755       0.06601858
P        7.11556202       7.85845999       7.76724605       0.00000000 NULL      -0.07724825      -0.19328028      -0.01918400
P        4.46782162       2.83705522       9.56460290       0.00000000 NULL       0.56522750       0.06900567       0.20485362
P        4.38903789       3.50431632       6.44886297       0.00000000 NULL      -0.01920966       0.07491873      -0.23299877
P        5.23355674       7.19854173       3.38866468       0.00000000 NULL       0.53777321       0.58059087       0.60662604
13
Lattice="4.578027788704337 1.0880405430378612 0.1590398568931619 1.2055133361603672 5.366401190303482 -0.06794165708025161 1.803225211852224 2.548799732090066 11.161688137953018" Properties=species:S:1:pos:R:3:initial_magmoms:R:1:castep_labels:S:1:forces:R:3 n_minim_iter=8 energy=-69.47160877175908 stress="0.001155039429345484 -0.0016306627336525683 0.0013195563525499508 -0.0016306627336525683 0.002035302017126072 0.003970006590802782 0.0013195563525499508 0.003970006590802782 -0.0007925897821072368" free_energy=-69.47160877175908 pbc="T T T"
P        3.13780005       1.01026487       1.78728920       0.00000000 NULL      -0.14223778      -0.22886357      -0.18686753
P        2.39957307       4.45715744       7.54022022       0.00000000 NULL      -0.03491542       0.13224534       0.35085687
P        4.58164845       1.15928497       0.15982492       0.00000000 NULL      -0.49788532       0.12598236      -0.31885207
P        1.46262245       2.24737090       0.90279030       0.00000000 NULL       0.04328014       0.28146543       0.04134663
P        0.46629632       2.74736168       2.84731839       0.00000000 NULL      -0.33648234      -0.03509510       0.00441310
P        0.99908701       4.30665031       5.85475670       0.00000000 NULL      -0.35436400      -0.10037084      -0.21813857
P        1.99596860       2.73218135       4.44799917       0.00000000 NULL       0.04117709      -0.10779407      -0.12860320
P        4.04631279       3.80185173      -0.62087578       0.00000000 NULL       0.18833341       0.10746418       0.13964745
P        2.66246832       4.14360719       1.01931718       0.00000000 NULL      -0.07813997      -0.30715579       0.05947305
P        6.95152353       8.01002897       7.85609081       0.00000000 NULL       0.00378940      -0.20880795       0.11933090
P        4.47013243       3.00826321       9.69613428       0.00000000 NULL       0.72033096      -0.17443179       0.20700873
P        4.28321466       3.61475366       6.51337561       0.00000000 NULL       0.02979269       0.21018168      -0.25892136
P        5.16625571       7.32859734       3.51483988       0.00000000 NULL       0.41732114       0.30518012       0.18930600
13
Lattice="4.5620990284186735 1.1349865201173208 0.1185066728657316 1.2286032558472229 5.477542393494491 -0.04178746544318563 1.6886383224134025 2.676320171186522 11.075412378137923" Properties=species:S:1:pos:R:3:initial_magmoms:R:1:castep_labels:S:1:forces:R:3 n_minim_iter=9 energy=-69.56547855204838 stress="-0.0022481631680995352 2.0676822180892914e-05 -0.002596256598407061 2.0676822180892914e-05 0.004844689036970282 0.003858135556784129 -0.002596256598407061 0.003858135556784129 0.000522028774695315" free_energy=-69.56547855204838 pbc="T T T"
P        3.11560205       1.07814535       1.76814593       0.00000000 NULL      -0.06251438      -0.27363898      -0.08435463
P        2.32108460       4.59002230       7.49234139       0.00000000 NULL      -0.02610373       0.18289762       0.24833325
P        4.50226302       1.18586415       0.08834365       0.00000000 NULL      -0.36751868       0.33006518      -0.31634131
P        1.46449063       2.33054483       0.88161874       0.00000000 NULL      -0.01901281       0.50342998       0.08507910
P        0.46543210       2.81365045       2.82831343       0.00000000 NULL      -0.67937960      -0.15999333      -0.14635582
P        0.94923936       4.40190835       5.78483986       0.00000000 NULL      -0.49136927      -0.14147286      -0.05276226
P        1.98048689       2.83665941       4.40295747       0.00000000 NULL       0.09577518      -0.07621950       0.03680138
P        4.02275461       3.86775796      -0.63405995       0.00000000 NULL       0.26193696       0.22772439       0.21210520
P        2.64100873       4.24807552       1.02395540       0.00000000 NULL      -0.03251121      -0.55939138      -0.12469027
P        6.85195951       8.24455240       7.77440304       0.00000000 NULL       0.19116859      -0.34921133       0.16482188
P        4.45683286       3.16300123       9.66581565       0.00000000 NULL       0.49168392      -0.39847348       0.18165829
P        4.19319696       3.76619231       6.44604792       0.00000000 NULL       0.04527750       0.32428862      -0.27732711
P        5.17034157       7.53496852       3.50655933       0.00000000 NULL       0.59256753       0.38999507       0.07303229
13
Lattice="4.5704109433193185 1.0998006617058862 0.11496328048801398 1.1955775238678314 5.461830458767079 -0.032612751695450935 1.668580736893827 2.681798095840123 11.051160266935216" Properties=species:S:1:pos:R:3:initial_magmoms:R:1:castep_labels:S:1:forces:R:3 n_minim_iter=10 energy=-69.58169401051569 stress="6.874710499198091e-05 -0.006318209037925495 -0.0022530438101314885 -0.006318209037925495 0.0008228254725900965 0.004068723159608965 -0.0022530438101314885 0.004068723159608965 0.001307723887966607" free_energy=-69.58169401051569 pbc="T T T"
P        3.12072782       1.06318716       1.77002321       0.00000000 NULL      -0.22274213      -0.25052212      -0.15067905
P        2.28902925       4.57760857       7.47978405       0.00000000 NULL      -0.06827407       0.19272453       0.17886982
P        4.48929579       1.14620472       0.07393628       0.00000000 NULL      -0.10893176       0.43880722      -0.21584271
P        1.45502444       2.33103041       0.87725580       0.00000000 NULL      -0.08116462       0.22942167       0.13789365
P        0.44803558       2.80849326       2.82136305       0.00000000 NULL      -0.51068489      -0.04480113      -0.14080141
P        0.91505851       4.38966247       5.76461019       0.00000000 NULL      -0.34297608      -0.03095286      -0.01455427
P        1.97431601       2.83185693       4.39315773       0.00000000 NULL       0.04992504      -0.07425316       0.01753099
P        4.00154872       3.82419871      -0.63044964       0.00000000 NULL       0.25953213       0.20058280       0.31164831
P        2.61254458       4.22232330       1.02831157       0.00000000 NULL       0.07484426      -0.37828283      -0.21082154
P        6.80772295       8.19387560       7.76018453       0.00000000 NULL       0.16796657      -0.26880459       0.15218672
P        4.47491004       3.14611197       9.66691141       0.00000000 NULL       0.34543607      -0.45061303      -0.02785363
P        4.17153272       3.75119150       6.43241931       0.00000000 NULL      -0.01585393       0.13875017      -0.15758059
P        5.14647241       7.49977117       3.51168441       0.00000000 NULL       0.45292342       0.29794336       0.12000372
13
Lattice="4.555684389193428 1.16990689521671 0.10064757805754444 1.2385829082806776 5.589833181467388 -0.0026756774827571984 1.625067501012308 2.8136670693088854 10.984939551994188" Properties=species:S:1:pos:R:3:initial_magmoms:R:1:castep_labels:S:1:forces:R:3 n_minim_iter=11 energy=-69.62772212967258 stress="-0.002036952631394096 -0.003928894679392516 -0.002894258802752265 -0.003928894679392516 0.0029607669603156635 0.0041671127680745785 -0.002894258802752265 0.0041671127680745785 0.0020761238857656327" free_energy=-69.62772212967258 pbc="T T T"
P        3.10449273       1.13952672       1.77531624       0.00000000 NULL       0.07039108      -0.19425930      -0.15972682
P        2.26106486       4.72825446       7.42745872       0.00000000 NULL       0.15713081       0.24314010       0.51888790
P        4.45790775       1.23305051       0.03953442       0.00000000 NULL      -0.00467799       0.35801098       0.13484512
P        1.46594486       2.44053187       0.86893616       0.00000000 NULL      -0.20052463       0.07065865       0.05248485
P        0.44531677       2.87444663       2.80207795       0.00000000 NULL      -0.51205739       0.04973789       0.02361647
P        0.91123049       4.49883997       5.74126329       0.00000000 NULL      -0.71718946      -0.06829808      -0.26237474
P        1.98384285       2.95341154       4.37563744       0.00000000 NULL      -0.00025074      -0.05757904      -0.10446439
P        4.00379861       3.92811598      -0.60939244       0.00000000 NULL       0.45216614       0.34958706       0.06943982
P        2.60650352       4.31626321       1.02234052       0.00000000 NULL       0.00558957      -0.14955788      -0.04500331
P        6.80368785       8.45390683       7.71520468       0.00000000 NULL       0.08429857      -0.25951912       0.36389949
P        4.47285895       3.29078551       9.65218018       0.00000000 NULL       0.19108152      -0.64837087      -0.38900334
P        4.13576568       3.93043276       6.39935374       0.00000000 NULL       0.15256757       0.13887201      -0.22185277
P        5.20999051       7.74669191       3.52030999       0.00000000 NULL       0.32147497       0.16757760       0.01925171
13
Lattice="4.5629010591334485 1.2276469590602404 0.0699832323350315 1.2826018706257862 5.693039794524098 -0.019831410197102457 1.574253836537973 2.8359453505280254 10.886695471990887" Properties=species:S:1:pos:R:3:initial_magmoms:R:1:castep_labels:S:1:forces:R:3 n_minim_iter=12 energy=-69.71071894908653 stress="-0.0016567631555389907 -0.001869628691384453 -0.0018420339143111306 -0.001869628691384453 0.0012425746969265427 0.003333336667974478 -0.0018420339143111306 0.003333336667974478 0.0038566568146807647" free_energy=-69.71071894908653 pbc="T T T"
P        3.11158505       1.19996286       1.76075349       0.00000000 NULL       0.20230450      -0.13781147      -0.16267267
P        2.23644291       4.80261429       7.35419324       0.00000000 NULL       0.03292128       0.13282436       0.17228952
P        4.47845170       1.32577383       0.02963318       0.00000000 NULL      -0.20618370       0.05353247       0.03788177
P        1.47417179       2.52124449       0.82025494       0.00000000 NULL      -0.27924061      -0.05218262       0.11944003
P        0.44460253       2.90545896       2.77024295       0.00000000 NULL      -0.53673476       0.14472314      -0.16087004
P        0.86726165       4.52593421       5.64790666       0.00000000 NULL      -0.48127299       0.03349988       0.16373183
P        1.99162036       3.03615149       4.30757324       0.00000000 NULL       0.10226616      -0.04331401       0.03852723
P        4.03032639       4.02024640      -0.63112781       0.00000000 NULL       0.34300176       0.38230757       0.12291502
P        2.58663832       4.39976767       0.98489676       0.00000000 NULL       0.35560432      -0.08921415       0.01814219
P        6.80040546       8.58875623       7.60286558       0.00000000 NULL       0.20972573      -0.22345166       0.21992353
P        4.47508834       3.27903287       9.56026490       0.00000000 NULL       0.02930521      -0.33213758      -0.19563287
P        4.12218748       4.02874285       6.32222137       0.00000000 NULL       0.09267472       0.12296723      -0.23856226
P        5.30436110       7.93425355       3.47034294       0.00000000 NULL       0.13562839       0.00825683      -0.13511329
13
Lattice="4.559274905639312 1.2568032922885928 0.032498033331770405 1.3072764882605181 5.736235445187192 -0.054765427138686026 1.5045278619793228 2.8003218518028192 10.839331627526205" Properties=species:S:1:pos:R:3:initial_magmoms:R:1:castep_labels:S:1:forces:R:3 n_minim_iter=13 energy=-69.75783682759055 stress="-0.002090086210090967 -0.0006490373672129702 -0.0016984207851894763 -0.0006490373672129702 0.0010987684371211916 0.001666480051656924 -0.0016984207851894763 0.001666480051656924 0.0032207022267324954" free_energy=-69.75783682759055 pbc="T T T"
P        3.11835916       1.22080894       1.72103100       0.00000000 NULL       0.06665681      -0.15359438       0.11805538
P        2.18624564       4.80362538       7.29449572       0.00000000 NULL       0.24294150       0.10547898       0.33515376
P        4.47113883       1.34531757       0.00732049       0.00000000 NULL      -0.06459859       0.16370674      -0.09096872
P        1.45600890       2.53464646       0.78017970       0.00000000 NULL       0.01158680       0.24521647       0.17825123
P        0.41316144       2.91682781       2.72934104       0.00000000 NULL      -0.20585180       0.10227878       0.01753465
P        0.81001747       4.52179538       5.62065652       0.00000000 NULL      -0.48550056       0.01234708      -0.02579421
P        1.99176691       3.06719097       4.26503819       0.00000000 NULL      -0.14696817      -0.01337032      -0.07542656
P        4.04295516       4.09242946      -0.66066461       0.00000000 NULL       0.30600325       0.03063948      -0.01615891
P        2.60728416       4.44333164       0.95170134       0.00000000 NULL       0.02032858      -0.34857238       0.14415228
P        6.77459487       8.59541041       7.49862877       0.00000000 NULL       0.12669215      -0.07041562       0.18788061
P        4.42331427       3.22776581       9.50049850       0.00000000 NULL      -0.01580137      -0.04094645      -0.36226965
P        4.08798494       4.05048585       6.24787142       0.00000000 NULL       0.06494032      -0.01026952      -0.07295016
P        5.33991637       8.00582701       3.40423530       0.00000000 NULL       0.07957109      -0.02249885      -0.33745970
13
Lattice="4.55773786114811 1.284912781349173 0.017954437364879533 1.3354642180910652 5.7528568193728775 -0.05866664826895932 1.4780296798028512 2.812537988758318 10.80503051240838" Properties=species:S:1:pos:R:3:initial_magmoms:R:1:castep_labels:S:1:forces:R:3 n_minim_iter=14 energy=-69.79818466849726 stress="-0.0024936692460416775 -0.00012261527708616395 -0.0019485631317452342 -0.00012261527708616395 0.0018673301759874854 0.0012011043921695231 -0.0019485631317452342 0.0012011043921695231 0.0017901322955440118" free_energy=-69.79818466849726 pbc="T T T"
P        3.11852467       1.23631460       1.70802126       0.00000000 NULL       0.09784514      -0.17366106       0.08281631
P        2.18734199       4.82824975       7.27734863       0.00000000 NULL       0.13258529       0.01417007       0.23537961
P        4.46886509       1.36300369      -0.00929755       0.00000000 NULL      -0.05034816       0.19350561      -0.05974260
P        1.46175041       2.56476363       0.77813642       0.00000000 NULL       0.03559046       0.05325375       0.08405472
P        0.40924481       2.93638998       2.71012213       0.00000000 NULL      -0.24344013       0.00490041       0.12132934