24
Lattice="7.893561032500412 0.039803886089690904 0.03793928002082949 0.4372323300739229 7.881542870066426 0.03793928002082989 0.4372323300739231 0.4157429849451195 7.870661673082661" Properties=species:S:1:pos:R:3:initial_magmoms:R:1:castep_labels:S:1:forces:R:3 n_minim_iter=1 energy=-120.69017798535971 stress="0.00039899075840377083 -0.00012228536982756896 -0.00011655694200975231 -0.00012228536982756896 0.0004113217240794179 -0.00011082832028254012 -0.00011655694200975231 -0.00011082832028254012 0.000421960363960332" free_energy=-120.69017798535971 pbc="T T T"
P        3.28996580       2.55585408       7.25418426       0.00000000 NULL       0.21046535       0.24082225      -0.06756681
P        2.71827738       7.39719673       2.80569116       0.00000000 NULL       0.25111468      -0.05799340       0.20108324
P        7.52469098       2.91475894       2.20514405       0.00000000 NULL      -0.04527500       0.21301540       0.24378455
P        1.17816008       3.58045729       5.41777158       0.00000000 NULL      -0.01879633      -0.35958051      -0.02592128
P        3.63524115       5.45930897       0.73549428       0.00000000 NULL      -0.36007083      -0.02592340       0.00057759
P        5.63543521       0.89552476       3.31660820       0.00000000 NULL      -0.04402182      -0.01660067      -0.35792438
P        8.12485490       5.19037208       6.57914369       0.00000000 NULL       0.85405563       0.25665574       0.34724640
P        5.59291324       6.94806680       7.52874827       0.00000000 NULL       0.29933597       0.38711971       0.82243515
P        7.22088262       7.77110706       4.86899480       0.00000000 NULL       0.40170162       0.83488716       0.23971336
P        0.84832912       1.32046111       7.02824329       0.00000000 NULL      -0.35623225      -0.01300726      -0.37284173
P        1.36150344       7.05759237       0.44292411       0.00000000 NULL      -0.03092878      -0.38943802      -0.33684269
P        7.11719733       0.49056617       0.98200334       0.00000000 NULL      -0.39050139      -0.33699613       0.00488202
P        3.35158701       7.29213420       4.90098420       0.00000000 NULL       0.44061262       0.08094375       0.15552488
P        7.45165194       5.03821923       2.74175732       0.00000000 NULL       0.10302804       0.17624717       0.42802046
P        5.40705439       3.08322710       7.04879255       0.00000000 NULL       0.18121154       0.43203582       0.07339469
P        5.55630002       6.90049639       1.92533723       0.00000000 NULL       0.21597282       0.30956785      -0.83216361
P        7.17152892       2.17250074       5.10349462       0.00000000 NULL       0.32005041      -0.82161331       0.23977508
P        2.53086582       5.43575454       6.80025989       0.00000000 NULL      -0.80445492       0.25680680       0.34910648
P        1.30544553       5.33198209       4.05605269       0.00000000 NULL      -0.17913435      -0.13542502      -0.34101024
P        5.39095339       4.10102196       0.83965762       0.00000000 NULL      -0.14427350      -0.34886816      -0.15554163
P        4.36727993       1.08691075       5.13140094       0.00000000 NULL      -0.35569045      -0.16142841      -0.11892101
P        3.83647759       2.58805027       1.24596727       0.00000000 NULL       0.20204855      -0.78133223       0.04729966
P        2.77795223       1.42197735       3.63730130       0.00000000 NULL      -0.77016690       0.05880552       0.23859123
P        1.56005674       3.76269458       2.52534183       0.00000000 NULL       0.01994930       0.20129937      -0.78270142
24
Lattice="7.82965121412628 0.05915435081432135 0.056383275616300986 0.45334007845378826 7.816739738878151 0.05638327561630226 0.4533400784537894 0.4310590604765375 7.805048834280743" Properties=species:S:1:pos:R:3:initial_magmoms:R:1:castep_labels:S:1:forces:R:3 n_minim_iter=2 energy=-120.99525275616031 stress="-0.010890075634056709 -0.0005697217640466194 -0.0005430332519245102 -0.0005697217640466194 -0.010832626270688487 -0.0005163439477096935 -0.0005430332519245102 -0.0005163439477096935 -0.010783061414522028" free_energy=-120.99525275616031 pbc="T T T"
P        3.29550667       2.56894841       7.20267526       0.00000000 NULL      -0.05890651       0.19130137      -0.14286928
P        2.73163410       7.34598065       2.81302941       0.00000000 NULL       0.18809246      -0.14598726      -0.06153674
P        7.47421245       2.92285191       2.22069270       0.00000000 NULL      -0.13633070      -0.05210770       0.19793067
P        1.18948474       3.55069462       5.38098584       0.00000000 NULL       0.01163767      -0.52319417      -0.01300610
P        3.60608648       5.42317960       0.75005207       0.00000000 NULL      -0.52194443      -0.01117092       0.03854813
P        5.59788359       0.90875710       3.28864329       0.00000000 NULL      -0.03743917       0.01354009      -0.52196907
P        8.12280269       5.19266087       6.56805529       0.00000000 NULL       0.36370658       0.25629327       0.41781085
P        5.59509578       6.93688736       7.52711749       0.00000000 NULL       0.27428251       0.43412600       0.32990657
P        7.20982727       7.76960965       4.87181254       0.00000000 NULL       0.44738671       0.34161187       0.23596840
P        0.84654453       1.32671798       6.95738641       0.00000000 NULL      -0.37942364       0.06731084      -0.42286125
P        1.36766250       6.98671642       0.44422606       0.00000000 NULL       0.04811963      -0.44070432      -0.36161982
P        7.04672143       0.49233263       0.99164995       0.00000000 NULL      -0.43772218      -0.35783617       0.08750574
P        3.37236475       7.25385871       4.88973707       0.00000000 NULL       0.31933017      -0.29600583       0.28857490
P        7.41447127       5.02807227       2.76494918       0.00000000 NULL      -0.27955050       0.30424718       0.31961203
P        5.39504807       3.10463658       7.01110026       0.00000000 NULL       0.28978449       0.30512520      -0.30949999
P        5.54177348       6.87363688       1.90304871       0.00000000 NULL       0.30413075       0.33323514      -0.36067050
P        7.14397200       2.14960715       5.09142268       0.00000000 NULL       0.34812685      -0.34649847       0.30392579
P        2.50661365       5.42243232       6.77449980       0.00000000 NULL      -0.32852903       0.32108110       0.35014281
P        1.31020765       5.29405413       4.02215068       0.00000000 NULL       0.11546658       0.01906791      -0.16042316
P        5.35331333       4.06747851       0.84794118       0.00000000 NULL       0.02485802      -0.15475620       0.12191926
P        4.33188366       1.09346355       5.09514187       0.00000000 NULL      -0.15330815       0.12334286       0.02673680
P        3.82299836       2.54635689       1.25207772       0.00000000 NULL       0.14767027      -0.84837007       0.32438759
P        2.73563300       1.42753604       3.62565876       0.00000000 NULL      -0.83985791       0.33313305       0.17443237
P        1.56347740       3.74902576       2.48340345       0.00000000 NULL       0.29041953       0.13321524      -0.86294599
24
Lattice="7.937525646422971 0.1106913044376295 0.10550598967817017 0.5102436507355588 7.921882186032846 0.10550598967817411 0.5102436507355625 0.48516590337734505 7.90771540518768" Properties=species:S:1:pos:R:3:initial_magmoms:R:1:castep_labels:S:1:forces:R:3 n_minim_iter=3 energy=-121.4354742737515 stress="0.0022694683649870646 -3.924199563161393e-05 -3.740370392631727e-05 -3.924199563161393e-05 0.002273425428793351 -3.556537530602878e-05 -3.740370392631727e-05 -3.556537530602878e-05 0.0022768394022680636" free_energy=-121.4354742737515 pbc="T T T"
P        3.41818830       2.68632989       7.32181504       0.00000000 NULL       0.49411995       0.29057845       0.05055567
P        2.85504429       7.47057406       2.92379895       0.00000000 NULL       0.31509115       0.07345451       0.47588679
P        7.60486210       3.03910218       2.33222756       0.00000000 NULL       0.08922769       0.49024884       0.28782066
P        1.25991085       3.60405472       5.47370516       0.00000000 NULL      -0.06728242       0.17948311      -0.00150174
P        3.66292519       5.51903550       0.81317908       0.00000000 NULL       0.17586742      -0.00515477      -0.07607526
P        5.69647998       0.97430156       3.33749700       0.00000000 NULL       0.00370754      -0.06755482       0.17934873
P        8.37927430       5.37406774       6.76132815       0.00000000 NULL      -0.14374432      -0.34811887       0.00601590
P        5.78918710       7.14177992       7.76457936       0.00000000 NULL      -0.35491546      -0.00003311      -0.12617599
P        7.42423334       8.01559694       5.04374517       0.00000000 NULL      -0.01790478      -0.14302417      -0.34800700
P        0.87818542       1.38886469       7.02439672       0.00000000 NULL      -0.40906591      -0.08291423      -0.19578506
P        1.43132365       7.05501462       0.46945217       0.00000000 NULL      -0.10340749      -0.21494584      -0.39452079
P        7.11813863       0.52041294       1.05051268       0.00000000 NULL      -0.21988023      -0.39849942      -0.07343280
P        3.53283414       7.40401639       5.02831363       0.00000000 NULL      -0.00584439      -0.27218512      -0.30339490
P        7.57251886       5.17381027       2.91083478       0.00000000 NULL      -0.27213412      -0.30266881       0.02240480
P        5.54855965       3.25756993       7.15444182       0.00000000 NULL      -0.31598811       0.01007992      -0.25732717
P        5.69239080       7.03652560       1.93216263       0.00000000 NULL       0.52382775       0.38827848       0.46989573
P        7.31423839       2.18550592       5.23208741       0.00000000 NULL       0.41416317       0.49349897       0.48050529
P        2.55104062       5.57100099       6.93580548       0.00000000 NULL       0.51372803       0.49859158       0.36530487
P        1.37276737       5.38380447       4.08266113       0.00000000 NULL       0.24315056      -0.51679470      -0.02883750
P        5.44610000       4.13069808       0.90293461       0.00000000 NULL      -0.50389528      -0.01591474       0.26993856
P        4.39969530       1.15268375       5.18188810       0.00000000 NULL      -0.04126811       0.24554011      -0.51481799
P        3.91600361       2.54383679       1.31126067       0.00000000 NULL       0.29881128      -0.39528469      -0.23331155
P        2.73779936       1.49111012       3.71572869       0.00000000 NULL      -0.37973664      -0.21778198       0.32915580
P        1.62707991       3.83894239       2.47804898       0.00000000 NULL      -0.23662727       0.31112130      -0.38364505
24
Lattice="7.980211687735832 0.2147005723466667 0.20464296165801157 0.6162704199650592 7.959276706228881 0.2046429616580147 0.616270419965062 0.585981608190636 7.94031422444579" Properties=species:S:1:pos:R:3:initial_magmoms:R:1:castep_labels:S:1:forces:R:3 n_minim_iter=4 energy=-122.01119284505127 stress="0.001322844139262414 0.002908642327956405 0.0027723874788123473 0.002908642327956405 0.0010295436791587682 0.0026361285884770693 0.0027723874788123473 0.0026361285884770693 0.000776496604392277" free_energy=-122.01119284505127 pbc="T T T"
P        3.62741356       2.87910248       7.41567753       0.00000000 NULL      -0.13024045       0.10676950       0.08844609
P        3.05810783       7.57388096       3.11832280       0.00000000 NULL       0.10007582       0.08185074      -0.13953602
P        7.71826317       3.24287565       2.52027866       0.00000000 NULL       0.08678621      -0.13478154       0.10240656
P        1.37148244       3.68407280       5.54332097       0.00000000 NULL      -0.00324979       0.19311180       0.27360629
P        3.74845992       5.59372014       0.91711890       0.00000000 NULL       0.19270317       0.27266991      -0.02607177
P        5.77537696       1.08203698       3.41408564       0.00000000 NULL       0.28202754      -0.01747341       0.17977286
P        8.61376095       5.56406413       6.97562116       0.00000000 NULL      -0.02882950      -0.48576077      -0.09479589
P        5.99074999       7.36659508       7.97866964       0.00000000 NULL      -0.48659623      -0.09489459       0.00021705
P        7.65891296       8.23854917       5.22324972       0.00000000 NULL      -0.11927668      -0.02285233      -0.48065764
P        0.90912529       1.47583454       7.01379958       0.00000000 NULL      -0.23651728      -0.02349494      -0.14660228
P        1.51974114       7.04570112       0.49645098       0.00000000 NULL      -0.03537492      -0.15770143      -0.22773567
P        7.11328919       0.55163662       1.13789056       0.00000000 NULL      -0.15928267      -0.22878687      -0.01643969
P        3.73816272       7.50161256       5.15311021       0.00000000 NULL       0.15894650      -0.12013825       0.21378529
P        7.68033051       5.30805889       3.10477545       0.00000000 NULL      -0.11198212       0.22143985       0.15435588
P        5.68806679       3.45612554       7.24594292       0.00000000 NULL       0.21552009       0.14828214      -0.13024915
P        5.91739011       7.23124864       2.09164540       0.00000000 NULL       0.47471626       0.02083006       0.14797887
P        7.52004420       2.35510821       5.43910320       0.00000000 NULL       0.04470789       0.17048783       0.46542697
P        2.73079106       5.78722330       7.12265889       0.00000000 NULL       0.17252281       0.46662086       0.01371188
P        1.51778790       5.40415838       4.14598794       0.00000000 NULL      -0.03761186      -0.40035150      -0.25886669
P        5.47373057       4.20084651       1.04354495       0.00000000 NULL      -0.40173755      -0.25940343      -0.00497423
P        4.47114607       1.29428603       5.19918267       0.00000000 NULL      -0.27930377      -0.02357747      -0.38748090
P        4.03018427       2.50991643       1.37627604       0.00000000 NULL       0.30141804       0.00932553      -0.03963320
P        2.70967159       1.56159958       3.82822259       0.00000000 NULL       0.02449155      -0.02517825       0.30212052
P        1.69606358       3.94979001       2.44105073       0.00000000 NULL      -0.02391304       0.30300657       0.01121485
24
Lattice="7.985595752734218 0.09074989324747922 0.08649873040080329 0.4927480995306883 7.970895456573252 0.08649873040080495 0.49274809953068965 0.4685302335494912 7.957583542145891" Properties=species:S:1:pos:R:3:initial_magmoms:R:1:castep_labels:S:1:forces:R:3 n_minim_iter=5 energy=-122.10709364586637 stress="-0.0013486215238010897 -0.0029701166603798303 -0.0028309820672436765 -0.0029701166603798303 -0.0010491221258009983 -0.0026918433385517346 -0.0028309820672436765 -0.0026918433385517346 -0.0007907268630886688" free_energy=-122.10709364586637 pbc="T T T"
P        3.49911313       2.74747899       7.35586108       0.00000000 NULL      -0.54834316      -0.14200330      -0.32159040
P        2.92019077       7.50830801       2.99982037       0.00000000 NULL      -0.16943488      -0.34713248      -0.52445821
P        7.64582862       3.11806431       2.39167416       0.00000000 NULL      -0.35522397      -0.53112972      -0.12642272
P        1.23431271       3.59453851       5.49954461       0.00000000 NULL      -0.02773451       0.23777442       0.05463777
P        3.65213206       5.54364257       0.78688268       0.00000000 NULL       0.23607621       0.05267302      -0.04224618
P        5.72051236       0.94745922       3.32675297       0.00000000 NULL       0.06449378      -0.03102144       0.23488164
P        8.45367644       5.34185760       6.81263465       0.00000000 NULL      -0.16766652      -0.44856450       0.03345963
P        5.76076433       7.19666756       7.83796206       0.00000000 NULL      -0.45643826       0.02647615      -0.14630393
P        7.47762012       8.08740188       5.00911240       0.00000000 NULL       0.00345869      -0.16805387      -0.44965281
P        0.75856071       1.36614770       6.99066183       0.00000000 NULL      -0.02105434      -0.20997399       0.23647371
P        1.40261180       7.01564573       0.35287646       0.00000000 NULL      -0.21076780       0.23570061      -0.02177913
P        7.07737390       0.40269159       1.02943909       0.00000000 NULL       0.22478842      -0.03241464      -0.22106929
P        3.56715062       7.38379828       5.01575678       0.00000000 NULL       0.20815126      -0.18293315       0.45059695
P        7.55405439       5.16295974       2.94668721       0.00000000 NULL      -0.17221965       0.46048673       0.19524717
P        5.53679310       3.29252326       7.13484894       0.00000000 NULL       0.45123046       0.18566516      -0.20432478
P        5.81659748       7.15645318       1.91427497       0.00000000 NULL       0.31940719      -0.15624766       0.39239020
P        7.44026823       2.17329633       5.35081945       0.00000000 NULL      -0.13996575       0.40760941       0.30768248
P        2.54519273       5.69566029       7.05645271       0.00000000 NULL       0.40004437       0.29964316      -0.17487949
P        1.38208096       5.31483199       4.05451108       0.00000000 NULL       0.22449898      -0.40654757      -0.07590608
P        5.37768401       4.10319283       0.91704433       0.00000000 NULL      -0.39472721      -0.06408837       0.24804346
P        4.36877986       1.16356789       5.11434446       0.00000000 NULL      -0.08388349       0.22901344      -0.40244111
P        3.99653462       2.40157333       1.28460712       0.00000000 NULL       0.32431025       0.05166293       0.20476264
P        2.59977151       1.46868647       3.80449827       0.00000000 NULL       0.06792797       0.21993045       0.31111144
P        1.59773434       3.92105526       2.33722689       0.00000000 NULL       0.22307195       0.31347518       0.04178704
24
Lattice="7.988910317583494 0.10559326586541501 0.10064676782952157 0.5077395460651065 7.973458381000664 0.10064676782952316 0.5077395460651078 0.4827848718782956 7.959465251693091" Properties=species:S:1:pos:R:3:initial_magmoms:R:1:castep_labels:S:1:forces:R:3 n_minim_iter=6 energy=-122.22286320372683 stress="-0.002445473193879281 -0.0014005738460156321 -0.001334964207205377 -0.0014005738460156321 -0.0023042426890395274 -0.0012693526247288223 -0.001334964207205377 -0.0012693526247288223 -0.0021823950858505703" free_energy=-122.22286320372683 pbc="T T T"
P        3.50953459       2.77597359       7.35844450       0.00000000 NULL       0.06471471      -0.07597400      -0.05074332
P        2.94917399       7.51131866       3.00865961       0.00000000 NULL      -0.07261892      -0.04740303       0.07081223
P        7.65029489       3.12827383       2.42001214       0.00000000 NULL      -0.05099960       0.06736825      -0.07345397
P        1.24926655       3.61188364       5.51752329       0.00000000 NULL       0.08201784       0.04978684      -0.06934703
P        3.67020818       5.56227470       0.80006606       0.00000000 NULL       0.05385367      -0.06546047       0.08264003
P        5.74003107       0.96144795       3.34321624       0.00000000 NULL      -0.06266564       0.08528155       0.05305414
P        8.49172343       5.34355514       6.84397685       0.00000000 NULL      -0.24207411      -0.25291226       0.19842486
P        5.76437556       7.22979130       7.87432914       0.00000000 NULL      -0.26478101       0.18721675      -0.23828096
P        7.51088369       8.12382009       5.00930541       0.00000000 NULL       0.17364625      -0.25113663      -0.26213410
P        0.74969661       1.37070324       6.98326198       0.00000000 NULL       0.22032953      -0.24327980       0.41437386
P        1.40671521       7.00781898       0.34415940       0.00000000 NULL      -0.23187652       0.42503407       0.21216782
P        7.06976370       0.39419993       1.03434415       0.00000000 NULL       0.41281876       0.19979558      -0.26286548
P        3.61378206       7.38857467       5.05531974       0.00000000 NULL      -0.01264658      -0.20990419      -0.02448078
P        7.56117285       5.20469840       2.99106903       0.00000000 NULL      -0.21027473      -0.02455143      -0.00088485
P        5.57883726       3.33709411       7.13772316       0.00000000 NULL      -0.03510863      -0.01089251      -0.20848922
P        5.87360402       7.18264213       1.93892634       0.00000000 NULL       0.02461926      -0.40553939       0.31964088
P        7.46929451       2.20058561       5.40518918       0.00000000 NULL      -0.40378522       0.32143111       0.02963331
P        2.57390900       5.75129140       7.08142974       0.00000000 NULL       0.30069081       0.00949007      -0.42039693
P        1.40352409       5.29003022       4.04592734       0.00000000 NULL       0.34496258      -0.08730702       0.07647301
P        5.35399346       4.09570554       0.94009460       0.00000000 NULL      -0.06982573       0.09311264       0.34485391
P        4.36010913       1.18547543       5.08998271       0.00000000 NULL       0.08947845       0.34088936      -0.09087281
P        4.03309847       2.38663171       1.30001640       0.00000000 NULL      -0.00722424      -0.02273098      -0.07892364
P        2.58669000       1.48586477       3.84098653       0.00000000 NULL      -0.02306592      -0.07912392      -0.00227982
P        1.61423214       3.95683375       2.32156371       0.00000000 NULL      -0.08018502      -0.00319058      -0.01892118
24
Lattice="8.008703685717034 0.09311539833500097 0.08875342381701674 0.4962741997994955 7.9938549600075985 0.08875342381701973 0.4962741997994981 0.4718830310215396 7.980408554510935" Properties=species:S:1:pos:R:3:initial_magmoms:R:1:castep_labels:S:1:forces:R:3 n_minim_iter=7 energy=-122.32997479862377 stress="-0.0012482608372891251 -0.0013233017295119574 -0.0012613118932610456 -0.0013233017295119574 -0.0011148222979827632 -0.0011993202255525485 -0.0012613118932610456 -0.0011993202255525485 -0.0009996972054069856" free_energy=-122.32997479862377 pbc="T T T"
P        3.51624680       2.77246632       7.36952580       0.00000000 NULL       0.06596144      -0.11918682      -0.16055779
P        2.94600916       7.52271706       3.01500075       0.00000000 NULL      -0.11571414      -0.15692723       0.07949401
P        7.66151947       3.13442863       2.41597766       0.00000000 NULL      -0.16255492       0.07424105      -0.11135251
P        1.24588063       3.61291560       5.52906786       0.00000000 NULL      -0.00624235      -0.01295333      -0.18145432
P        3.67106834       5.57364138       0.79608296       0.00000000 NULL      -0.01325123      -0.18151330       0.00312332
P        5.75142664       0.95748318       3.34369356       0.00000000 NULL      -0.18195029       0.00292344      -0.00423937
P        8.50599545       5.30439334       6.86675337       0.00000000 NULL      -0.27395239      -0.22269885       0.22860113
P        5.72598211       7.25331952       7.88944447       0.00000000 NULL      -0.23621116       0.21575906      -0.27304850
P        7.53244877       8.13702296       4.96909672       0.00000000 NULL       0.20359097      -0.28456518      -0.23340211
P        0.74143825       1.33970162       7.02116595       0.00000000 NULL       0.22151765      -0.03903767       0.08394835
P        1.37533706       7.04535879       0.33566314       0.00000000 NULL      -0.02783366       0.09455232       0.21892117
P        7.10567586       0.38412043       1.00156102       0.00000000 NULL       0.09303080       0.21710852      -0.04301733
P        3.62300283       7.38188769       5.06079545       0.00000000 NULL       0.00243841      -0.10105839      -0.07412586
P        7.55495866       5.21062544       3.00034133       0.00000000 NULL      -0.10080740      -0.07367991       0.01106910
P        5.58444387       3.34604391       7.13078136       0.00000000 NULL      -0.07866258       0.00640758      -0.09738854
P        5.89606407       7.16188087       1.92311417       0.00000000 NULL       0.09231237      -0.16913341       0.35530731
P        7.44969056       2.18591712       5.42939722       0.00000000 NULL      -0.16427047       0.35972698       0.08356243
P        2.55827197       5.77456839       7.06145040       0.00000000 NULL       0.35099881       0.07473269      -0.18597264
P        1.41036348       5.27065557       4.03163461       0.00000000 NULL       0.27669173      -0.02783173       0.16379201
P        5.33498778       4.08180348       0.94857714       0.00000000 NULL      -0.01386365       0.17691885       0.26957051
P        4.34526768       1.19307179       5.07131555       0.00000000 NULL       0.17599631       0.26816967      -0.03565204
P        4.05217086       2.36070694       1.28237390       0.00000000 NULL      -0.05257122      -0.08015603       0.03461727
P        2.56175851       1.46921833       3.86216256       0.00000000 NULL      -0.08270156       0.03225386      -0.05007214
P        1.59635139       3.97683190       2.29651455       0.00000000 NULL       0.02804852      -0.05405217      -0.08172344
24
Lattice="7.963975835918102 -0.01007422290277039 -0.009602297696241057 0.3909632225066622 7.95437994841218 -0.009602297696240275 0.3909632225066627 0.3717479379926046 7.9456941822864735" Properties=species:S:1:pos:R:3:initial_magmoms:R:1:castep_labels:S:1:forces:R:3 n_minim_iter=8 energy=-122.66152208258833 stress="0.004140946327612347 -0.00036722645677004926 -0.00035002379236779435 -0.00036722645677004926 0.004177976563626936 -0.00033282062886649106 -0.00035002379236779435 -0.00033282062886649106 0.0042099246696982" free_energy=-122.66152208258833 pbc="T T T"
P        3.41298163       2.60369276       7.21567319       0.00000000 NULL       0.15638374      -0.28342678      -0.05162045
P        2.77224981       7.36450445       2.92784977       0.00000000 NULL      -0.27519254      -0.04338924       0.17273599
P        7.49475795       3.03944021       2.25477397       0.00000000 NULL      -0.05719147       0.15946591      -0.28062616
P        1.13375282       3.48619531       5.41009495       0.00000000 NULL      -0.54913165      -0.17715298       0.17543002
P        3.53886263       5.44974250       0.69630346       0.00000000 NULL      -0.20457968       0.14936356      -0.54730441
P        5.62102774       0.85178750       3.22282264       0.00000000 NULL       0.13887250      -0.55683095      -0.18535954
P        8.31352120       4.95660851       6.83044291       0.00000000 NULL       0.53569074      -0.33996976      -0.05588741
P        5.36894647       7.20867472       7.71666868       0.00000000 NULL      -0.31256386      -0.02935360       0.55417472
P        7.46988213       7.94745875       4.62345253       0.00000000 NULL      -0.04505546       0.53864283      -0.33689957
P        0.70728388       1.21652190       6.97327147       0.00000000 NULL       0.09254558      -0.04508874       0.07051452
P        1.25059377       6.99618144       0.31008299       0.00000000 NULL      -0.04037142       0.07497337       0.09120920
P        7.05027946       0.35271570       0.88081903       0.00000000 NULL       0.07284536       0.08899036      -0.04841742
P        3.53735222       7.22726099       4.93798183       0.00000000 NULL       0.15988821      -0.11340203      -0.03400384
P        7.39621520       5.08422536       2.92856277       0.00000000 NULL      -0.10520702      -0.02603554       0.16683571
P        5.45021064       3.26705239       6.98222023       0.00000000 NULL      -0.03130019       0.16166942      -0.11164146
P        5.85457079       6.94139605       1.78939946       0.00000000 NULL      -0.08788029       0.19830619      -0.07814083
P        7.22739606       2.05090173       5.40550433       0.00000000 NULL       0.19362942      -0.08273741      -0.09389595
P        2.41223425       5.74038545       6.84762948       0.00000000 NULL      -0.07288227      -0.08431728       0.20182431
P        1.36405782       5.12754525       3.92621269       0.00000000 NULL       0.39899137       0.21360696      -0.07871859
P        5.18972730       3.97463114       0.91463542       0.00000000 NULL       0.23342712      -0.06004004       0.39105707
P        4.23091673       1.15247275       4.93342379       0.00000000 NULL      -0.04820969       0.40192885       0.21713518
P        4.00437991       2.17821518       1.20848004       0.00000000 NULL      -0.11981701       0.13904515      -0.16675404
P        2.37709176       1.39356174       3.82720842       0.00000000 NULL       0.13283539      -0.17263480      -0.11852664
P        1.51149192       3.93325876       2.11777515       0.00000000 NULL      -0.16572689      -0.11161346       0.14687959
24
Lattice="7.924823871629797 -0.0879766423731949 -0.08385539197775725 0.31118814018149765 7.9192004159111375 -0.08385539197775696 0.31118814018149765 0.29589368713128494 7.914114851330299" Properties=species:S:1:pos:R:3:initial_magmoms:R:1:castep_labels:S:1:forces:R:3 n_minim_iter=9 energy=-122.9015693226369 stress="0.00747317902854675 -0.001633990590938558 -0.0015574465885194323 -0.001633990590938558 0.0076379466781919675 -0.0014809003283347312 -0.0015574465885194323 -0.0014809003283347312 0.0077801011955725835" free_energy=-122.9015693226369 pbc="T T T"
P        3.33697122       2.45972800       7.09476832       0.00000000 NULL       0.22346708      -0.35491349      -0.12866377
P        2.62464019       7.24044677       2.86506034       0.00000000 NULL      -0.34321059      -0.11695946       0.24694627
P        7.36342479       2.96995491       2.11677101       0.00000000 NULL      -0.13409339       0.23051176      -0.34833716
P        1.01829477       3.37618085       5.33327438       0.00000000 NULL      -0.58963458      -0.17559895       0.19695464