42
Lattice="9.017339999999999 1.1653144697156338e-15 0.0 -4.5086699999999995 7.809245514561567 0.0 0.0 0.0 12.99616" Properties=species:S:1:pos:R:3:initial_magmoms:R:1:castep_labels:S:1 n_minim_iter=1 pbc="T T T"
P        1.22542224       4.59793538       3.06945776       0.00000000 NULL
P       -1.13945227       4.44903103       7.40151109       0.00000000 NULL
P       -0.08596997       6.57152461      11.73356443       0.00000000 NULL
P        0.40084736       3.56600216       4.95425576       0.00000000 NULL
P       -1.62084522       5.67910043       9.28630909       0.00000000 NULL
P        1.21999785       6.37338843       0.62220243       0.00000000 NULL
P        1.73632038       5.91277024       6.04279073       0.00000000 NULL
P       -0.25622095       3.34916283      10.37484406       0.00000000 NULL
P       -1.48009943       6.35655795       1.71073740       0.00000000 NULL
P        5.12559447       5.57097128       6.08044320       0.00000000 NULL
P        6.77047542       0.58486485      10.41249653       0.00000000 NULL
P        1.62994011       1.65340938       1.74838987       0.00000000 NULL
P        3.33677334       0.42861434      11.45840496       0.00000000 NULL
P        3.21147424       4.70520786       2.79429829       0.00000000 NULL
P        6.97776242       2.67542330       7.12635163       0.00000000 NULL
P        1.55986817       3.65587642      12.77847562       0.00000000 NULL
P       -2.12252223       4.63042184       4.11436895       0.00000000 NULL
P        0.56265406       7.33219276       8.44642229       0.00000000 NULL
P        2.27383590       2.84771635       8.46577270       0.00000000 NULL
P        5.83794675       4.41618768      12.79782603       0.00000000 NULL
P        5.41422734       0.54534147       4.13371937       0.00000000 NULL
P        1.69419858       0.93035915      10.41392438       0.00000000 NULL
P        4.46728537       5.87684692       1.74981771       0.00000000 NULL
P        7.36452605       1.00203943       6.08187105       0.00000000 NULL
P       -0.43386210       7.58565744       0.44248676       0.00000000 NULL
P        2.27763310       4.39215239       4.77454009       0.00000000 NULL
P       -1.84377100       3.64068119       9.10659343       0.00000000 NULL
P        3.92557633       7.74873792       8.85786555       0.00000000 NULL
P        0.23914572       0.53522772       0.19375888       0.00000000 NULL
P       -4.16472206       7.33452538       4.52581222       0.00000000 NULL
P        2.23046745       7.36309317       7.34215850       0.00000000 NULL
P        0.75272201       2.19605745      11.67421183       0.00000000 NULL
P       -2.98318947       6.05934040       3.01010517       0.00000000 NULL
P        2.89067426       6.47682892      10.81757601       0.00000000 NULL
P       -0.34490875       2.06743370       2.15346934       0.00000000 NULL
P       -2.54576552       7.07422839       6.48552268       0.00000000 NULL
P        4.50218969       1.12233149       9.60009964       0.00000000 NULL
P        3.22954274       3.34906912       0.93599297       0.00000000 NULL
P        5.79427757       3.33784489       5.26804631       0.00000000 NULL
P       -1.99093174       4.34152896       2.05470069       0.00000000 NULL
P        0.24667024       7.36267849       6.38675402       0.00000000 NULL
P        1.74426149       3.91428357      10.71880736       0.00000000 NULL
42
Lattice="9.060107114478663 -6.180277142360935e-16 0.0 -4.53005355723933 7.846282922146648 0.0 0.0 0.0 13.062940927593877" Properties=species:S:1:pos:R:3:initial_magmoms:R:1:castep_labels:S:1 n_minim_iter=2 pbc="T T T"
P        1.23070098       4.61982367       3.08501937       0.00000000 NULL
P       -1.14451938       4.47055276       7.43933301       0.00000000 NULL
P       -0.08618160       6.60218939      11.79364665       0.00000000 NULL
P        0.40261474       3.58285942       4.97971029       0.00000000 NULL
P       -1.62851365       5.70617862       9.33402394       0.00000000 NULL
P        1.22589891       6.40352780       0.62539665       0.00000000 NULL
P        1.74446383       5.94069905       6.07387024       0.00000000 NULL
P       -0.25748918       3.36518340      10.42818388       0.00000000 NULL
P       -1.48697466       6.38668339       1.71955659       0.00000000 NULL
P        5.14976288       5.59733861       6.11165662       0.00000000 NULL
P        6.80260955       0.58778813      10.46597026       0.00000000 NULL
P        1.63778824       1.66115617       1.75734297       0.00000000 NULL
P        3.35266561       0.43089679      11.51727626       0.00000000 NULL
P        3.22688832       4.72734093       2.80864898       0.00000000 NULL
P        7.01060674       2.68804519       7.16296262       0.00000000 NULL
P        1.56713955       3.67356714      12.84440086       0.00000000 NULL
P       -2.13222087       4.65231668       4.13577357       0.00000000 NULL
P        0.56508131       7.36668201       8.49008721       0.00000000 NULL
P        2.28461493       2.86119380       8.50939358       0.00000000 NULL
P        5.86561261       4.43715145      12.86370723       0.00000000 NULL
P        5.43993313       0.54793766       4.15507994       0.00000000 NULL
P        1.70209973       0.93460201      10.46700601       0.00000000 NULL
P        4.48839277       5.90492030       1.75837873       0.00000000 NULL
P        7.39966816       1.00676060       6.11269237       0.00000000 NULL
P       -0.43600011       7.62201003       0.44495907       0.00000000 NULL
P        2.28880081       4.41286507       4.79927271       0.00000000 NULL
P       -1.85280071       3.65769073       9.15358635       0.00000000 NULL
P        3.94411684       7.78542917       8.90355848       0.00000000 NULL
P        0.24026747       0.53786295       0.19493120       0.00000000 NULL
P       -4.18438431       7.36927371       4.54924484       0.00000000 NULL
P        2.24148102       7.39805855       7.38019310       0.00000000 NULL
P        0.75611257       2.20607413      11.73450674       0.00000000 NULL
P       -2.99759360       6.08843315       3.02587946       0.00000000 NULL
P        2.90446622       6.50749490      10.87307178       0.00000000 NULL
P       -0.34663077       2.07719394       2.16444449       0.00000000 NULL
P       -2.55783546       7.10787700       6.51875813       0.00000000 NULL
P        4.52360033       1.12786833       9.64946565       0.00000000 NULL
P        3.24501602       3.36479595       0.94083836       0.00000000 NULL
P        5.82154432       3.35361863       5.29515201       0.00000000 NULL
P       -2.00024194       4.36176266       2.06490369       0.00000000 NULL
P        0.24746469       7.39766192       6.41921733       0.00000000 NULL
P        1.75277725       3.93314125      10.77353097       0.00000000 NULL
42
Lattice="9.357273979086433 1.3593660649744273e-15 0.0 -4.678636989543216 8.103636976059944 0.0 0.0 0.0 13.531103791968459" Properties=species:S:1:pos:R:3:initial_magmoms:R:1:castep_labels:S:1 n_minim_iter=3 pbc="T T T"
P        1.26698456       4.77197785       3.19401457       0.00000000 NULL
P       -1.17947522       4.62040723       7.70438250       0.00000000 NULL
P       -0.08750934       6.81488886      12.21475043       0.00000000 NULL
P        0.41484717       3.70002233       5.15809081       0.00000000 NULL
P       -1.68174724       5.89435762       9.66845874       0.00000000 NULL
P        1.26690007       6.61289399       0.64772288       0.00000000 NULL
P        1.80088225       6.13474741       6.29183836       0.00000000 NULL
P       -0.26623101       3.47665349      10.80220629       0.00000000 NULL
P       -1.53465124       6.59587304       1.78147043       0.00000000 NULL
P        5.31760960       5.78059658       6.33040714       0.00000000 NULL
P        7.02597568       0.60815368      10.84077507       0.00000000 NULL
P        1.69232569       1.71488671       1.82003921       0.00000000 NULL
P        3.46316334       0.44694931      11.92992061       0.00000000 NULL
P        3.33412477       4.88097488       2.90918475       0.00000000 NULL
P        7.23862285       2.77571278       7.41955268       0.00000000 NULL
P        1.61757932       3.79679097      13.30672084       0.00000000 NULL
P       -2.19930922       4.80437669       4.28598498       0.00000000 NULL
P        0.58172989       7.60610627       8.79635291       0.00000000 NULL
P        2.35947403       2.95481565       8.81535978       0.00000000 NULL
P        6.05784539       4.58286469      13.32572771       0.00000000 NULL
P        5.61859154       0.56595662       4.30499185       0.00000000 NULL
P        1.75690799       0.96395020      10.83881257       0.00000000 NULL
P        4.63498836       6.10013492       1.81807670       0.00000000 NULL
P        7.64401461       1.03955184       6.32844464       0.00000000 NULL
P       -0.45092501       7.87484321       0.46243982       0.00000000 NULL
P        2.36663978       4.55672788       4.97280775       0.00000000 NULL
P       -1.91571478       3.77570285       9.48317568       0.00000000 NULL
P        4.07279845       8.04031271       9.22413623       0.00000000 NULL
P        0.24807884       0.55633369       0.20340037       0.00000000 NULL
P       -4.32087730       7.61062754       4.71376830       0.00000000 NULL
P        2.31835159       7.64108148       7.64707847       0.00000000 NULL
P        0.77955789       2.27534486      12.15744640       0.00000000 NULL
P       -3.09790949       6.29084760       3.13671054       0.00000000 NULL
P        3.00033078       6.72062950      11.26197650       0.00000000 NULL
P       -0.35856650       2.14495954       2.24124064       0.00000000 NULL
P       -2.64176428       7.34168489       6.75160857       0.00000000 NULL
P        4.67245328       1.16643151       9.99552926       0.00000000 NULL
P        3.35256967       3.47395797       0.97479340       0.00000000 NULL
P        6.01088801       3.46324748       5.48516133       0.00000000 NULL
P       -2.06479384       4.50212498       2.13615485       0.00000000 NULL
P        0.25271453       7.64073840       6.64652279       0.00000000 NULL
P        1.81207930       4.06441056      11.15689072       0.00000000 NULL
42
Lattice="9.410010013599033 4.837124100653792e-16 1.2173250675060565e-61 -4.7050050067995155 8.149307721642709 2.1089418688713188e-45 -2.436280586390682e-61 2.556836953166535e-45 13.592267084984082" Properties=species:S:1:pos:R:3:initial_magmoms:R:1:castep_labels:S:1 n_minim_iter=4 pbc="T T T"
P        1.27110070       4.79938361       3.20770266       0.00000000 NULL
P       -1.18416723       4.64881041       7.73845835       0.00000000 NULL
P       -0.08693348       6.85042141      12.26921405       0.00000000 NULL
P        0.41689768       3.72116033       5.18087384       0.00000000 NULL
P       -1.69083447       5.92768356       9.71162953       0.00000000 NULL
P        1.27393678       6.64977153       0.65011814       0.00000000 NULL
P        1.80969496       6.16926177       6.32100527       0.00000000 NULL
P       -0.26711507       3.49743502      10.85176097       0.00000000 NULL
P       -1.54257990       6.63191864       1.79024958       0.00000000 NULL
P        5.34697010       5.81353265       6.35842181       0.00000000 NULL
P        7.06618692       0.61192945      10.88917750       0.00000000 NULL
P        1.70185799       1.72384561       1.82766611       0.00000000 NULL
P        3.48332400       0.45102899      11.98331185       0.00000000 NULL
P        3.35394557       4.90714614       2.92180046       0.00000000 NULL
P        7.27774544       2.79113257       7.45255616       0.00000000 NULL
P        1.62613144       3.82050727      13.36823613       0.00000000 NULL
P       -2.20941437       4.83078294       4.30672474       0.00000000 NULL
P        0.58328293       7.64732522       8.83748043       0.00000000 NULL
P        2.37246902       2.97110387       8.85656356       0.00000000 NULL
P        6.09182193       4.60913734      13.38731925       0.00000000 NULL
P        5.65072407       0.56906650       4.32580786       0.00000000 NULL
P        1.76609054       0.96835951      10.88520853       0.00000000 NULL
P        4.66058367       6.13564869       1.82369715       0.00000000 NULL
P        7.68834080       1.04529951       6.35445284       0.00000000 NULL
P       -0.45380574       7.92115113       0.46556586       0.00000000 NULL
P        2.38181597       4.58173944       4.99632156       0.00000000 NULL
P       -1.92801024       3.79572485       9.52707725       0.00000000 NULL
P        4.09448224       8.08516950       9.26792482       0.00000000 NULL
P        0.24971606       0.56079733       0.20641343       0.00000000 NULL
P       -4.34419830       7.65264860       4.73716912       0.00000000 NULL
P        2.33423178       7.68482310       7.68365642       0.00000000 NULL
P        0.78313113       2.28539214      12.21441212       0.00000000 NULL
P       -3.11736292       6.32840019       3.15290073       0.00000000 NULL
P        3.01756440       6.75888219      11.31173895       0.00000000 NULL
P       -0.36042353       2.15657919       2.25022756       0.00000000 NULL
P       -2.65714088       7.38315405       6.78098325       0.00000000 NULL
P        4.69946996       1.17361364      10.04054859       0.00000000 NULL
P        3.37164925       3.49264052       0.97903720       0.00000000 NULL
P        6.04389580       3.48305355       5.50979290       0.00000000 NULL
P       -2.07538962       4.52562769       2.14354083       0.00000000 NULL
P        0.25199835       7.68383400       6.67429652       0.00000000 NULL
P        1.82339126       4.08915374      11.20505222       0.00000000 NULL
42
Lattice="9.417281662391023 1.7070267985954014e-16 -7.65246335302855e-48 -4.708640831195511 8.155605154223972 2.8718267743396987e-46 -1.105358289758499e-47 5.592127126413915e-45 13.571734098738416" Properties=species:S:1:pos:R:3:initial_magmoms:R:1:castep_labels:S:1 n_minim_iter=5 pbc="T T T"
P        1.26907334       4.80362347       3.20223622       0.00000000 NULL
P       -1.18311754       4.65474366       7.72614759       0.00000000 NULL
P       -0.08595580       6.85284317      12.25005895       0.00000000 NULL
P        0.41707413       3.72445762       5.17239750       0.00000000 NULL
P       -1.69170298       5.93217954       9.69630887       0.00000000 NULL
P        1.27462884       6.65457313       0.64848614       0.00000000 NULL
P        1.80956486       6.17410900       6.31230800       0.00000000 NULL
P       -0.26648802       3.50142151      10.83621936       0.00000000 NULL
P       -1.54307684       6.63567979       1.78839663       0.00000000 NULL
P        5.35053862       5.81853275       6.34812168       0.00000000 NULL
P        7.07236870       0.61263640      10.87203304       0.00000000 NULL
P        1.70301517       1.72443599       1.82421031       0.00000000 NULL
P        3.48675777       0.45297848      11.96454776       0.00000000 NULL
P        3.35755281       4.90949510       2.91672503       0.00000000 NULL
P        7.28161190       2.79313157       7.44063639       0.00000000 NULL
P        1.62684873       3.82586514      13.34939715       0.00000000 NULL
P       -2.20876879       4.83378025       4.30157442       0.00000000 NULL
P        0.58192006       7.65156490       8.82548578       0.00000000 NULL
P        2.37393287       2.97294345       8.84472363       0.00000000 NULL
P        6.09631895       4.61324724      13.36863499       0.00000000 NULL
P        5.65567066       0.56941444       4.32081226       0.00000000 NULL
P        1.76673994       0.96807005      10.86611091       0.00000000 NULL
P        4.66364412       6.14152845       1.81828818       0.00000000 NULL
P        7.69553843       1.04600664       6.34219954       0.00000000 NULL
P       -0.45442765       7.92917274       0.46584560       0.00000000 NULL
P        2.38543802       4.58456466       4.98975696       0.00000000 NULL
P       -1.93101038       3.79747289       9.51366833       0.00000000 NULL
P        4.09615960       8.09093457       9.25629707       0.00000000 NULL
P        0.25023424       0.56275959       0.20847434       0.00000000 NULL
P       -4.34639385       7.65751614       4.73238571       0.00000000 NULL
P        2.33896072       7.69155704       7.67411791       0.00000000 NULL
P        0.78296260       2.28422723      12.19802927       0.00000000 NULL
P       -3.12192332       6.33542603       3.15020654       0.00000000 NULL
P        3.02023216       6.76464095      11.29334450       0.00000000 NULL
P       -0.36040600       2.15768689       2.24552177       0.00000000 NULL
P       -2.65982617       7.38888245       6.76943313       0.00000000 NULL
P        4.70388535       1.17501399      10.02515314       0.00000000 NULL
P        3.37429012       3.49441394       0.97733041       0.00000000 NULL
P        6.04774702       3.48617721       5.50124178       0.00000000 NULL
P       -2.07588522       4.52727238       2.13794761       0.00000000 NULL
P        0.25003467       7.68973829       6.66185898       0.00000000 NULL
P        1.82585054       4.09419962      11.18577034       0.00000000 NULL
42
Lattice="9.423361447110594 3.0627725668179605e-16 -4.2571512694468716e-47 -4.711680723555296 8.160870402240663 -1.456570031940712e-45 -6.146001102303263e-47 6.082815815812562e-45 13.478656200498564" Properties=species:S:1:pos:R:3:initial_magmoms:R:1:castep_labels:S:1 n_minim_iter=6 pbc="T T T"
P        1.25916786       4.80866801       3.17811841       0.00000000 NULL
P       -1.17683600       4.66606503       7.67100381       0.00000000 NULL
P       -0.08233187       6.84700775      12.16388921       0.00000000 NULL
P        0.41690756       3.72845060       5.13451420       0.00000000 NULL
P       -1.69120157       5.93559256       9.62739960       0.00000000 NULL
P        1.27429400       6.65769764       0.64162880       0.00000000 NULL
P        1.80510600       6.17848117       6.27214873       0.00000000 NULL
P       -0.26351207       3.50836215      10.76503413       0.00000000 NULL
P       -1.54159394       6.63489746       1.77926333       0.00000000 NULL
P        5.35192319       5.82416000       6.30215493       0.00000000 NULL
P        7.07958965       0.61388895      10.79504033       0.00000000 NULL
P        1.70352933       1.72282143       1.80926953       0.00000000 NULL
P        3.49180965       0.45895228      11.88004025       0.00000000 NULL
P        3.36324023       4.90739839       2.89426945       0.00000000 NULL
P        7.27999228       2.79451972       7.38715485       0.00000000 NULL
P        1.62587128       3.83702253      13.26266846       0.00000000 NULL
P       -2.20165738       4.83431330       4.27689766       0.00000000 NULL
P        0.57578609       7.65040496       8.76978306       0.00000000 NULL
P        2.37406232       2.97315711       8.78972958       0.00000000 NULL
P        6.09947915       4.61829356      13.28261498       0.00000000 NULL
P        5.66150069       0.56941972       4.29684418       0.00000000 NULL
P        1.76529432       0.96498114      10.78206893       0.00000000 NULL
P        4.66473174       6.14959010       1.79629813       0.00000000 NULL
P        7.70501610       1.04629916       6.28918353       0.00000000 NULL
P       -0.45563828       7.94115314       0.46614578       0.00000000 NULL
P        2.39337877       4.58488815       4.95903119       0.00000000 NULL
P       -1.93774050       3.79569950       9.45191659       0.00000000 NULL
P        4.09338289       8.09436997       9.20141070       0.00000000 NULL
P        0.25155786       0.56871183       0.21563990       0.00000000 NULL
P       -4.34494076       7.65865898       4.70852530       0.00000000 NULL
P        2.35097949       7.69942718       7.62889378       0.00000000 NULL
P        0.78072907       2.27514885      12.12177918       0.00000000 NULL
P       -3.13170856       6.34716477       3.13600838       0.00000000 NULL
P        3.02341390       6.77101988      11.21110206       0.00000000 NULL
P       -0.35951245       2.15700721       2.22533126       0.00000000 NULL
P       -2.66390146       7.39371371       6.71821666       0.00000000 NULL
P        4.70979728       1.17757500       9.95558981       0.00000000 NULL
P        3.37659195       3.49327880       0.96981900       0.00000000 NULL
P        6.04865293       3.49001658       5.46270440       0.00000000 NULL
P       -2.07318606       4.52352617       2.11473359       0.00000000 NULL
P        0.24240088       7.69453910       6.60761899       0.00000000 NULL
P        1.83078517       4.10367552      11.10050439       0.00000000 NULL
42
Lattice="9.391860654883493 1.0690072679747261e-15 -1.4113209865278411e-46 -4.695930327441746 8.133589915932657 -3.6220385137205074e-45 -2.040673103311636e-46 7.359938474872921e-45 13.07200134454485" Properties=species:S:1:pos:R:3:initial_magmoms:R:1:castep_labels:S:1 n_minim_iter=7 pbc="T T T"
P        1.18519880       4.80628951       3.06876688       0.00000000 NULL
P       -1.12616091       4.70403288       7.42610066       0.00000000 NULL
P       -0.05903790       6.75685742      11.78343444       0.00000000 NULL
P        0.41333866       3.72721979       4.96269027       0.00000000 NULL
P       -1.67473263       5.91201824       9.32002405       0.00000000 NULL
P        1.26139397       6.62794180       0.60535649       0.00000000 NULL
P        1.75979122       6.16162172       6.10462099       0.00000000 NULL
P       -0.23970499       3.52875515      10.46195477       0.00000000 NULL
P       -1.52008623       6.57680295       1.74728721       0.00000000 NULL
P        5.31833006       5.81678656       6.09833131       0.00000000 NULL
P        7.07425023       0.61938769      10.45566509       0.00000000 NULL
P        1.69521069       1.69741565       1.74099753       0.00000000 NULL
P        3.50141180       0.49344478      11.50434157       0.00000000 NULL
P        3.37256015       4.85455595       2.78967400       0.00000000 NULL
P        7.21381903       2.78558917       7.14700779       0.00000000 NULL
P        1.60421426       3.88285801      12.89351661       0.00000000 NULL
P       -2.13538378       4.80287060       4.17884905       0.00000000 NULL
P        0.53116951       7.58145121       8.53618283       0.00000000 NULL
P        2.35538472       2.95090167       8.56446263       0.00000000 NULL
P        6.07379378       4.61831607      12.92179641       0.00000000 NULL
P        5.65861248       0.56437217       4.20712885       0.00000000 NULL
P        1.74162568       0.93742822      10.39364107       0.00000000 NULL
P        4.63695414       6.15658371       1.67897351       0.00000000 NULL
P        7.70921115       1.03957797       6.03630729       0.00000000 NULL
P       -0.45951364       7.96162424       0.47489048       0.00000000 NULL
P        2.42879534       4.55072828       4.83222426       0.00000000 NULL
P       -1.96928170       3.75482731       9.18955804       0.00000000 NULL
P        4.04353872       8.05416368       8.98077377       0.00000000 NULL
P        0.25741067       0.60470081       0.26610620       0.00000000 NULL
P       -4.30094940       7.60831532       4.62343999       0.00000000 NULL
P        2.41243977       7.69315679       7.44727644       0.00000000 NULL
P        0.76031901       2.19777738      11.80461022       0.00000000 NULL
P       -3.17275878       6.37624564       3.08994266       0.00000000 NULL
P        3.02207396       6.76237938      10.83976571       0.00000000 NULL
P       -0.35057498       2.13520740       2.12509815       0.00000000 NULL
P       -2.67149899       7.36959304       6.48243193       0.00000000 NULL
P        4.71397180       1.18765538       9.65057333       0.00000000 NULL
P        3.36748416       3.45734288       0.93590577       0.00000000 NULL
P        6.00633502       3.48859164       5.29323955       0.00000000 NULL
P       -2.03831732       4.46297022       1.99220818       0.00000000 NULL
P        0.18827392       7.66733938       6.34954196       0.00000000 NULL
P        1.85004340       4.13687022      10.70687574       0.00000000 NULL
42
Lattice="9.264563618933172 7.572660161051052e-16 -2.0617401513315702e-46 -4.632281809466586 8.023347448973217 -2.6984530387652804e-45 -2.9831605881642137e-46 7.355658075101402e-45 12.64034718997239" Properties=species:S:1:pos:R:3:initial_magmoms:R:1:castep_labels:S:1 n_minim_iter=8 pbc="T T T"
P        1.08956976       4.76558833       2.96515579       0.00000000 NULL
P       -1.04994613       4.69695819       7.17860485       0.00000000 NULL
P       -0.03962364       6.58414837      11.39205392       0.00000000 NULL
P        0.40520879       3.69599164       4.76557354       0.00000000 NULL
P       -1.63406355       5.82443052       8.97902261       0.00000000 NULL
P        1.22885476       6.52627273       0.55212448       0.00000000 NULL
P        1.67134718       6.09211608       5.94677916       0.00000000 NULL
P       -0.19202811       3.52986028      10.16022822       0.00000000 NULL
P       -1.47931908       6.42471852       1.73333010       0.00000000 NULL
P        5.19387169       5.73508130       5.90549711       0.00000000 NULL
P        7.00207206       0.65778196      10.11894617       0.00000000 NULL
P        1.70090167       1.63048418       1.69204805       0.00000000 NULL
P        3.50855891       0.52422736      11.08225880       0.00000000 NULL
P        3.33199656       4.72273261       2.65536067       0.00000000 NULL
P        7.05628995       2.77638747       6.86880974       0.00000000 NULL
P        1.53043251       3.92531276      12.49713785       0.00000000 NULL
P       -1.99807750       4.73529763       4.07023973       0.00000000 NULL
P        0.46764499       7.38608449       8.28368879       0.00000000 NULL
P        2.29356565       2.87998434       8.37868161       0.00000000 NULL
P        5.97963858       4.59706916      12.59213068       0.00000000 NULL
P        5.62364119       0.54629394       4.16523255       0.00000000 NULL
P        1.68796421       0.89834949       9.94101836       0.00000000 NULL
P        4.56629319       6.11235281       1.51412023       0.00000000 NULL
P        7.64258803       1.01264513       5.72756929       0.00000000 NULL
P       -0.45580866       7.92897175       0.48653917       0.00000000 NULL
P        2.46231349       4.45360344       4.69998823       0.00000000 NULL
P       -2.00650483       3.66411969       8.91343730       0.00000000 NULL
P        3.95418136       7.91609182       8.77799265       0.00000000 NULL
P        0.24616413       0.64088002       0.35109452       0.00000000 NULL
P       -4.20034549       7.48972304       4.56454359       0.00000000 NULL
P        2.46617073       7.60779897       7.26863745       0.00000000 NULL
P        0.72318000       2.08368145      11.48208651       0.00000000 NULL
P       -3.18935074       6.35521446       3.05518839       0.00000000 NULL
P        3.00009591       6.68163970      10.41810073       0.00000000 NULL
P       -0.34586004       2.08436832       1.99120261       0.00000000 NULL
P       -2.65423587       7.28068686       6.20465167       0.00000000 NULL
P        4.69043668       1.21595987       9.32857391       0.00000000 NULL
P        3.34011561       3.35333019       0.90167578       0.00000000 NULL
P        5.86629313       3.45405738       5.11512484       0.00000000 NULL
P       -1.95957787       4.31573893       1.81351891       0.00000000 NULL
P        0.08504668       7.56252220       6.02696797       0.00000000 NULL
P        1.87453119       4.16843376      10.24041703       0.00000000 NULL
42
Lattice="10.349216794820592 3.520054353215325e-16 3.261687140423647e-46 -5.174608397410295 8.962684653587194 -1.8478959469827917e-45 4.3557244264620905e-46 1.0439488865140863e-44 14.55004104992461" Properties=species:S:1:pos:R:3:initial_magmoms:R:1:castep_labels:S:1 n_minim_iter=9 pbc="T T T"
P        1.20696424       5.33481963       3.41339746       0.00000000 NULL
P       -1.15800119       5.25001314       8.26341115       0.00000000 NULL
P       -0.04896305       7.34053652      13.11342483       0.00000000 NULL
P        0.44682240       4.12131353       5.48016848       0.00000000 NULL
P       -1.82885739       6.51506833      10.33018217       0.00000000 NULL
P        1.38203498       7.28898744       0.63015480       0.00000000 NULL
P        1.85615565       6.80111798       6.85644417       0.00000000 NULL
P       -0.21274528       3.95464771      11.70645785       0.00000000 NULL
P       -1.64341038       7.16960361       2.00643048       0.00000000 NULL
P        5.77353517       6.38456302       6.82558920       0.00000000 NULL
P        7.81703458       0.77037500      11.67560288       0.00000000 NULL
P        1.93325543       1.80774661       1.97557551       0.00000000 NULL
P        3.93453967       0.59070065      12.73699686       0.00000000 NULL
P        3.71890033       5.25992301       3.03696949       0.00000000 NULL
P        7.87038519       3.11206098       7.88698318       0.00000000 NULL
P        1.69881420       4.40674415      14.38347553       0.00000000 NULL
P       -2.20766312       5.28809632       4.68344817       0.00000000 NULL
P        0.50884891       8.23052883       9.53346185       0.00000000 NULL
P        2.54906144       3.19665249       9.69115154       0.00000000 NULL
P        6.66845995       5.15680644      14.54116523       0.00000000 NULL
P        6.30630380       0.60922571       4.84113786       0.00000000 NULL
P        1.88168124       1.00735500      11.41007225       0.00000000 NULL
P        5.10616280       6.82942339       1.71004488       0.00000000 NULL
P        8.53598115       1.12590625       6.56005857       0.00000000 NULL
P       -0.50918727       8.88006338       0.56864540       0.00000000 NULL
P        2.77034571       4.96362206       5.41865908       0.00000000 NULL