40
Lattice="8.140147164945116 1.8034648679473635 -5.938457202804157e-56 0.4699571639336836 8.32427904751828 -5.938457202804157e-56 8.142414952145648e-41 2.209587998214635e-39 11.648843754137973" Properties=species:S:1:pos:R:3:initial_magmoms:R:1:castep_labels:S:1:forces:R:3 n_minim_iter=1 energy=-213.47188723611507 stress="0.00048611282754666403 0.000932063505632598 3.0853477321735993e-12 0.000932063505632598 0.0007900702424594117 4.9520615501045995e-12 3.0853477321735993e-12 4.9520615501045995e-12 -0.0025323913035844546" free_energy=-213.47188723611507 pbc="T T T"
P        6.51887827       2.06354475       1.59254426       0.00000000 NULL       0.10870533      -0.00579773      -0.07631676
P        0.98755926       6.76599715      10.05629950       0.00000000 NULL      -0.02321620       0.10635539       0.07631676
P        4.82265426       3.50559007       1.59254426       0.00000000 NULL      -0.02321620       0.10635539      -0.07631676
P        2.68378327       5.32395184      10.05629950       0.00000000 NULL       0.10870533      -0.00579773       0.07631676
P        5.83788643       4.77816336      -0.03953009       0.00000000 NULL       0.11926602       0.26197790      -0.25694264
P        3.77638727       6.53074745      11.68837385       0.00000000 NULL       0.23936962       0.15987179       0.25694264
P        7.61148227       3.27034036      -0.03953009       0.00000000 NULL       0.23936962       0.15987179      -0.25694264
P        2.00279143       8.03857045      11.68837385       0.00000000 NULL       0.11926602       0.26197790       0.25694264
P        2.71507101       5.35542509       1.90924498       0.00000000 NULL       0.11191043      -0.07449658       0.15001333
P        4.84868212       3.54153501       9.73959877       0.00000000 NULL      -0.09153541       0.09846296      -0.15001333
P        1.01358712       6.80194210       1.90924498       0.00000000 NULL      -0.09153541       0.09846296       0.15001333
P        6.55016601       2.09501800       9.73959877       0.00000000 NULL       0.11191043      -0.07449658      -0.15001333
P        0.83363888       2.76337803      10.01097605       0.00000000 NULL      -0.10051303      -0.48799621      -0.09642363
P        2.59320108       1.26748573       1.63786770       0.00000000 NULL      -0.46545987      -0.17773655       0.09642363
P        6.89825324       6.33135769      10.01097605       0.00000000 NULL      -0.46545987      -0.17773655      -0.09642363
P        5.13869104       7.82724998       1.63786770       0.00000000 NULL      -0.10051303      -0.48799621       0.09642363
P        5.72149285       8.98732919       4.53120347       0.00000000 NULL       0.59010603      -0.70879727      -0.09220267
P        7.94942082       7.09325560       7.11764029       0.00000000 NULL      -0.79452485       0.46834705       0.09220267
P        3.64436866       2.02938364       4.53120347       0.00000000 NULL      -0.79452485       0.46834705      -0.09220267
P        1.41644068       3.92345723       7.11764029       0.00000000 NULL       0.59010603      -0.70879727       0.09220267
P        7.75700458       7.05997358       3.68562530       0.00000000 NULL       0.00919904      -0.19619096       0.03478222
P        5.71961035       8.79206486       7.96321846       0.00000000 NULL      -0.19511415      -0.02249404      -0.03478221
P        1.41455818       3.72819290       3.68562530       0.00000000 NULL      -0.19511415      -0.02249404       0.03478221
P        3.45195242       1.99610162       7.96321846       0.00000000 NULL       0.00919904      -0.19619096      -0.03478221
P        0.75537691       2.50834936       1.66570407       0.00000000 NULL      -0.02574525      -0.17104308       0.05812319
P        2.35409130       1.14920188       9.98313968       0.00000000 NULL      -0.16467045      -0.05293579      -0.05812319
P        6.65914347       6.21307383       1.66570407       0.00000000 NULL      -0.16467045      -0.05293579       0.05812319
P        5.06042908       7.57222132       9.98313968       0.00000000 NULL      -0.02574525      -0.17104308      -0.05812319
P        8.00404084       7.37006728      11.82673750       0.00000000 NULL       0.04379491      -0.00814516      -0.31466460
P        5.98590643       9.08578481      -0.17789374       0.00000000 NULL      -0.01508694       0.04191326       0.31466460
P        1.68085426       4.02191286      11.82673750       0.00000000 NULL      -0.01508694       0.04191326      -0.31466460
P        3.69898868       2.30619532      -0.17789374       0.00000000 NULL       0.04379491      -0.00814516       0.31466460
P        5.68669293       6.66624896       4.73587750       0.00000000 NULL      -0.59118553       0.74120728      -0.61328741
P        5.66419466       6.68537586       6.91296626       0.00000000 NULL       0.82668614      -0.46419671       0.61328741
P        1.35914250       1.62150391       4.73587750       0.00000000 NULL       0.82668614      -0.46419671      -0.61328741
P        1.38164076       1.60237700       6.91296626       0.00000000 NULL      -0.59118553       0.74120728       0.61328741
P        4.41601639       3.12612730       6.29059079       0.00000000 NULL       0.65805338      -0.13590962      -0.48398191
P        2.37470712       4.86154695       5.35825297       0.00000000 NULL      -0.24003922       0.62760406       0.48398191
P        6.67975929       9.92541891       6.29059079       0.00000000 NULL      -0.24003922       0.62760406      -0.48398191
P        8.72106855       8.18999926       5.35825297       0.00000000 NULL       0.65805338      -0.13590962       0.48398191
40
Lattice="8.111929612115077 1.7582920556952826 4.5365496138736524e-42 0.4299142230267653 8.289159592254812 4.132432271689149e-41 6.430941723698294e-41 2.2578514335977047e-39 11.798170234040736" Properties=species:S:1:pos:R:3:initial_magmoms:R:1:castep_labels:S:1:forces:R:3 n_minim_iter=2 energy=-213.5336625958524 stress="0.0012987990078893242 -0.0013721629972305396 -1.6573520336632756e-12 -0.0013721629972305396 0.0008513197086532046 1.1470860623850201e-12 -1.6573520336632756e-12 1.1470860623850201e-12 0.007270112572696224" free_energy=-213.5336625958524 pbc="T T T"
P        6.49408678       2.02487915       1.61246029       0.00000000 NULL       0.05410003       0.01907247      -0.19621930
P        0.95338735       6.73530632      10.18570994       0.00000000 NULL       0.01011751       0.05646422       0.19621930
P        4.79439505       3.46987255       1.61246029       0.00000000 NULL       0.01011751       0.05646422      -0.19621930
P        2.65307909       5.29031292      10.18570994       0.00000000 NULL       0.05410003       0.01907247       0.19621930
P        5.80212467       4.73366435      -0.04171612       0.00000000 NULL       0.13494116       0.24415866      -0.22666746
P        3.73822344       6.48829055      11.83988636       0.00000000 NULL       0.21926002       0.17247495       0.22666746
P        7.57923114       3.22285678      -0.04171612       0.00000000 NULL       0.21926002       0.17247495      -0.22666746
P        1.96111697       7.99909812      11.83988636       0.00000000 NULL       0.13494116       0.24415866       0.22666746
P        2.68416639       5.32107383       1.93470002       0.00000000 NULL       0.05686126      -0.03044767       0.03911509
P        4.81975211       3.50550503       9.86347021       0.00000000 NULL      -0.03920153       0.05122015      -0.03911509
P        0.97874441       6.77093880       1.93470002       0.00000000 NULL      -0.03920153       0.05122015       0.03911509
P        6.52517408       2.05564006       9.86347021       0.00000000 NULL       0.05686126      -0.03044767      -0.03911509
P        0.81806626       2.74541938      10.13867652       0.00000000 NULL      -0.07024530      -0.47610194       0.00970637
P        2.57798262       1.24922599       1.65949372       0.00000000 NULL      -0.45859164      -0.14594919      -0.00970637
P        6.84890454       6.27295182      10.13867652       0.00000000 NULL      -0.45859164      -0.14594919       0.00970637
P        5.08898818       7.76914520       1.65949372       0.00000000 NULL      -0.07024530      -0.47610194      -0.00970637
P        5.66940429       8.92047267       4.58868634       0.00000000 NULL       0.52154415      -0.52796640       0.00732021
P        7.89181839       7.03108670       7.20948390       0.00000000 NULL      -0.60501726       0.42978010      -0.00732021
P        3.62089647       2.00736087       4.58868634       0.00000000 NULL      -0.60501726       0.42978010       0.00732021
P        1.39848237       3.89674685       7.20948390       0.00000000 NULL       0.52154415      -0.52796640      -0.00732022
P        7.70521929       6.99453999       3.73309864       0.00000000 NULL       0.03254532      -0.13983302       0.10446601
P        5.66336348       8.73042428       8.06507160       0.00000000 NULL      -0.14324794       0.00961766      -0.10446601
P        1.39244157       3.70669845       3.73309864       0.00000000 NULL      -0.14324794       0.00961766       0.10446601
P        3.43429738       1.97081416       8.06507160       0.00000000 NULL       0.03254531      -0.13983302      -0.10446601
P        0.74165809       2.49380005       1.68743660       0.00000000 NULL      -0.00019121      -0.17368361      -0.01883874
P        2.34193941       1.13332043      10.11073364       0.00000000 NULL      -0.17138899      -0.02813977       0.01883874
P        6.61286133       6.15704626       1.68743660       0.00000000 NULL      -0.17138899      -0.02813977      -0.01883874
P        5.01258001       7.51752587      10.11073364       0.00000000 NULL      -0.00019121      -0.17368361       0.01883874
P        7.95042290       7.30346041      11.97628785       0.00000000 NULL       0.03720310      -0.01633784      -0.28442717
P        5.92879652       9.02214665      -0.17811762       0.00000000 NULL      -0.02211202       0.03408892       0.28442717
P        1.65787460       3.99842083      11.97628785       0.00000000 NULL      -0.02211202       0.03408892      -0.28442717
P        3.67950099       2.27973459      -0.17811762       0.00000000 NULL       0.03720310      -0.01633784       0.28442717
P        5.63788765       6.61809059       4.79257844       0.00000000 NULL      -0.63969700       0.66288759      -0.34645270
P        5.62451828       6.62945656       7.00559180       0.00000000 NULL       0.75719429      -0.52467993       0.34645270
P        1.35359636       1.60573074       4.79257844       0.00000000 NULL       0.75719429      -0.52467993      -0.34645270
P        1.36696573       1.59436476       7.00559180       0.00000000 NULL      -0.63969700       0.66288759       0.34645270
P        4.39491187       3.09223318       6.36806669       0.00000000 NULL       0.66362671      -0.23395206      -0.44352946
P        2.34465116       4.83526290       5.43010354       0.00000000 NULL      -0.33770067       0.61732669       0.44352946
P        6.61557307       9.85898873       6.36806669       0.00000000 NULL      -0.33770067       0.61732669      -0.44352946
P        8.66583378       8.11595901       5.43010354       0.00000000 NULL       0.66362671      -0.23395206       0.44352946
40
Lattice="8.02904839823661 1.7117991012120175 1.4902401199665248e-41 0.3973654162859934 8.199876527733574 4.472886550997928e-41 7.088707775535185e-41 2.2374390515077388e-39 11.749488134211163" Properties=species:S:1:pos:R:3:initial_magmoms:R:1:castep_labels:S:1:forces:R:3 n_minim_iter=3 energy=-213.6520314967955 stress="-0.008748033241557035 -0.003000694680139533 -2.210531409611616e-12 -0.003000694680139533 -0.009726596820733133 2.8642641039539073e-12 -2.210531409611616e-12 2.8642641039539073e-12 -0.0004247978871042056" free_energy=-213.6520314967955 pbc="T T T"
P        6.42716455       1.98112911       1.60390393       0.00000000 NULL       0.09453483      -0.02070477      -0.05907929
P        0.92097742       6.66221564      10.14558420       0.00000000 NULL      -0.03564847       0.08997060       0.05907929
P        4.73681891       3.41817693       1.60390393       0.00000000 NULL      -0.03564847       0.08997060      -0.05907929
P        2.61132305       5.22516782      10.14558420       0.00000000 NULL       0.09453483      -0.02070477       0.05907929
P        5.73292596       4.66783936      -0.04578667       0.00000000 NULL       0.12575850       0.30415704      -0.24777187
P        3.68439264       6.40940053      11.79527480       0.00000000 NULL       0.27995414       0.17306758       0.24777187
P        7.50023413       3.16536182      -0.04578667       0.00000000 NULL       0.27995414       0.17306758      -0.24777187
P        1.91708447       7.91187807      11.79527480       0.00000000 NULL       0.12575850       0.30415704       0.24777187
P        2.64207122       5.25444525       1.92872912       0.00000000 NULL       0.13462173      -0.03651126       0.10886649
P        4.76076640       3.45323595       9.82075901       0.00000000 NULL      -0.05770015       0.12699124      -0.10886649
P        0.94492491       6.69727466       1.92872912       0.00000000 NULL      -0.05770015       0.12699124       0.10886649
P        6.45791271       2.01040654       9.82075901       0.00000000 NULL       0.13462173      -0.03651126      -0.10886649
P        0.79943129       2.70548416      10.09572235       0.00000000 NULL      -0.15572120      -0.40912614      -0.06640244
P        2.54156687       1.22440710       1.65376579       0.00000000 NULL      -0.37873312      -0.21953249       0.06640244
P        6.75477378       6.18024492      10.09572235       0.00000000 NULL      -0.37873312      -0.21953249      -0.06640244
P        5.01263820       7.66132197       1.65376579       0.00000000 NULL      -0.15572120      -0.40912614       0.06640244
P        5.59466865       8.79549462       4.56867199       0.00000000 NULL       0.35192952      -0.25663461      -0.13946030
P        7.78049661       6.93721237       7.18081614       0.00000000 NULL      -0.30992587       0.30604193       0.13946030
P        3.56728970       1.98137455       4.56867199       0.00000000 NULL      -0.30992587       0.30604193      -0.13946030
P        1.38146174       3.83965681       7.18081614       0.00000000 NULL       0.35192952      -0.25663461       0.13946030
P        7.60849554       6.89098233       3.71863726       0.00000000 NULL       0.01406457      -0.14119241      -0.00783081
P        5.57672147       8.61829563       8.03085088       0.00000000 NULL      -0.14161549      -0.00884097       0.00783081
P        1.36351456       3.66245782       3.71863726       0.00000000 NULL      -0.14161549      -0.00884097      -0.00783081
P        3.39528863       1.93514452       8.03085088       0.00000000 NULL       0.01406457      -0.14119241       0.00783081
P        0.72578636       2.46198151       1.68108391       0.00000000 NULL      -0.14731742      -0.10320971       0.05653608
P        2.31308986       1.11253499      10.06840423       0.00000000 NULL      -0.07815652      -0.16200686      -0.05653608
P        6.52629677       6.06837281       1.68108391       0.00000000 NULL      -0.07815652      -0.16200686       0.05653608
P        4.93899326       7.41781933      10.06840423       0.00000000 NULL      -0.14731742      -0.10320971      -0.05653608
P        7.85072233       7.19860172      11.92164090       0.00000000 NULL       0.02205352       0.00559688      -0.24589859
P        5.84134949       8.90687061      -0.17215276       0.00000000 NULL       0.00197484       0.02266678       0.24589858
P        1.62814258       3.95103279      11.92164090       0.00000000 NULL       0.00197484       0.02266678      -0.24589859
P        3.63751542       2.24276391      -0.17215276       0.00000000 NULL       0.02205352       0.00559688       0.24589859
P        5.55154046       6.54066305       4.76364675       0.00000000 NULL      -0.77803629       0.36774413      -0.22169224
P        5.56199588       6.53177437       6.98584139       0.00000000 NULL       0.48816087      -0.70871374       0.22169224
P        1.34878897       1.57593655       4.76364675       0.00000000 NULL       0.48816087      -0.70871374      -0.22169224
P        1.33833355       1.58482523       6.98584139       0.00000000 NULL      -0.77803628       0.36774413       0.22169224
P        4.35368768       3.04154512       6.33371627       0.00000000 NULL       0.67533022       0.00319489      -0.37654477
P        2.30125802       4.78641878       5.41577187       0.00000000 NULL      -0.10552821       0.66704191       0.37654477
P        6.51446493       9.74225659       6.33371627       0.00000000 NULL      -0.10552821       0.66704191      -0.37654477
P        8.56689459       7.99738294       5.41577187       0.00000000 NULL       0.67533022       0.00319489       0.37654477
40
Lattice="8.088967622401235 1.740846236358814 1.0237953336560238e-41 0.41639109044419087 8.263689325882165 6.390135775089588e-42 8.099000248343039e-41 2.2000334577644908e-39 11.668125565585548" Properties=species:S:1:pos:R:3:initial_magmoms:R:1:castep_labels:S:1:forces:R:3 n_minim_iter=4 energy=-213.9611727735122 stress="-0.00247157486884177 -0.002231674813455365 4.0385125957246444e-13 -0.002231674813455365 -0.003199351571814921 -2.653717560265062e-12 4.0385125957246444e-13 -2.653717560265062e-12 -0.0011436600289298046" free_energy=-213.9611727735122 pbc="T T T"
P        6.47985167       2.00901564       1.58875385       0.00000000 NULL       0.03042009       0.01312041      -0.03248785
P        0.94002148       6.71870383      10.07937172       0.00000000 NULL       0.00805386       0.03213506       0.03248785
P        4.77630975       3.45728228       1.58875385       0.00000000 NULL       0.00805386       0.03213506      -0.03248785
P        2.64356341       5.27043718      10.07937172       0.00000000 NULL       0.03042009       0.01312041       0.03248785
P        5.78712424       4.72486938      -0.05494799       0.00000000 NULL       0.12397311       0.16736507      -0.21628653
P        3.73195715       6.47207027      11.72307355       0.00000000 NULL       0.14523248       0.14929141       0.21628653
P        7.56824541       3.21064872      -0.05494799       0.00000000 NULL       0.14523248       0.14929141      -0.21628653
P        1.95083598       7.98629093      11.72307355       0.00000000 NULL       0.12397311       0.16736507       0.21628653
P        2.67486092       5.29780187       1.91983566       0.00000000 NULL       0.01038620      -0.03096075       0.12494965
P        4.79828102       3.49257567       9.74828991       0.00000000 NULL      -0.03222866       0.00526829      -0.12494965
P        0.96199276       6.75399722       1.91983566       0.00000000 NULL      -0.03222866       0.00526829       0.12494965
P        6.51114918       2.03638033       9.74828991       0.00000000 NULL       0.01038620      -0.03096075      -0.12494965
P        0.80685103       2.70994944      10.02330505       0.00000000 NULL      -0.13028267      -0.30720501      -0.09020726
P        2.54477989       1.23244874       1.64482052       0.00000000 NULL      -0.28223431      -0.17802329       0.09020726
P        6.79745925       6.23471652      10.02330505       0.00000000 NULL      -0.28223431      -0.17802329      -0.09020726
P        5.05953039       7.71221722       1.64482052       0.00000000 NULL      -0.13028267      -0.30720501       0.09020726
P        5.67231899       8.85083082       4.53431804       0.00000000 NULL      -0.17301850       0.32117691      -0.33604036
P        7.82261521       7.02275589       7.13380752       0.00000000 NULL       0.34483460      -0.11907605       0.33604036
P        3.56993585       2.02048810       4.53431804       0.00000000 NULL       0.34483460      -0.11907605      -0.33604036
P        1.41963963       3.84856304       7.13380752       0.00000000 NULL      -0.17301850       0.32117691       0.33604036
P        7.67634900       6.95237726       3.69474188       0.00000000 NULL       0.05135252      -0.08435637      -0.00399856
P        5.62639644       8.69514500       7.97338368       0.00000000 NULL      -0.09152105       0.03710763       0.00399856
P        1.37371708       3.69287722       3.69474188       0.00000000 NULL      -0.09152105       0.03710763      -0.00399856
P        3.42366965       1.95010948       7.97338368       0.00000000 NULL       0.05135252      -0.08435637       0.00399856
P        0.73462871       2.47615202       1.67088954       0.00000000 NULL      -0.10420846      -0.00712542       0.07976815
P        2.32565266       1.12354257       9.99723603       0.00000000 NULL       0.00973781      -0.10399688      -0.07976815
P        6.57833202       6.12581035       1.67088954       0.00000000 NULL       0.00973781      -0.10399688       0.07976815
P        4.98730807       7.47841981       9.99723603       0.00000000 NULL      -0.10420846      -0.00712542      -0.07976815
P        7.92175141       7.26912376      11.82763783       0.00000000 NULL       0.04536483      -0.01831398      -0.20458446
P        5.89952155       8.98832305      -0.15951226       0.00000000 NULL      -0.02537587       0.04182624       0.20458446
P        1.64684220       3.98605526      11.82763783       0.00000000 NULL      -0.02537587       0.04182624      -0.20458446
P        3.66907206       2.26685598      -0.15951226       0.00000000 NULL       0.04536483      -0.01831398       0.20458446
P        5.57987562       6.62781731       4.71143853       0.00000000 NULL      -0.55112440       0.28059254       0.14763588
P        5.64345414       6.57376601       6.95668704       0.00000000 NULL       0.36562812      -0.49878488      -0.14763588
P        1.39077479       1.57149822       4.71143853       0.00000000 NULL       0.36562812      -0.49878488       0.14763588
P        1.32719626       1.62554953       6.95668704       0.00000000 NULL      -0.55112441       0.28059254      -0.14763588
P        4.41535224       3.06779950       6.27219429       0.00000000 NULL       0.25322485       0.04309890      -0.15044109
P        2.31724646       4.85150472       5.39593127       0.00000000 NULL       0.00178545       0.25686018       0.15044109
P        6.56992582       9.85377250       6.27219429       0.00000000 NULL       0.00178545       0.25686018      -0.15044109
P        8.66803160       8.07006728       5.39593127       0.00000000 NULL       0.25322485       0.04309890       0.15044109
40
Lattice="8.083262393080705 1.7627714495621336 9.013952731413765e-42 0.43894867088824896 8.26158690344111 1.1988965445742335e-41 8.538877113609588e-41 2.2063964031679443e-39 11.682497422478034" Properties=species:S:1:pos:R:3:initial_magmoms:R:1:castep_labels:S:1:forces:R:3 n_minim_iter=5 energy=-213.97269673119044 stress="-0.004239295421394526 0.0009774637811688876 5.515844974475784e-12 0.0009774637811688876 -0.003920532414101058 1.7599917996084884e-12 5.515844974475784e-12 1.7599917996084884e-12 0.0006009280498489821" free_energy=-213.97269673119044 pbc="T T T"
P        6.47715016       2.02639547       1.59047573       0.00000000 NULL       0.07095449      -0.01533351      -0.06088878
P        0.95760954       6.71883448      10.09202169       0.00000000 NULL      -0.02655241       0.06756201       0.06088878
P        4.77976640       3.46942675       1.59047573       0.00000000 NULL      -0.02655241       0.06756201      -0.06088878
P        2.65499330       5.27580320      10.09202169       0.00000000 NULL       0.07095449      -0.01533351       0.06088878
P        5.79321473       4.73980781      -0.05583066       0.00000000 NULL       0.09669940       0.17565349      -0.20216084
P        3.74572071       6.48048543      11.73832808       0.00000000 NULL       0.15780205       0.12370705       0.20216084
P        7.56787757       3.23107770      -0.05583066       0.00000000 NULL       0.15780205       0.12370705      -0.20216084
P        1.97105787       7.98921554      11.73832808       0.00000000 NULL       0.09669940       0.17565349       0.20216084
P        2.68624087       5.30303260       1.92265153       0.00000000 NULL       0.05375156      -0.07097627       0.10065326
P        4.80161218       3.50464909       9.75984589       0.00000000 NULL      -0.07870143       0.04162868      -0.10065326
P        0.97945532       6.75405681       1.92265153       0.00000000 NULL      -0.07870143       0.04162867       0.10065326
P        6.50839773       2.05362487       9.75984589       0.00000000 NULL       0.05375156      -0.07097627      -0.10065326
P        0.81299507       2.70982766      10.03534857       0.00000000 NULL      -0.16227496      -0.25493242      -0.06634770
P        2.54367093       1.23849309       1.64714885       0.00000000 NULL      -0.22549451      -0.20118631       0.06634770
P        6.80477646       6.25067226      10.03534857       0.00000000 NULL      -0.22549451      -0.20118631      -0.06634770
P        5.07410060       7.72200683       1.64714885       0.00000000 NULL      -0.16227496      -0.25493242       0.06634770
P        5.68975928       8.86328717       4.53895221       0.00000000 NULL      -0.12720121       0.31489165      -0.31102845
P        7.83210251       7.04197347       7.14354522       0.00000000 NULL       0.33125785      -0.07486745       0.31102845
P        3.57099698       2.02979430       4.53895221       0.00000000 NULL       0.33125785      -0.07486745      -0.31102845
P        1.42865375       3.85110799       7.14354522       0.00000000 NULL      -0.12720121       0.31489165       0.31102845
P        7.68591746       6.97068155       3.69938437       0.00000000 NULL       0.04969665      -0.05622984       0.00394254
P        5.64292229       8.70753447       7.98311305       0.00000000 NULL      -0.06349464       0.03999977      -0.00394254
P        1.38181676       3.69535530       3.69938437       0.00000000 NULL      -0.06349464       0.03999977       0.00394254
P        3.42481193       1.95850237       7.98311305       0.00000000 NULL       0.04969665      -0.05622984      -0.00394254
P        0.74039171       2.47701905       1.67318191       0.00000000 NULL      -0.16103092       0.04704334       0.07106250
P        2.32558094       1.12936999      10.00931551       0.00000000 NULL       0.07234500      -0.15136127      -0.07106250
P        6.58668647       6.14154916       1.67318191       0.00000000 NULL       0.07234500      -0.15136127       0.07106250
P        5.00149725       7.48919823      10.00931551       0.00000000 NULL      -0.16103092       0.04704334      -0.07106250
P        7.93189847       7.28832012      11.84132892       0.00000000 NULL       0.02732106      -0.01121544      -0.20702076
P        5.91683472       9.00142712      -0.15883150       0.00000000 NULL      -0.01546606       0.02516004       0.20702076
P        1.65572919       3.98924795      11.84132892       0.00000000 NULL      -0.01546606       0.02516004      -0.20702076
P        3.67079294       2.27614094      -0.15883150       0.00000000 NULL       0.02732106      -0.01121544       0.20702076
P        5.58920803       6.64244945       4.71701301       0.00000000 NULL      -0.53337931       0.26207125       0.16898871
P        5.65639369       6.58533154       6.96548441       0.00000000 NULL       0.34449251      -0.48425172      -0.16898871
P        1.39528816       1.57315236       4.71701301       0.00000000 NULL       0.34449251      -0.48425172       0.16898871
P        1.32810249       1.63027027       6.96548441       0.00000000 NULL      -0.53337931       0.26207125      -0.16898871
P        4.41937034       3.07877210       6.27904434       0.00000000 NULL       0.15942363       0.05624048      -0.14047421
P        2.32742940       4.85723628       5.40345308       0.00000000 NULL       0.02985124       0.16639648       0.14047421
P        6.58853494       9.86941545       6.27904434       0.00000000 NULL       0.02985124       0.16639648      -0.14047421
P        8.68047588       8.09095128       5.40345308       0.00000000 NULL       0.15942363       0.05624048       0.14047421
40
Lattice="8.076298036461697 1.7151242659571029 1.8306463796650098e-41 0.39304331550715527 8.247045420850132 1.968419228583597e-42 9.292408754613468e-41 2.183373804290849e-39 11.637543420007237" Properties=species:S:1:pos:R:3:initial_magmoms:R:1:castep_labels:S:1:forces:R:3 n_minim_iter=6 energy=-214.25152220970227 stress="-0.004597757032752636 -0.0010351153170366707 -1.5711601617128567e-12 -0.0010351153170366707 -0.0049353209125577585 -3.516465124613255e-12 -1.5711601617128567e-12 -3.516465124613255e-12 0.0006787479630218981" free_energy=-214.25152220970227 pbc="T T T"
P        6.47356477       1.98859703       1.57628247       0.00000000 NULL       0.00952100      -0.00102918       0.01822090
P        0.92088077       6.70921289      10.06126095       0.00000000 NULL      -0.00254799       0.00923127      -0.01822090
P        4.76250813       3.44325231       1.57628247       0.00000000 NULL      -0.00254799       0.00923127       0.01822090
P        2.63193741       5.25455761      10.06126095       0.00000000 NULL       0.00952100      -0.00102918      -0.01822090
P        5.78313682       4.71962023      -0.08261985       0.00000000 NULL       0.04053506      -0.02645866      -0.09017201
P        3.72741811       6.46729007      11.72016327       0.00000000 NULL      -0.03263713       0.03574870       0.09017201
P        7.56904547       3.20132949      -0.08261985       0.00000000 NULL      -0.03263713       0.03574870      -0.09017201
P        1.94150946       7.98558081      11.72016327       0.00000000 NULL       0.04053506      -0.02645866       0.09017201
P        2.65891604       5.27342496       1.93021775       0.00000000 NULL      -0.11109563      -0.03354871       0.08559330