60
Lattice="8.932520000000002 4.02169946559315e-32 -7.359983665192776e-32 4.466260000000001 12.425077208104451 7.024478180589224e-14 4.466260000000001 3.658150651866762 11.874362190686432" Properties=species:S:1:pos:R:3:initial_magmoms:R:1:castep_labels:S:1 n_minim_iter=1 pbc="T T T"
P        7.93022426      10.63739764       8.54451198       0.00000000 NULL
P        9.93481663       4.78560525       4.22409179       0.00000000 NULL
P        7.93022426       4.78560525       4.22409179       0.00000000 NULL
P        9.93481663      10.63739764       8.54451198       0.00000000 NULL
P        6.17144457       5.97997824       0.47275279       0.00000000 NULL
P       11.69359632      13.87082315       6.29862004       0.00000000 NULL
P       15.10396457      13.87082315       6.29862004       0.00000000 NULL
P        2.76107632       5.97997824       0.47275279       0.00000000 NULL
P        6.21352925       7.29979158       5.24917105       0.00000000 NULL
P       11.65151164       8.91753430       6.44356208       0.00000000 NULL
P        6.21352925       8.91753430       6.44356208       0.00000000 NULL
P       11.65151164       7.29979158       5.24917105       0.00000000 NULL
P        9.93947449       7.89830899       4.32849713       0.00000000 NULL
P        7.92556640       9.62118778       5.60051086       0.00000000 NULL
P        9.93947449       9.62118778       5.60051086       0.00000000 NULL
P        7.92556640       7.89830899       4.32849713       0.00000000 NULL
P       16.84078455      13.84870611      11.16639491       0.00000000 NULL
P        1.02425634       1.33446873       1.92704392       0.00000000 NULL
P        7.90826455       1.33446873       1.92704392       0.00000000 NULL
P        9.95677634      13.84870611      11.16639491       0.00000000 NULL
P       11.44089310       7.12320797       8.88745306       0.00000000 NULL
P        6.42414779       5.49250054       7.68349010       0.00000000 NULL
P       11.44089310       5.49250054       7.68349010       0.00000000 NULL
P        6.42414779       7.12320797       8.88745306       0.00000000 NULL
P        7.92945070      10.78075319       3.92079565       0.00000000 NULL
P        9.93559019       9.16217895       2.72579071       0.00000000 NULL
P        7.92945070       9.16217895       2.72579071       0.00000000 NULL
P        9.93559019      10.78075319       3.92079565       0.00000000 NULL
P        7.41055035       2.45401217       3.78616888       0.00000000 NULL
P       10.45449055      11.74237057      10.64383034       0.00000000 NULL
P        7.41055035      11.74237057      10.64383034       0.00000000 NULL
P       10.45449055       2.45401217       3.78616888       0.00000000 NULL
P       10.59871858       8.78845236       8.15769157       0.00000000 NULL
P        7.26632231       5.69964110       5.87720012       0.00000000 NULL
P       10.59871858       5.69964110       5.87720012       0.00000000 NULL
P        7.26632231       8.78845236       8.15769157       0.00000000 NULL
P       11.65019321       8.51185626       1.81754925       0.00000000 NULL
P        6.21484768      11.84020467       4.27489269       0.00000000 NULL
P       11.65019321      11.84020467       4.27489269       0.00000000 NULL
P        6.21484768       8.51185626       1.81754925       0.00000000 NULL
P        3.44194203       1.75772597       0.75200692       0.00000000 NULL
P       14.42309887      14.84704809      10.41594709       0.00000000 NULL
P       12.37446203      14.84704809      10.41594709       0.00000000 NULL
P        5.49057887       1.75772597       0.75200692       0.00000000 NULL
P        5.48268743       8.42650040       3.72846898       0.00000000 NULL
P       12.38235346      10.03911257       4.91907208       0.00000000 NULL
P        5.48268743      10.03911257       4.91907208       0.00000000 NULL
P       12.38235346       8.42650040       3.72846898       0.00000000 NULL
P        6.79466604       4.43448149       2.58743540       0.00000000 NULL
P       11.07037485      12.30488944       8.39821390       0.00000000 NULL
P        6.79466604      12.30488944       8.39821390       0.00000000 NULL
P       11.07037485       4.43448149       2.58743540       0.00000000 NULL
P        3.32894118       1.58559503       3.56222672       0.00000000 NULL
P       14.53609971      12.21206351      11.40782442       0.00000000 NULL
P       12.26146118      12.21206351      11.40782442       0.00000000 NULL
P        5.60357971       1.58559503       3.56222672       0.00000000 NULL
P       10.84375771      10.99743675       6.77562743       0.00000000 NULL
P        7.02128319       6.37008623       3.35922143       0.00000000 NULL
P       10.84375771       6.37008623       3.35922143       0.00000000 NULL
P        7.02128319      10.99743675       6.77562743       0.00000000 NULL
60
Lattice="9.088079685126843 5.212030468385872e-18 9.185818388678747e-18 4.544039842563421 12.616131092646988 0.025451248854502912 4.544039842563421 3.7387232891724502 12.04945474616681" Properties=species:S:1:pos:R:3:initial_magmoms:R:1:castep_labels:S:1 n_minim_iter=2 pbc="T T T"
P        8.06843531      10.81839273       8.68719462       0.00000000 NULL
P       10.10772497       4.86758525       4.29367089       0.00000000 NULL
P        8.06843531       4.86758525       4.29367089       0.00000000 NULL
P       10.10772497      10.81839273       8.68719462       0.00000000 NULL
P        6.27892022       6.07301791       0.49180051       0.00000000 NULL
P       11.89724006      14.09685377       6.41585593       0.00000000 NULL
P       15.36699990      14.09685377       6.41585593       0.00000000 NULL
P        2.80916038       6.07301791       0.49180051       0.00000000 NULL
P        6.32136272       7.42237769       5.33838030       0.00000000 NULL
P       11.85479756       9.06781418       6.55321783       0.00000000 NULL
P        6.32136272       9.06781418       6.55321783       0.00000000 NULL
P       11.85479756       7.42237769       5.33838030       0.00000000 NULL
P       10.11239798       8.02863395       4.40589430       0.00000000 NULL
P        8.06376230       9.78047775       5.69929310       0.00000000 NULL
P       10.11239798       9.78047775       5.69929310       0.00000000 NULL
P        8.06376230       8.02863395       4.40589430       0.00000000 NULL
P       17.13390249      14.08450393      11.35237384       0.00000000 NULL
P        1.04225779       1.35893661       1.95699645       0.00000000 NULL
P        8.04582280       1.35893661       1.95699645       0.00000000 NULL
P       10.13033748      14.08450393      11.35237384       0.00000000 NULL
P       11.64025007       7.25086258       9.02765021       0.00000000 NULL
P        6.53591021       5.59256020       7.80331370       0.00000000 NULL
P       11.64025007       5.59256020       7.80331370       0.00000000 NULL
P        6.53591021       7.25086258       9.02765021       0.00000000 NULL
P        8.06740871      10.95491005       3.99811566       0.00000000 NULL
P       10.10875157       9.30863781       2.78266109       0.00000000 NULL
P        8.06740871       9.30863781       2.78266109       0.00000000 NULL
P       10.10875157      10.95491005       3.99811566       0.00000000 NULL
P        7.53988663       2.49955796       3.84467595       0.00000000 NULL
P       10.63627364      11.94467378      10.81807254       0.00000000 NULL
P        7.53988663      11.94467378      10.81807254       0.00000000 NULL
P       10.63627364       2.49955796       3.84467595       0.00000000 NULL
P       10.78311556       8.93998768       8.29097764       0.00000000 NULL
P        7.39304472       5.79927463       5.97216673       0.00000000 NULL
P       10.78311556       5.79927463       5.97216673       0.00000000 NULL
P        7.39304472       8.93998768       8.29097764       0.00000000 NULL
P       11.85319236       8.64638149       1.86018810       0.00000000 NULL
P        6.32296792      12.03147574       4.35942740       0.00000000 NULL
P       11.85319236      12.03147574       4.35942740       0.00000000 NULL
P        6.32296792       8.64638149       1.86018810       0.00000000 NULL
P        3.50197212       1.78624912       0.76636131       0.00000000 NULL
P       14.67418815      15.09655876      10.59345814       0.00000000 NULL
P       12.59005181      15.09655876      10.59345814       0.00000000 NULL
P        5.58610847       1.78624912       0.76636131       0.00000000 NULL
P        5.57799204       8.56371101       3.79810315       0.00000000 NULL
P       12.59816824      10.20379421       5.00898831       0.00000000 NULL
P        5.57799204      10.20379421       5.00898831       0.00000000 NULL
P       12.59816824       8.56371101       3.79810315       0.00000000 NULL
P        6.91273466       4.50777667       2.63259083       0.00000000 NULL
P       11.26342562      12.51178262       8.54200569       0.00000000 NULL
P        6.91273466      12.51178262       8.54200569       0.00000000 NULL
P       11.26342562       4.50777667       2.63259083       0.00000000 NULL
P        3.38715260       1.61712550       3.61562630       0.00000000 NULL
P       14.78900768      12.42337418      11.59395701       0.00000000 NULL
P       12.47523229      12.42337418      11.59395701       0.00000000 NULL
P        5.70092799       1.61712550       3.61562630       0.00000000 NULL
P       11.03276346      11.18090240       6.89372168       0.00000000 NULL
P        7.14339682       6.47483742       3.41920024       0.00000000 NULL
P       11.03276346       6.47483742       3.41920024       0.00000000 NULL
P        7.14339682      11.18090240       6.89372168       0.00000000 NULL
60
Lattice="9.597310081379167 1.0141032813980245e-16 1.2730373883891486e-16 4.798655040689583 13.214838549095298 0.12121947816366821 4.798655040689583 4.006516290176199 12.593430003660405" Properties=species:S:1:pos:R:3:initial_magmoms:R:1:castep_labels:S:1 n_minim_iter=3 pbc="T T T"
P        8.52088568      11.39655565       9.14119749       0.00000000 NULL
P       10.67373544       5.12998471       4.51454333       0.00000000 NULL
P        8.52088568       5.12998471       4.51454333       0.00000000 NULL
P       10.67373544      11.39655565       9.14119749       0.00000000 NULL
P        6.63079091       6.36535865       0.55903960       0.00000000 NULL
P       12.56383021      14.81302536       6.79601237       0.00000000 NULL
P       16.22810099      14.81302536       6.79601237       0.00000000 NULL
P        2.96652013       6.36535865       0.55903960       0.00000000 NULL
P        6.67420335       7.81304509       5.62328732       0.00000000 NULL
P       12.52041777       9.54701650       6.90349082       0.00000000 NULL
P        6.67420335       9.54701650       6.90349082       0.00000000 NULL
P       12.52041777       7.81304509       5.62328732       0.00000000 NULL
P       10.67834049       8.44267230       4.65529608       0.00000000 NULL
P        8.51628063      10.28673080       6.01677766       0.00000000 NULL
P       10.67834049      10.28673080       6.01677766       0.00000000 NULL
P        8.51628063       8.44267230       4.65529608       0.00000000 NULL
P       18.09347190      14.83763023      11.94411684       0.00000000 NULL
P        1.10114922       1.43818883       2.05121339       0.00000000 NULL
P        8.49616182       1.43818883       2.05121339       0.00000000 NULL
P       10.69845930      14.83763023      11.94411684       0.00000000 NULL
P       12.29284512       7.66222911       9.46901305       0.00000000 NULL
P        6.90177601       5.91614709       8.17986820       0.00000000 NULL
P       12.29284512       5.91614709       8.17986820       0.00000000 NULL
P        6.90177601       7.66222911       9.46901305       0.00000000 NULL
P        8.51895333      11.50590778       4.25114168       0.00000000 NULL
P       10.67566780       9.77110413       2.97032374       0.00000000 NULL
P        8.51895333       9.77110413       2.97032374       0.00000000 NULL
P       10.67566780      11.50590778       4.25114168       0.00000000 NULL
P        7.96330500       2.64706790       4.02807403       0.00000000 NULL
P       11.23131612      12.59247549      11.37083960       0.00000000 NULL
P        7.96330500      12.59247549      11.37083960       0.00000000 NULL
P       11.23131612       2.64706790       4.02807403       0.00000000 NULL
P       11.38669751       9.42502591       8.71356633       0.00000000 NULL
P        7.80792361       6.11911337       6.27278745       0.00000000 NULL
P       11.38669751       6.11911337       6.27278745       0.00000000 NULL
P        7.80792361       9.42502591       8.71356633       0.00000000 NULL
P       12.51766401       9.07016856       2.00309260       0.00000000 NULL
P        6.67695712      12.63663563       4.63624075       0.00000000 NULL
P       12.51766401      12.63663563       4.63624075       0.00000000 NULL
P        6.67695712       9.07016856       2.00309260       0.00000000 NULL
P        3.69871337       1.87659658       0.81325457       0.00000000 NULL
P       15.49590776      15.89164460      11.16066478       0.00000000 NULL
P       13.29602345      15.89164460      11.16066478       0.00000000 NULL
P        5.89859768       1.87659658       0.81325457       0.00000000 NULL
P        5.88977857       8.99858565       4.02406502       0.00000000 NULL
P       13.30484255      10.72631370       5.29965900       0.00000000 NULL
P        5.88977857      10.72631370       5.29965900       0.00000000 NULL
P       13.30484255       8.99858565       4.02406502       0.00000000 NULL
P        7.29910677       4.74071855       2.77751331       0.00000000 NULL
P       11.89551435      13.17120199       9.00179955       0.00000000 NULL
P        7.29910677      13.17120199       9.00179955       0.00000000 NULL
P       11.89551435       4.74071855       2.77751331       0.00000000 NULL
P        3.57766088       1.72042884       3.78198508       0.00000000 NULL
P       15.61696024      13.10047512      12.18395466       0.00000000 NULL
P       13.17497096      13.10047512      12.18395466       0.00000000 NULL
P        6.01965016       1.72042884       3.78198508       0.00000000 NULL
P       11.65155888      11.76494242       7.27268271       0.00000000 NULL
P        7.54306224       6.80722233       3.61236250       0.00000000 NULL
P       11.65155888       6.80722233       3.61236250       0.00000000 NULL
P        7.54306224      11.76494242       7.27268271       0.00000000 NULL
60
Lattice="9.754206647164436 9.25192611963253e-17 1.1762210644705912e-16 4.877103323582218 13.267245407821337 0.20243483301535928 4.877103323582218 4.099561404021526 12.619602880741983" Properties=species:S:1:pos:R:3:initial_magmoms:R:1:castep_labels:S:1 n_minim_iter=4 pbc="T T T"
P        8.66024794      11.49716884       9.21257934       0.00000000 NULL
P       10.84816633       5.17759647       4.54679385       0.00000000 NULL
P        8.66024794       5.17759647       4.54679385       0.00000000 NULL
P       10.84816633      11.49716884       9.21257934       0.00000000 NULL
P        6.73940197       6.39436405       0.59874602       0.00000000 NULL
P       12.76901230      14.91199114       6.88737104       0.00000000 NULL
P       16.49360862      14.91199114       6.88737104       0.00000000 NULL
P        3.01480565       6.39436405       0.59874602       0.00000000 NULL
P        6.78245727       7.87729642       5.67258234       0.00000000 NULL
P       12.72595700       9.62644168       6.96398880       0.00000000 NULL
P        6.78245727       9.62644168       6.96398880       0.00000000 NULL
P       12.72595700       7.87729642       5.67258234       0.00000000 NULL
P       10.85231966       8.50450861       4.70810557       0.00000000 NULL
P        8.65609461      10.36350830       6.08061834       0.00000000 NULL
P       10.85231966      10.36350830       6.08061834       0.00000000 NULL
P        8.65609461       8.50450861       4.70810557       0.00000000 NULL
P       18.38925314      14.96828931      12.03665787       0.00000000 NULL
P        1.11916113       1.45673324       2.06097935       0.00000000 NULL
P        8.63504650       1.45673324       2.06097935       0.00000000 NULL
P       10.87336777      14.96828931      12.03665787       0.00000000 NULL
P       12.49391924       7.74991794       9.51715813       0.00000000 NULL
P        7.01449503       5.98977086       8.21762894       0.00000000 NULL
P       12.49391924       5.98977086       8.21762894       0.00000000 NULL
P        7.01449503       7.74991794       9.51715813       0.00000000 NULL
P        8.65759014      11.57783817       4.32206632       0.00000000 NULL
P       10.85082413       9.82759754       3.02985114       0.00000000 NULL
P        8.65759014       9.82759754       3.02985114       0.00000000 NULL
P       10.85082413      11.57783817       4.32206632       0.00000000 NULL
P        8.09395665       2.68172461       4.04468501       0.00000000 NULL
P       11.41445762      12.71184922      11.44999776       0.00000000 NULL
P        8.09395665      12.71184922      11.44999776       0.00000000 NULL
P       11.41445762       2.68172461       4.04468501       0.00000000 NULL
P       11.57265865       9.51413481       8.77308565       0.00000000 NULL
P        7.93575562       6.18144894       6.31253983       0.00000000 NULL
P       11.57265865       6.18144894       6.31253983       0.00000000 NULL
P        7.93575562       9.51413481       8.77308565       0.00000000 NULL
P       12.72229812       9.11745402       2.05808168       0.00000000 NULL
P        6.78611615      12.71561416       4.71462906       0.00000000 NULL
P       12.72229812      12.71561416       4.71462906       0.00000000 NULL
P        6.78611615       9.11745402       2.05808168       0.00000000 NULL
P        3.75985583       1.88881324       0.82564742       0.00000000 NULL
P       15.74855844      16.02165621      11.26002649       0.00000000 NULL
P       13.51406248      16.02165621      11.26002649       0.00000000 NULL
P        5.99435179       1.88881324       0.82564742       0.00000000 NULL
P        5.98497768       9.05892157       4.07915038       0.00000000 NULL
P       13.52343658      10.80135795       5.36560362       0.00000000 NULL
P        5.98497768      10.80135795       5.36560362       0.00000000 NULL
P       13.52343658       9.05892157       4.07915038       0.00000000 NULL
P        7.41814377       4.77608453       2.80597667       0.00000000 NULL
P       12.09027050      13.27903985       9.08376941       0.00000000 NULL
P        7.41814377      13.27903985       9.08376941       0.00000000 NULL
P       12.09027050       4.77608453       2.80597667       0.00000000 NULL
P        3.63573981       1.74998504       3.79221981       0.00000000 NULL
P       15.87267446      13.22744416      12.26610999       0.00000000 NULL
P       13.38994646      13.22744416      12.26610999       0.00000000 NULL
P        6.11846781       1.74998504       3.79221981       0.00000000 NULL
P       11.84236460      11.85717442       7.34602326       0.00000000 NULL
P        7.66604967       6.85542976       3.65319940       0.00000000 NULL
P       11.84236460       6.85542976       3.65319940       0.00000000 NULL
P        7.66604967      11.85717442       7.34602326       0.00000000 NULL
60
Lattice="9.918497395734844 9.205809531588654e-17 1.5521189465924235e-16 4.959248697867422 13.255555538986746 0.31801422739104385 4.959248697867422 4.206576295521136 12.574402632568477" Properties=species:S:1:pos:R:3:initial_magmoms:R:1:castep_labels:S:1 n_minim_iter=5 pbc="T T T"
P        8.80634896      11.56653178       9.25483400       0.00000000 NULL
P       11.03064682       5.21211807       4.56332489       0.00000000 NULL
P        8.80634896       5.21211807       4.56332489       0.00000000 NULL
P       11.03064682      11.56653178       9.25483400       0.00000000 NULL
P        6.85339094       6.39429121       0.65205018       0.00000000 NULL
P       12.98360484      14.95639604       6.97351343       0.00000000 NULL
P       16.77188834      14.95639604       6.97351343       0.00000000 NULL
P        3.06510745       6.39429121       0.65205018       0.00000000 NULL
P        6.89544895       7.91809328       5.70636677       0.00000000 NULL
P       12.94154683       9.67746841       7.00532602       0.00000000 NULL
P        6.89544895       9.67746841       7.00532602       0.00000000 NULL
P       12.94154683       7.91809328       5.70636677       0.00000000 NULL
P       11.03400696       8.53756958       4.75335692       0.00000000 NULL
P        8.80298882      10.40585395       6.13272464       0.00000000 NULL
P       11.03400696      10.40585395       6.13272464       0.00000000 NULL
P        8.80298882       8.53756958       4.75335692       0.00000000 NULL
P       18.69923393      15.05781608      12.09078749       0.00000000 NULL
P        1.13776186       1.47396964       2.06173648       0.00000000 NULL
P        8.78073653       1.47396964       2.06173648       0.00000000 NULL
P       11.05625925      15.05781608      12.09078749       0.00000000 NULL
P       12.70468858       7.82504195       9.52389951       0.00000000 NULL
P        7.13230721       6.05653553       8.21819857       0.00000000 NULL
P       12.70468858       6.05653553       8.21819857       0.00000000 NULL
P        7.13230721       7.82504195       9.52389951       0.00000000 NULL
P        8.80228844      11.60554727       4.39562204       0.00000000 NULL
P       11.03470734       9.84446902       3.09540537       0.00000000 NULL
P        8.80228844       9.84446902       3.09540537       0.00000000 NULL
P       11.03470734      11.60554727       4.39562204       0.00000000 NULL
P        8.23096064       2.71383627       4.04196527       0.00000000 NULL
P       11.60603514      12.80031923      11.48888779       0.00000000 NULL
P        8.23096064      12.80031923      11.48888779       0.00000000 NULL
P       11.60603514       2.71383627       4.04196527       0.00000000 NULL
P       11.76731425       9.57974644       8.80123422       0.00000000 NULL
P        8.06968154       6.23055586       6.32850286       0.00000000 NULL
P       11.76731425       6.23055586       6.32850286       0.00000000 NULL
P        8.06968154       9.57974644       8.80123422       0.00000000 NULL
P       12.93638140       9.12558653       2.12366211       0.00000000 NULL
P        6.90061438      12.74587112       4.79654412       0.00000000 NULL
P       12.93638140      12.74587112       4.79654412       0.00000000 NULL
P        6.90061438       9.12558653       2.12366211       0.00000000 NULL
P        3.82440393       1.89393576       0.83829494       0.00000000 NULL
P       16.01259185      16.10338614      11.32923381       0.00000000 NULL
P       13.74290133      16.10338614      11.32923381       0.00000000 NULL
P        6.09409446       1.89393576       0.83829494       0.00000000 NULL
P        6.08365537       9.08648536       4.13157794       0.00000000 NULL
P       13.75334041      10.83846391       5.42507624       0.00000000 NULL
P        6.08365537      10.83846391       5.42507624       0.00000000 NULL
P       13.75334041       9.08648536       4.13157794       0.00000000 NULL
P        7.54272542       4.79564005       2.82845283       0.00000000 NULL
P       12.29427036      13.34712744       9.14207715       0.00000000 NULL
P        7.54272542      13.34712744       9.14207715       0.00000000 NULL
P       12.29427036       4.79564005       2.82845283       0.00000000 NULL
P        3.69591233       1.78099350       3.78178954       0.00000000 NULL
P       16.14108346      13.32360774      12.30378421       0.00000000 NULL
P       13.61440972      13.32360774      12.30378421       0.00000000 NULL
P        6.22258606       1.78099350       3.78178954       0.00000000 NULL
P       12.04231597      11.91229732       7.40337542       0.00000000 NULL
P        7.79467981       6.87971554       3.68778429       0.00000000 NULL
P       12.04231597       6.87971554       3.68778429       0.00000000 NULL
P        7.79467981      11.91229732       7.40337542       0.00000000 NULL
60
Lattice="10.180054866568556 6.24075976522337e-17 1.8911748382054301e-16 5.090027433284278 13.189941110225414 0.49104262772939017 5.090027433284278 4.352617595639891 12.460753966738443" Properties=species:S:1:pos:R:3:initial_magmoms:R:1:castep_labels:S:1 n_minim_iter=6 pbc="T T T"
P        9.03977401      11.62923661       9.28529366       0.00000000 NULL
P       11.32033674       5.24497399       4.57174690       0.00000000 NULL
P        9.03977401       5.24497399       4.57174690       0.00000000 NULL
P       11.32033674      11.62923661       9.28529366       0.00000000 NULL
P        7.03565332       6.37203591       0.73091910       0.00000000 NULL
P       13.32445743      14.96800202       7.07738238       0.00000000 NULL
P       17.21570818      14.96800202       7.07738238       0.00000000 NULL
P        3.14440257       6.37203591       0.73091910       0.00000000 NULL
P        7.07462528       7.95027250       5.73742696       0.00000000 NULL
P       13.28548547       9.71873767       7.04309744       0.00000000 NULL
P        7.07462528       9.71873767       7.04309744       0.00000000 NULL
P       13.28548547       7.95027250       5.73742696       0.00000000 NULL
P       11.32177283       8.55600503       4.80544677       0.00000000 NULL
P        9.03833792      10.43107204       6.18982215       0.00000000 NULL
P       11.32177283      10.43107204       6.18982215       0.00000000 NULL
P        9.03833792       8.55600503       4.80544677       0.00000000 NULL
P       19.19368482      15.13685305      12.12834405       0.00000000 NULL
P        1.16642593       1.49523476       2.05663967       0.00000000 NULL
P        9.01362995       1.49523476       2.05663967       0.00000000 NULL
P       11.34648080      15.13685305      12.12834405       0.00000000 NULL
P       13.04112225       7.90882686       9.49954568       0.00000000 NULL
P        7.31898850       6.13556912       8.19033681       0.00000000 NULL
P       13.04112225       6.13556912       8.19033681       0.00000000 NULL
P        7.31898850       7.90882686       9.49954568       0.00000000 NULL
P        9.03157211      11.60696006       4.48946511       0.00000000 NULL
P       11.32853864       9.83479626       3.18106391       0.00000000 NULL
P        9.03157211       9.83479626       3.18106391       0.00000000 NULL
P       11.32853864      11.60696006       4.48946511       0.00000000 NULL
P        8.44945357       2.75167735       4.02281294       0.00000000 NULL
P       11.91065718      12.88790849      11.50646491       0.00000000 NULL
P        8.44945357      12.88790849      11.50646491       0.00000000 NULL
P       11.91065718       2.75167735       4.02281294       0.00000000 NULL
P       12.07680237       9.64237808       8.81245907       0.00000000 NULL
P        8.28330838       6.28181560       6.33133175       0.00000000 NULL
P       12.07680237       6.28181560       6.33133175       0.00000000 NULL
P        8.28330838       9.64237808       8.81245907       0.00000000 NULL
P       13.27649927       9.10432660       2.21355432       0.00000000 NULL
P        7.08361148      12.74664934       4.90270725       0.00000000 NULL
P       13.27649927      12.74664934       4.90270725       0.00000000 NULL
P        7.08361148       9.10432660       2.21355432       0.00000000 NULL
P        3.92843847       1.89448391       0.85575840       0.00000000 NULL
P       16.43167228      16.16696220      11.39323122       0.00000000 NULL
P       14.10849333      16.16696220      11.39323122       0.00000000 NULL
P        6.25161742       1.89448391       0.85575840       0.00000000 NULL
P        6.23793434       9.09613521       4.19477986       0.00000000 NULL
P       14.12217641      10.85564907       5.49384154       0.00000000 NULL
P        6.23793434      10.85564907       5.49384154       0.00000000 NULL
P       14.12217641       9.09613521       4.19477986       0.00000000 NULL
P        7.74069576       4.80742484       2.85088268       0.00000000 NULL
P       12.61941499      13.40264898       9.19679816       0.00000000 NULL
P        7.74069576      13.40264898       9.19679816       0.00000000 NULL
P       12.61941499       4.80742484       2.85088268       0.00000000 NULL
P        3.79015530       1.82080651       3.75094962       0.00000000 NULL
P       16.56995545      13.42178600      12.31603578       0.00000000 NULL
P       13.97021017      13.42178600      12.31603578       0.00000000 NULL
P        6.38990058       1.82080651       3.75094962       0.00000000 NULL
P       12.36111811      11.95423462       7.46304840       0.00000000 NULL
P        7.99899264       6.89076726       3.72465423       0.00000000 NULL
P       12.36111811       6.89076726       3.72465423       0.00000000 NULL
P        7.99899264      11.95423462       7.46304840       0.00000000 NULL
60
Lattice="10.219118602448056 4.8516915008927254e-17 1.78678871752909e-16 5.109559301224028 13.170848493162428 0.4813479655552272 5.109559301224028 4.33773144270665 12.4453618599355" Properties=species:S:1:pos:R:3:initial_magmoms:R:1:castep_labels:S:1 n_minim_iter=7 pbc="T T T"
P        9.07648322      11.60630835       9.26891758       0.00000000 NULL
P       11.36175500       5.23339593       4.56375074       0.00000000 NULL
P        9.07648322       5.23339593       4.56375074       0.00000000 NULL
P       11.36175500      11.60630835       9.26891758       0.00000000 NULL
P        7.06444934       6.36507041       0.72799461       0.00000000 NULL
P       13.37378888      14.93886888       7.05809136       0.00000000 NULL
P       17.28356795      14.93886888       7.05809136       0.00000000 NULL
P        3.15467028       6.36507041       0.72799461       0.00000000 NULL