42
Lattice="8.18043850641054 -2.2819607857337312e-14 5.743825116071077e-43 -4.090219253205251 7.084467560647971 -7.187693134139544e-41 -1.0572775423292107e-42 1.5216261143154564e-40 15.057899125509207" Properties=species:S:1:pos:R:3:initial_magmoms:R:1:castep_labels:S:1:forces:R:3 n_minim_iter=1 energy=-222.91104564782 stress="-0.00011567250958693942 -3.752451187150531e-12 -1.790779597180063e-12 -3.752451187150531e-12 -0.00011567251284837485 2.377915712108375e-12 -1.790779597180063e-12 2.377915712108375e-12 7.70371619447546e-05" free_energy=-222.91104564782 pbc="T T T"
P       -1.94307644       3.44745706       0.96617555       0.00000000 NULL       0.01036100       0.00534739      -0.01025018
P       -0.13309482       7.04349260      11.00477497       0.00000000 NULL      -0.00054952      -0.01164658      -0.01025018
P        2.07617249       3.67798477       5.98547526       0.00000000 NULL      -0.00981147       0.00629919      -0.01025018
P        4.14001558       0.94332651       5.45173060       0.00000000 NULL      -0.00118085      -0.00078154       0.01861247
P        2.83715700       3.02744565       0.43243089       0.00000000 NULL      -0.00008641       0.00141342       0.01861247
P        5.29348641       3.11369471      10.47103030       0.00000000 NULL       0.00126726      -0.00063187       0.01861247
P        5.13638958       0.79124236       3.48155371       0.00000000 NULL      -0.00044000       0.01101661       0.01201033
P        2.20726126       2.24060253      13.52015313       0.00000000 NULL       0.00976066      -0.00512725       0.01201033
P        4.92700815       4.05262198       8.50085342       0.00000000 NULL      -0.00932066      -0.00588936       0.01201033
P       -3.71866346       6.15577411       9.01844577       0.00000000 NULL      -0.00637019      -0.00837012       0.01289571
P        3.10017005       7.22703754       3.99914606       0.00000000 NULL      -0.00406364       0.00970180       0.01289571
P        0.61849464       0.78612278      14.03774548       0.00000000 NULL       0.01043383      -0.00133168       0.01289571
P        0.46226748       3.42878452       8.83960735       0.00000000 NULL       0.02770118      -0.01507450      -0.02849479
P       -1.35193768       4.96973993       3.82030764       0.00000000 NULL      -0.02690549      -0.01645268      -0.02849479
P        0.88967143       5.77040998      13.85890706       0.00000000 NULL      -0.00079569       0.03152718      -0.02849478
P        1.50629689       5.70634891      11.69765538       0.00000000 NULL       0.01086542      -0.00447107       0.00374393
P        0.09847624       2.92680174       6.67835568       0.00000000 NULL      -0.00930477      -0.00717419       0.00374393
P       -1.60477190       5.53578377       1.65905597       0.00000000 NULL      -0.00156065       0.01164527       0.00374393
P        0.92854914       5.63205295       6.14827767       0.00000000 NULL      -0.01379436      -0.01430437      -0.00164536
P        0.32300792       3.46429394       1.12897796       0.00000000 NULL      -0.00549077       0.01909845      -0.00164536
P       -1.25155584       5.07258753      11.16757738       0.00000000 NULL       0.01928513      -0.00479408      -0.00164536
P       -0.19026999       3.05868636       3.31141908       0.00000000 NULL       0.00888862       0.00648546      -0.01710053
P       -1.34618335       5.71990303      13.35001850       0.00000000 NULL       0.00117227      -0.01094050      -0.01710053
P        1.53645457       5.39034503       8.33071879       0.00000000 NULL      -0.01006089       0.00445504      -0.01710053
P        1.92457368       2.82425111       3.94244583       0.00000000 NULL       0.00220967       0.00303692       0.01464977
P        5.57380644       4.00561232      13.98104525       0.00000000 NULL       0.00152521      -0.00343209       0.01464977
P        4.77227887       0.25460344       8.96174554       0.00000000 NULL      -0.00373488       0.00039517       0.01464977
P        6.56174842       1.44213012       9.61005091       0.00000000 NULL      -0.01455914      -0.00284165       0.01549118
P        2.05826718       0.68076169       4.59075120       0.00000000 NULL       0.00481863       0.01402941       0.01549118
P        3.65064340       4.96157506      -0.42854851       0.00000000 NULL       0.00974051      -0.01118776       0.01549118
P        2.18183887       2.05181324       9.31371064       0.00000000 NULL      -0.01849666       0.00940478      -0.01369031
P        4.77622303       4.16903306       4.29441093       0.00000000 NULL       0.01739311       0.01131619      -0.01369031
P        5.31259710       0.86362056      14.33301035       0.00000000 NULL       0.00110355      -0.02072097      -0.01369031
P        6.97241284       1.66046643      13.09012914       0.00000000 NULL       0.01790670       0.00096040      -0.01168194
P        2.04201976       0.21594771       8.07082943       0.00000000 NULL      -0.00812161      -0.01598786      -0.01168194
P        3.25622639       5.20805273       3.05152972       0.00000000 NULL      -0.00978509       0.01502745      -0.01168194
P        3.08443658       6.60226218       6.09596173       0.00000000 NULL      -0.00281127       0.00956966      -0.00306437
P        0.08529004       1.11213604       1.07666202       0.00000000 NULL       0.00969320      -0.00235020      -0.00306437
P       -3.16972540       6.45453620      11.11526144       0.00000000 NULL      -0.00688193      -0.00721946      -0.00306437
P        2.97359464       7.31872053      11.44796305       0.00000000 NULL      -0.01514458      -0.00436290       0.00852408
P        0.76118215       0.84989880       6.42866334       0.00000000 NULL       0.00379390       0.01529704       0.00852408
P       -3.73477556       6.00031509       1.40936363       0.00000000 NULL       0.01135067      -0.01093414       0.00852408
42
Lattice="8.182254447652838 -2.5601936982765567e-14 5.465309409010678e-43 -4.0911272238263985 7.086040211895584 -7.194884515093646e-41 -1.105374522574692e-42 1.5200082453114543e-40 15.055673360023778" Properties=species:S:1:pos:R:3:initial_magmoms:R:1:castep_labels:S:1:forces:R:3 n_minim_iter=2 energy=-222.91107493013428 stress="0.00010020670156677574 7.349966986336839e-13 5.790507615243507e-12 7.349966986336839e-13 0.00010020668357646707 7.634625463351601e-12 5.790507615243507e-12 7.634625463351601e-12 -7.425942926606585e-06" free_energy=-222.91107493013428 pbc="T T T"
P       -1.94348499       3.44823411       0.96601020       0.00000000 NULL       0.01374448       0.00901668      -0.00836864
P       -0.13312558       7.04503054      11.00312578       0.00000000 NULL       0.00093643      -0.01641141      -0.00836864
P        2.07661179       3.67881508       5.98456799       0.00000000 NULL      -0.01468091       0.00739473      -0.00836864
P        4.14093201       0.94353420       5.45096567       0.00000000 NULL      -0.00336354      -0.00164114       0.01964047
P        2.83778662       3.02812081       0.43240789       0.00000000 NULL       0.00026050       0.00373348       0.01964047
P        5.29466428       3.11438451      10.46952346       0.00000000 NULL       0.00310304      -0.00209234       0.01964047
P        5.13752882       0.79144223       3.48106550       0.00000000 NULL       0.00294114       0.00957222       0.01062495
P        2.20777271       2.24108864      13.51818107       0.00000000 NULL       0.00681922      -0.00733321       0.01062495
P        4.92808138       4.05350865       8.49962328       0.00000000 NULL      -0.00976036      -0.00223901       0.01062495
P       -3.71950296       6.15712219       9.01714107       0.00000000 NULL      -0.00419230      -0.01131857       0.00934678
P        3.10084931       7.22866318       3.99858328       0.00000000 NULL      -0.00770602       0.00928992       0.00934678
P        0.61865489       0.78629436      14.03569886       0.00000000 NULL       0.01189831       0.00202865       0.00934678
P        0.46243102       3.42951251       8.83823809       0.00000000 NULL       0.02969809      -0.01561605      -0.02564106
P       -1.35229697       4.97080695       3.81968030       0.00000000 NULL      -0.02837294      -0.01791127      -0.02564106
P        0.88986717       5.77176027      13.85679587       0.00000000 NULL      -0.00132514       0.03352732      -0.02564106
P        1.50665516       5.70760581      11.69593454       0.00000000 NULL       0.01000931      -0.00007460       0.00106499
P        0.09847764       2.92743567       6.67737675       0.00000000 NULL      -0.00506926      -0.00863102       0.00106499
P       -1.60513157       5.53703825       1.65881897       0.00000000 NULL      -0.00494005       0.00870562       0.00106499
P        0.92872493       5.63327173       6.14736525       0.00000000 NULL      -0.00959638      -0.01713643      -0.00319471
P        0.32306755       3.46510497       1.12880747       0.00000000 NULL      -0.01004239       0.01687893      -0.00319471
P       -1.25179125       5.07370303      11.16592304       0.00000000 NULL       0.01963878       0.00025750      -0.00319471
P       -0.19029268       3.05937961       3.31089201       0.00000000 NULL       0.01066820       0.00837074      -0.01430900
P       -1.34647961       5.72114871      13.34800758       0.00000000 NULL       0.00191517      -0.01342430      -0.01430900
P        1.53677351       5.39155141       8.32944980       0.00000000 NULL      -0.01258337       0.00505356      -0.01430900
P        1.92500576       2.82488473       3.94189530       0.00000000 NULL       0.00000497      -0.00039684       0.01232006
P        5.57504710       4.00649396      13.97901087       0.00000000 NULL      -0.00034616       0.00019412       0.01232006
P        4.77333004       0.25466083       8.96045308       0.00000000 NULL       0.00034119       0.00020272       0.01232006
P        6.56317301       1.44244400       9.60866447       0.00000000 NULL      -0.01870640      -0.00319539       0.01380398
P        2.05873468       0.68094366       4.59010668       0.00000000 NULL       0.00658591       0.01779791       0.01380398
P        3.65147521       4.96265186      -0.42845110       0.00000000 NULL       0.01212049      -0.01460252       0.01380398
P        2.18228252       2.05228940       9.31230384       0.00000000 NULL      -0.02060983       0.00797157      -0.01478146
P        4.77732153       4.16998342       4.29374606       0.00000000 NULL       0.01720849       0.01386285      -0.01478146
P        5.31377884       0.86376670      14.33086163       0.00000000 NULL       0.00340133      -0.02183442      -0.01478146
P        6.97400000       1.66083714      13.08816855       0.00000000 NULL       0.01753801      -0.00185844      -0.00962420
P        2.04245520       0.21596049       8.06961077       0.00000000 NULL      -0.01037846      -0.01425915      -0.00962420
P        3.25692771       5.20924189       3.05105298       0.00000000 NULL      -0.00715955       0.01611758      -0.00962420
P        3.08511510       6.60374884       6.09505393       0.00000000 NULL      -0.00278009       0.01038799       0.00076657
P        0.08533030       1.11237775       1.07649614       0.00000000 NULL       0.01038631      -0.00278637       0.00076657
P       -3.17044417       6.45595314      11.11361171       0.00000000 NULL      -0.00760622      -0.00760162       0.00076657
P        2.97422142       7.32033559      11.44628962       0.00000000 NULL      -0.01509010      -0.00715533       0.00835126
P        0.76135946       0.85012111       6.42773183       0.00000000 NULL       0.00134835       0.01664607       0.00835126
P       -3.73557966       6.00162302       1.40917405       0.00000000 NULL       0.01374175      -0.00949074       0.00835126
42
Lattice="8.181614446300724 -2.522483763931291e-14 5.4696182669680586e-43 -4.090807223150342 7.085485954466198 -7.194244858707222e-41 -1.104154010341637e-42 1.5193882110941314e-40 15.04931553297982" Properties=species:S:1:pos:R:3:initial_magmoms:R:1:castep_labels:S:1:forces:R:3 n_minim_iter=3 energy=-222.91124413043894 stress="-0.0001053843686142217 4.929527303904229e-12 -5.790726997191317e-12 4.929527303904229e-12 -0.00010538438335345271 -5.357438903976122e-12 -5.790726997191317e-12 -5.357438903976122e-12 -0.0005362760693615363" free_energy=-222.91124413043894 pbc="T T T"
P       -1.94313271       3.44808538       0.96545222       0.00000000 NULL       0.01198812       0.00397866      -0.00289667
P       -0.13311052       7.04424556      10.99832924       0.00000000 NULL      -0.00254843      -0.01237135      -0.00289667
P        2.07624445       3.67864027       5.98189073       0.00000000 NULL      -0.00943968       0.00839268      -0.00289667
P        4.14056881       0.94343975       5.44897697       0.00000000 NULL      -0.00360576      -0.00055458       0.02676548
P        2.83756642       3.02792831       0.43253846       0.00000000 NULL       0.00132260       0.00339998       0.02676548
P        5.29428767       3.11411720      10.46541548       0.00000000 NULL       0.00228317      -0.00284539       0.02676548
P        5.13715078       0.79154704       3.47977881       0.00000000 NULL       0.00168878       0.01120146       0.00295217
P        2.20773249       2.24080937      13.51265583       0.00000000 NULL       0.00885636      -0.00706325       0.00295217
P        4.92753963       4.05312885       8.49621732       0.00000000 NULL      -0.01054513      -0.00413821       0.00295217
P       -3.71929612       6.15647684       9.01351120       0.00000000 NULL      -0.00858296      -0.01088039      -0.00007548
P        3.10050699       7.22825247       3.99707269       0.00000000 NULL      -0.00513122       0.01287326      -0.00007548
P        0.61879036       0.78624191      14.02994971       0.00000000 NULL       0.01371418      -0.00199286      -0.00007548
P        0.46286566       3.42899305       8.83406690       0.00000000 NULL       0.02158442      -0.01136031      -0.01439419
P       -1.35264415       4.97013602       3.81762839       0.00000000 NULL      -0.02063053      -0.01301250      -0.01439419
P        0.88977972       5.77184215      13.85050542       0.00000000 NULL      -0.00095390       0.02437281      -0.01439419
P        1.50670695       5.70712664      11.69103206       0.00000000 NULL       0.00867782      -0.00615173      -0.00532719
P        0.09835677       2.92707615       6.67459355       0.00000000 NULL      -0.00966647      -0.00443934      -0.00532719
P       -1.60506249       5.53676843       1.65815504       0.00000000 NULL       0.00098865       0.01059108      -0.00532719
P        0.92846544       5.63257148       6.14472825       0.00000000 NULL      -0.01153246      -0.01237988      -0.00987685
P        0.32291086       3.46512556       1.12828974       0.00000000 NULL      -0.00495506       0.01617734      -0.00987685
P       -1.25137507       5.07327417      11.16116677       0.00000000 NULL       0.01648752      -0.00379746      -0.00987685
P       -0.19011628       3.05926353       3.30924034       0.00000000 NULL       0.00733122       0.00572445      -0.00809030
P       -1.34634833       5.72049972      13.34211737       0.00000000 NULL       0.00129190      -0.00921125      -0.00809031
P        1.53646584       5.39120796       8.32567885       0.00000000 NULL      -0.00862313       0.00348680      -0.00809031
P        1.92487108       2.82468190       3.94044843       0.00000000 NULL       0.00355287      -0.00094973       0.00167280
P        5.57461879       4.00615776      13.97332545       0.00000000 NULL      -0.00259893      -0.00260201       0.00167280
P        4.77293304       0.25464560       8.95688694       0.00000000 NULL      -0.00095394       0.00355174       0.00167280
P        6.56238381       1.44228151       9.60484421       0.00000000 NULL      -0.01454320      -0.00204478       0.00850002
P        2.05866856       0.68115412       4.58840570       0.00000000 NULL       0.00550076       0.01361717       0.00850002
P        3.65137053       4.96204963      -0.42803281       0.00000000 NULL       0.00904244      -0.01157239       0.00850002
P        2.18179031       2.05226936       9.30813795       0.00000000 NULL      -0.01271439       0.00450471      -0.00967444
P        4.77723029       4.16986545       4.29169944       0.00000000 NULL       0.01025839       0.00875863      -0.00967444
P        5.31340230       0.86335045      14.32457647       0.00000000 NULL       0.00245601      -0.01326334      -0.00967444
P        6.97374363       1.66069708      13.08246977       0.00000000 NULL       0.01705581       0.00230007      -0.00514039
P        2.04214208       0.21569828       8.06603126       0.00000000 NULL      -0.00653599      -0.01592080      -0.00514039
P        3.25653719       5.20908990       3.04959275       0.00000000 NULL      -0.01051983       0.01362073      -0.00514039
P        3.08482815       6.60339613       6.09246513       0.00000000 NULL      -0.00263803       0.00716066       0.01079326
P        0.08548831       1.11224835       1.07602662       0.00000000 NULL       0.00752032      -0.00129573       0.01079326
P       -3.17031524       6.45532673      11.10890364       0.00000000 NULL      -0.00488230      -0.00586493       0.01079326
P        2.97374190       7.31966614      11.44159352       0.00000000 NULL      -0.00710952      -0.00834928       0.00479179
P        0.76133947       0.85031686       6.42515501       0.00000000 NULL      -0.00367593       0.01033166       0.00479179
P       -3.73508014       6.00098821       1.40871650       0.00000000 NULL       0.01078545      -0.00198238       0.00479179
42
Lattice="8.183301012200856 -2.3802357583789368e-14 5.514085289210626e-43 -4.091650506100408 7.0869465633808675 -7.194852041491614e-41 -1.097077375005348e-42 1.5209524299050106e-40 15.06250852818281" Properties=species:S:1:pos:R:3:initial_magmoms:R:1:castep_labels:S:1:forces:R:3 n_minim_iter=4 energy=-222.912067540787 stress="-1.6209547456163932e-06 4.77606751932712e-12 -6.5102566364218414e-12 4.77606751932712e-12 -1.6209503914223331e-06 5.8411053398091196e-12 -6.5102566364218414e-12 5.8411053398091196e-12 -5.663380676392016e-06" free_energy=-222.912067540787 pbc="T T T"
P       -1.94234289       3.44949283       0.96544781       0.00000000 NULL       0.00888595       0.00538867       0.00204726
P       -0.13312983       7.04431844      11.00712016       0.00000000 NULL       0.00022375      -0.01038980       0.00204726
P        2.07547394       3.68008116       5.98628399       0.00000000 NULL      -0.00910970       0.00500112       0.00204726
P        4.14118019       0.94351621       5.45567162       0.00000000 NULL       0.00140586      -0.00070428       0.00231241
P        2.83817023       3.02882122       0.43483544       0.00000000 NULL      -0.00131286      -0.00086537       0.00231240
P        5.29560232       3.11460844      10.47650780       0.00000000 NULL      -0.00009300       0.00156965       0.00231240
P        5.13835298       0.79270972       3.48386469       0.00000000 NULL      -0.00559849       0.01330588       0.02712396
P        2.20898159       2.24064749      13.52553705       0.00000000 NULL       0.01432247      -0.00180451       0.02712396
P        4.92761818       4.05358865       8.50470087       0.00000000 NULL      -0.00872399      -0.01150137       0.02712396
P       -3.72058720       6.15676517       9.02239782       0.00000000 NULL       0.00034122      -0.00133032       0.00190023
P        3.10055895       7.23068702       4.00156164       0.00000000 NULL      -0.00132269       0.00036966       0.00190023
P        0.62002948       0.78644025      14.04323399       0.00000000 NULL       0.00098148       0.00096066       0.00190023
P        0.46571440       3.42823188       8.83928222       0.00000000 NULL      -0.01573644       0.00638056      -0.00745358
P       -1.35557100       4.96951013       3.81844604       0.00000000 NULL       0.01339395       0.01043787      -0.00745358
P        0.88985783       5.77615042      13.86011839       0.00000000 NULL       0.00234249      -0.01681844      -0.00745358
P        1.50801586       5.70807955      11.70144697       0.00000000 NULL      -0.00533142      -0.00961996      -0.01000408
P        0.09768428       2.92692675       6.68061080       0.00000000 NULL      -0.00566542       0.00942712      -0.01000408
P       -1.60569891       5.53888613       1.65977462       0.00000000 NULL       0.01099684       0.00019284      -0.01000408
P        0.92754356       5.63221105       6.14982000       0.00000000 NULL      -0.00439983       0.00562105      -0.00350872
P        0.32221638       3.46756476       1.12898382       0.00000000 NULL       0.00706789       0.00099984      -0.00350872
P       -1.24975871       5.07411662      11.17065617       0.00000000 NULL      -0.00266806      -0.00662089      -0.00350872
P       -0.18921149       3.06061527       3.31068205       0.00000000 NULL       0.00260620       0.00156886      -0.01654196
P       -1.34647338       5.72050089      13.35235440       0.00000000 NULL       0.00005558      -0.00304146      -0.01654196
P        1.53568609       5.39277627       8.33151823       0.00000000 NULL      -0.00266177       0.00147260      -0.01654196
P        1.92538027       2.82535809       3.94512003       0.00000000 NULL       0.00347679       0.01181139      -0.00312514
P        5.57579307       4.00683930      13.98679238       0.00000000 NULL       0.00849057      -0.00891668      -0.00312514
P        4.77377941       0.25474847       8.96595620       0.00000000 NULL      -0.01196736      -0.00289471      -0.00312514
P        6.56211048       1.44229000       9.61463700       0.00000000 NULL       0.00073421      -0.00018235       0.01123729
P        2.05965586       0.68284719       4.59380082       0.00000000 NULL      -0.00052502      -0.00054467       0.01123729
P        3.65318640       4.96180868      -0.42703535       0.00000000 NULL      -0.00020919       0.00072702       0.01123729
P        2.18037376       2.05350077       9.31493914       0.00000000 NULL       0.01475288      -0.03194489      -0.01622823
P        4.77984827       4.17193712       4.29410296       0.00000000 NULL      -0.03504153       0.00319608      -0.01622823
P        5.31473071       0.86150798      14.33577531       0.00000000 NULL       0.02028865       0.02874881      -0.01622823
P        6.97689824       1.66099915      13.09295190       0.00000000 NULL       0.00293867      -0.00794021       0.00767952
P        2.04166967       0.21427588       8.07211572       0.00000000 NULL      -0.00834576       0.00142514       0.00767952
P        3.25638484       5.21167083       3.05127955       0.00000000 NULL       0.00540709       0.00651507       0.00767952
P        3.08519341       6.60571300       6.09779746       0.00000000 NULL      -0.00028700       0.00807114       0.00355028
P        0.08646887       1.11223420       1.07696129       0.00000000 NULL       0.00713331      -0.00378702       0.00355028
P       -3.17166106       6.45594523      11.11863364       0.00000000 NULL      -0.00684631      -0.00428412       0.00355028
P        2.97293999       7.32058174      11.45241820       0.00000000 NULL       0.02013662       0.00040681       0.00101075
P        0.76169007       0.85201415       6.43158203       0.00000000 NULL      -0.00971600      -0.01764223       0.00101075
P       -3.73462883       6.00129654       1.41074585       0.00000000 NULL      -0.01042062       0.01723542       0.00101075
42
Lattice="8.184031161272511 -2.1299198995375663e-14 5.570394637877856e-43 -4.092015580636239 7.087578891025471 -7.194377862792829e-41 -1.0881024841828586e-42 1.5231894328784358e-40 15.081696972222188" Properties=species:S:1:pos:R:3:initial_magmoms:R:1:castep_labels:S:1:forces:R:3 n_minim_iter=5 energy=-222.9133708697213 stress="-8.761783332203067e-07 4.39300362341711e-12 -3.00674253327708e-12 4.39300362341711e-12 -8.761779902798221e-07 -1.7320791562486624e-12 -3.00674253327708e-12 -1.7320791562486624e-12 -6.399112040094829e-06" free_energy=-222.9133708697213 pbc="T T T"
P       -1.93885487       3.45199204       0.96575414       0.00000000 NULL      -0.01426627      -0.00421275      -0.00528865
P       -0.13307453       7.04068045      11.02021879       0.00000000 NULL       0.00348479       0.01446133      -0.00528865
P        2.07193063       3.68248460       5.99298647       0.00000000 NULL       0.01078149      -0.01024858      -0.00528865
P        4.14145725       0.94327076       5.46606447       0.00000000 NULL      -0.00509308       0.00367036       0.02258456
P        2.83818421       3.02933633       0.43883214       0.00000000 NULL       0.00572516       0.00257556       0.02258456
P        5.29640651       3.11497110      10.49329679       0.00000000 NULL      -0.00063208      -0.00624592       0.02258456
P        5.13790389       0.79703035       3.49544093       0.00000000 NULL       0.00055757       0.01062704       0.00870727
P        2.21331298       2.23950843      13.54990558       0.00000000 NULL       0.00892450      -0.00579639       0.00870727
P        4.92483110       4.05103942       8.52267325       0.00000000 NULL      -0.00948207      -0.00483065       0.00870727
P       -3.72165499       6.15551497       9.03583456       0.00000000 NULL      -0.00928802       0.00321765       0.01565912
P        3.09964507       7.23286918       4.00860223       0.00000000 NULL       0.00743058       0.00643484       0.01565912
P        0.62201115       0.78677294      14.06306688       0.00000000 NULL       0.00185745      -0.00965249       0.01565912
P        0.46687400       3.42753452       8.84506013       0.00000000 NULL      -0.02025705       0.00312558       0.00536231
P       -1.35711980       4.96948690       3.81782781       0.00000000 NULL       0.01283536       0.01598033       0.00536231
P        0.89024703       5.77813567      13.87229246       0.00000000 NULL       0.00742169      -0.01910591       0.00536231
P        1.50862709       5.70630690      11.71459632       0.00000000 NULL       0.01086780       0.00406026      -0.00116129
P        0.09547843       2.92791606       6.68736399       0.00000000 NULL      -0.00191761      -0.01144193      -0.00116129
P       -1.60410429       5.54093413       1.66013167       0.00000000 NULL      -0.00895019       0.00738167      -0.00116129
P        0.92500694       5.63147081       6.15649780       0.00000000 NULL      -0.01009684       0.03109443      -0.00852113
P        0.32247855       3.47076398       1.12926547       0.00000000 NULL       0.03197698      -0.00680310      -0.00852113
P       -1.24748426       5.07292229      11.18373012       0.00000000 NULL      -0.02188015      -0.02429133      -0.00852113
P       -0.18722087       3.06233674       3.30925247       0.00000000 NULL       0.00006387       0.00307406       0.00100278
P       -1.34634291       5.71854856      13.36371712       0.00000000 NULL       0.00263028      -0.00159234       0.00100278
P        1.53356502       5.39427178       8.33648479       0.00000000 NULL      -0.00269415      -0.00148172       0.00100278
P        1.92642243       2.82815112       3.95143438       0.00000000 NULL      -0.00006606      -0.00066454       0.00294212
P        5.57805590       4.00517257      14.00589903       0.00000000 NULL      -0.00054248       0.00038948       0.00294213
P        4.77156964       0.25425450       8.97866670       0.00000000 NULL       0.00060854       0.00027506       0.00294213
P        6.56030041       1.44192894       9.63131881       0.00000000 NULL       0.01379677      -0.00749615      -0.00652664
P        2.06061328       0.68522762       4.60408649       0.00000000 NULL      -0.01339024      -0.00820028      -0.00652664
P        3.65513428       4.96042164      -0.42314584       0.00000000 NULL      -0.00040653       0.01569643      -0.00652664
P        2.18063277       2.04847376       9.32137999       0.00000000 NULL       0.01095211       0.01070420      -0.00427531
P        4.77573032       4.17485864       4.29414767       0.00000000 NULL       0.00379406      -0.01483690      -0.00427531
P        5.31968488       0.86424580      14.34861232       0.00000000 NULL      -0.01474616       0.00413270      -0.00427531
P        6.98079171       1.65946337      13.10964159       0.00000000 NULL       0.02303047       0.02084350      -0.01938087
P        2.03875797       0.21230425       8.08240926       0.00000000 NULL       0.00653577      -0.03036673      -0.01938087
P        3.25649829       5.21581057       3.05517694       0.00000000 NULL      -0.02956624       0.00952322      -0.01938087
P        3.08498866       6.60943541       6.10624991       0.00000000 NULL      -0.01463157      -0.01061791      -0.01348259
P        0.08942988       1.11118265       1.07901759       0.00000000 NULL      -0.00187959       0.01798026      -0.01348259
P       -3.17441730       6.45453903      11.13348223       0.00000000 NULL       0.01651116      -0.00736236      -0.01348259
P        2.97506500       7.32039513      11.46846012       0.00000000 NULL      -0.00672722      -0.00933406       0.00237832
P        0.76010088       0.85089946       6.44122780       0.00000000 NULL      -0.00471992       0.01049297       0.00237832
P       -3.73516466       6.00386249       1.41399547       0.00000000 NULL       0.01144714      -0.00115891       0.00237832
42