9
Lattice="5.82588 -1.0838749575193268e-15 1.0976787613467196e-15 0.3795636142425677 5.813502321074888 -4.1066353786454076e-16 0.37956361424256746 0.3555900415129431 5.802617078484494" Properties=species:S:1:pos:R:3:initial_magmoms:R:1:castep_labels:S:1 n_minim_iter=1 pbc="T T T"
P        5.29100624       4.19944460       2.01562782       0.00000000 NULL
P        2.60861373       5.13195505       4.06829316       0.00000000 NULL
P        4.53523834       2.31806205       4.87350377       0.00000000 NULL
P        1.86410026       1.75891033       0.11018299       0.00000000 NULL
P        0.33854891       1.84596531       1.74887745       0.00000000 NULL
P        1.87662188       0.21674507       1.73553666       0.00000000 NULL
P        4.34019317       1.97303252       2.87125621       0.00000000 NULL
P        3.26298695       4.13639355       1.79371427       0.00000000 NULL
P        2.25160980       3.12292665       4.01893379       0.00000000 NULL
9
Lattice="5.82739740586053 -9.868293067802958e-05 -9.282066554321892e-05 0.379564001927545 5.815022932371728 -9.282066554493073e-05 0.3795640019275446 0.35559040471139525 5.804140520068578" Properties=species:S:1:pos:R:3:initial_magmoms:R:1:castep_labels:S:1 n_minim_iter=2 pbc="T T T"
P        5.29246633       4.20033358       2.01598904       0.00000000 NULL
P        2.60912289       5.13338501       4.06915838       0.00000000 NULL
P        4.53622056       2.31850817       4.87487812       0.00000000 NULL
P        1.86464925       1.75932237       0.11018690       0.00000000 NULL
P        0.33861372       1.84651124       1.74928848       0.00000000 NULL
P        1.87706881       0.21678084       1.73605643       0.00000000 NULL
P        4.34120479       1.97339264       2.87180079       0.00000000 NULL
P        3.26361725       4.13736617       1.79404041       0.00000000 NULL
P        2.25203507       3.12353052       4.01988464       0.00000000 NULL
9
Lattice="5.882197837899261 -0.0036363820940203294 -0.0034203626080569044 0.379604137966962 5.869937420952614 -0.0034203626080583725 0.3796041379669618 0.3556280057231543 5.8591557195832875" Properties=species:S:1:pos:R:3:initial_magmoms:R:1:castep_labels:S:1 n_minim_iter=3 pbc="T T T"
P        5.34541128       4.23232362       2.02903452       0.00000000 NULL
P        2.62751827       5.18524166       4.10029059       0.00000000 NULL
P        4.57159207       2.33463331       4.92473344       0.00000000 NULL
P        1.88460425       1.77419576       0.11037416       0.00000000 NULL
P        0.34100814       1.86635239       1.76412256       0.00000000 NULL
P        1.89321069       0.21812645       1.75495308       0.00000000 NULL
P        4.37773141       1.98639964       2.89138003       0.00000000 NULL
P        3.28629196       4.17249013       1.80582546       0.00000000 NULL
P        2.26739419       3.14525071       4.05422198       0.00000000 NULL
9
Lattice="5.882181285852325 -0.0013328032100214456 -0.0012536279592141532 0.3819017442743612 5.869770822929623 -0.0012536279592159755 0.38190174427436063 0.3577804931892114 5.858856902501736" Properties=species:S:1:pos:R:3:initial_magmoms:R:1:castep_labels:S:1 n_minim_iter=4 pbc="T T T"
P        5.35333750       4.23026996       2.03118447       0.00000000 NULL
P        2.63005069       5.19301941       4.09810926       0.00000000 NULL
P        4.57005917       2.33727120       4.93263005       0.00000000 NULL
P        1.88919850       1.77455164       0.11267781       0.00000000 NULL
P        0.34362364       1.87078565       1.76433687       0.00000000 NULL
P        1.89386514       0.22070479       1.75936494       0.00000000 NULL
P        4.37863581       1.98814255       2.89005169       0.00000000 NULL
P        3.28513423       4.17347204       1.80764636       0.00000000 NULL
P        2.26919232       3.14397312       4.05509068       0.00000000 NULL
9
Lattice="5.863061244576275 0.0053301760515951525 0.005013536638857274 0.3873048719445974 5.850257302426706 0.005013536638855658 0.3873048719445971 0.3628423545491129 5.838996580397343" Properties=species:S:1:pos:R:3:initial_magmoms:R:1:castep_labels:S:1 n_minim_iter=5 pbc="T T T"
P        5.36344744       4.20503015       2.02954632       0.00000000 NULL
P        2.62753721       5.20331497       4.07301691       0.00000000 NULL
P        4.54553166       2.33635377       4.94444114       0.00000000 NULL
P        1.90110627       1.76975687       0.11991553       0.00000000 NULL
P        0.35131561       1.88221657       1.75910838       0.00000000 NULL
P        1.88985636       0.22867487       1.77109426       0.00000000 NULL
P        4.36596793       1.98594838       2.87468077       0.00000000 NULL
P        3.26886543       4.16183938       1.80639647       0.00000000 NULL
P        2.26617747       3.12786652       4.04355625       0.00000000 NULL
9
Lattice="5.833307938618359 -0.025082023003360352 -0.02359202399446265 0.35501882037126786 5.822548604503708 -0.023592023994463866 0.355018820371268 0.3325955184761684 5.813089458841468" Properties=species:S:1:pos:R:3:initial_magmoms:R:1:castep_labels:S:1 n_minim_iter=6 pbc="T T T"
P        5.34547396       4.10215699       1.96557518       0.00000000 NULL
P        2.55637151       5.18994964       3.97424925       0.00000000 NULL
P        4.44170607       2.27181533       4.93714208       0.00000000 NULL
P        1.92418926       1.75079517       0.10970457       0.00000000 NULL
P        0.34149196       1.90599010       1.74080675       0.00000000 NULL
P        1.87243884       0.21996750       1.79594271       0.00000000 NULL
P        4.30820841       1.93266290       2.81556252       0.00000000 NULL
P        3.20296779       4.10825934       1.75682681       0.00000000 NULL
P        2.20924210       3.06554588       3.99310853       0.00000000 NULL
