2
Lattice="2.534219999999999 -3.363644965727549e-16 -3.4430897518681654e-17 -0.4666809590333599 2.6408113668673296 -1.0984233391231371e-15 -0.3111059461363484 -1.2414662145217665 6.53650009660213" Properties=species:S:1:pos:R:3:initial_magmoms:R:1:castep_labels:S:1 n_minim_iter=1 pbc="T T T"
P       -0.08240244      -0.14344136       4.91072807       0.00000000 NULL
P       -0.18306036       0.47851881       2.69072608       0.00000000 NULL
2
Lattice="2.5339192258558816 0.0002657288515590187 -0.00019423539892523642 -0.4663486653344171 2.640279473165151 0.0004765854587437365 -0.3117001883373389 -1.2401806895748413 6.535928764657489" Properties=species:S:1:pos:R:3:initial_magmoms:R:1:castep_labels:S:1 n_minim_iter=2 pbc="T T T"
P       -0.08281425      -0.14252276       4.91038159       0.00000000 NULL
P       -0.18316453       0.47877996       2.69069769       0.00000000 NULL
2
Lattice="2.489222419376851 0.039554083453261564 -0.0289015898341594 -0.4171768168244028 2.5618439807435753 0.07158829697554944 -0.3995044624857297 -1.0486022633053123 6.452875345535131" Properties=species:S:1:pos:R:3:initial_magmoms:R:1:castep_labels:S:1 n_minim_iter=3 pbc="T T T"
P       -0.14347546      -0.00567364       4.86071349       0.00000000 NULL
P       -0.19873492       0.51825595       2.68702855       0.00000000 NULL
2
Lattice="2.490430290289378 0.08115284123354964 -0.04755913904868561 -0.3740508127529722 2.5303202252961823 0.13527009187130495 -0.46815450092614114 -0.8933706860343441 6.512013981255369" Properties=species:S:1:pos:R:3:initial_magmoms:R:1:castep_labels:S:1 n_minim_iter=4 pbc="T T T"
P       -0.18532717       0.11681829       4.92794194       0.00000000 NULL
P       -0.20747327       0.56179388       2.72844539       0.00000000 NULL
2
Lattice="2.495952087835632 0.1836847697550576 -0.05442739304669322 -0.2682231559070976 2.445122971480164 0.29431306517816397 -0.5367760618564029 -0.4842517512454878 6.706524722576341" Properties=species:S:1:pos:R:3:initial_magmoms:R:1:castep_labels:S:1 n_minim_iter=5 pbc="T T T"
P       -0.20578285       0.43879511       5.14294990       0.00000000 NULL
P       -0.19464061       0.67481950       2.84565447       0.00000000 NULL
