40
Lattice="10.564999999999923 -1.258690995038666e-06 -2.766483105352072e-13 1.2586909950386952e-06 10.564999999999765 1.8531930600527235e-06 -5.28250262293466 -5.282500734898126 7.777514511115929" Properties=species:S:1:pos:R:3:initial_magmoms:R:1:castep_labels:S:1 n_minim_iter=1 pbc="T T T"
P       -0.30660039       5.27219476       4.00502705       0.00000000 NULL
P        5.58909903      -0.01030590       3.77248931       0.00000000 NULL
P        2.42974159       0.20151364       7.34382333       0.00000000 NULL
P        2.85275709       5.48401481       0.43369311       0.00000000 NULL
P       -0.42304898      -3.37832995       6.54978582       0.00000000 NULL
P        5.70554682       1.90417025       1.22772936       0.00000000 NULL
P        0.80924471      -1.89967341       7.17949806       0.00000000 NULL
P        4.47325347       3.38282731       0.59801764       0.00000000 NULL
P        5.78478681       9.01459649       0.93898957       0.00000000 NULL
P       -0.50228728       3.73209620       6.83852811       0.00000000 NULL
P        4.62716106       6.83290250       0.75990801       0.00000000 NULL
P        0.65533795       1.55040188       7.01760890       0.00000000 NULL
P        6.53282072       2.10470198       3.11066900       0.00000000 NULL
P       -1.25032158       7.38720264       4.66684811       0.00000000 NULL
P        3.02778677       3.16997102       1.97405609       0.00000000 NULL
P        2.25471137      -2.11252956       5.80345954       0.00000000 NULL
P        7.05605281       5.16338465       2.72374904       0.00000000 NULL
P       -1.77355419      -0.11911471       5.05376729       0.00000000 NULL
P        3.43252611       0.11911264       2.61123316       0.00000000 NULL
P        1.84997255       5.40161238       5.16628325       0.00000000 NULL
P        7.86501958      -2.15271698       3.54254668       0.00000000 NULL
P       -2.58252146       3.12978414       4.23496893       0.00000000 NULL
P        2.87639671       7.43521441       3.80229094       0.00000000 NULL
P        2.40610245       2.15271444       3.97522618       0.00000000 NULL
P        5.81296158       1.27918160       5.48922518       0.00000000 NULL
P       -0.53046264       6.56168292       2.28829163       0.00000000 NULL
P        1.55616245       3.99607147       0.77636007       0.00000000 NULL
P        3.72633589      -1.28642988       7.00115584       0.00000000 NULL
P        5.23750854       7.77754349       3.14012111       0.00000000 NULL
P        0.04499070       2.49504385       4.63739613       0.00000000 NULL
P       -2.13277563       2.78745424       7.71127405       0.00000000 NULL
P        7.41527493       8.06995444       0.06624330       0.00000000 NULL
P        5.05747519       3.01227340       4.80173901       0.00000000 NULL
P        0.22502417       8.29477429       2.97577842       0.00000000 NULL
P       -3.25899786      -2.98635612       7.45269865       0.00000000 NULL
P        8.54149578       2.29614373       0.32481667       0.00000000 NULL
P        1.15307716      -1.00484912       4.21763833       0.00000000 NULL
P        4.12942124       4.27765064       3.55987768       0.00000000 NULL
P        7.71575125       1.02827862       1.67265909       0.00000000 NULL
P       -2.43325237       6.31077905       6.10485764       0.00000000 NULL
40
Lattice="10.600080361138057 -1.2616377850332343e-06 -0.0070270597295898135 1.2619894513038478e-06 10.592686056805585 1.8580494356518788e-06 -5.3052158421110525 -5.296343764446281 7.799470360023197" Properties=species:S:1:pos:R:3:initial_magmoms:R:1:castep_labels:S:1 n_minim_iter=2 pbc="T T T"
P       -0.31020288       5.28595601       4.01481137       0.00000000 NULL
P        5.60506866      -0.01038768       3.77763379       0.00000000 NULL
P        2.43270355       0.20223572       7.35970947       0.00000000 NULL
P        2.86216228       5.49857991       0.43273576       0.00000000 NULL
P       -0.42883807      -3.38740625       6.56568241       0.00000000 NULL
P        5.72370304       1.90893698       1.22676156       0.00000000 NULL
P        0.80731021      -1.90436754       7.19612174       0.00000000 NULL
P        4.48755512       3.39197621       0.59632275       0.00000000 NULL
P        5.80339434       9.03843539       0.93763340       0.00000000 NULL
P       -0.50852766       3.74209208       6.85481308       0.00000000 NULL
P        4.64186633       6.85061857       0.75901870       0.00000000 NULL
P        0.65299982       1.55427492       7.03342700       0.00000000 NULL
P        6.55240405       2.11017813       3.11386762       0.00000000 NULL
P       -1.25753776       7.40652182       4.67857828       0.00000000 NULL
P        3.03635770       3.17813161       1.97710869       0.00000000 NULL
P        2.25850758      -2.11821200       5.81533573       0.00000000 NULL
P        7.07772032       5.17686945       2.72557327       0.00000000 NULL
P       -1.78285456      -0.11947294       5.06687185       0.00000000 NULL
P        3.44225003       0.11948462       2.61531882       0.00000000 NULL
P        1.85261578       5.41582739       5.17712638       0.00000000 NULL
P        7.88870239      -2.15816266       3.54573100       0.00000000 NULL
P       -2.59383711       3.13818150       4.24671340       0.00000000 NULL
P        2.88339975       7.45459502       3.80944208       0.00000000 NULL
P        2.41146655       2.15825201       3.98300384       0.00000000 NULL
P        5.82861882       1.28230747       5.49854107       0.00000000 NULL
P       -0.53375273       6.57865182       2.29390454       0.00000000 NULL
P        1.56040536       4.00654130       0.77718948       0.00000000 NULL
P        3.73446012      -1.28980308       7.01525523       0.00000000 NULL
P        5.25282030       7.79794141       3.14405285       0.00000000 NULL
P        0.04204608       2.50159874       4.64839319       0.00000000 NULL
P       -2.14523302       2.79477256       7.73096378       0.00000000 NULL
P        7.44009947       8.09111579       0.06148236       0.00000000 NULL
P        5.07109482       3.02024648       4.80986323       0.00000000 NULL
P        0.22377168       8.31659041       2.98258299       0.00000000 NULL
P       -3.27491579      -2.99421866       7.47256100       0.00000000 NULL
P        8.56978087       2.30212421       0.31988311       0.00000000 NULL
P        1.15424592      -1.00732198       4.22695742       0.00000000 NULL
P        4.14061962       4.28902080       3.56548739       0.00000000 NULL
P        7.74030841       1.03082261       1.67151539       0.00000000 NULL
P       -2.44544238       6.32716607       6.12093013       0.00000000 NULL
40
Lattice="10.878823233013025 -1.283887785161984e-06 -0.06950295279358654 1.2878902915819614e-06 10.810088404691365 1.8961837018329648e-06 -5.490579508555875 -5.405044946352458 7.970768029846379" Properties=species:S:1:pos:R:3:initial_magmoms:R:1:castep_labels:S:1 n_minim_iter=3 pbc="T T T"
P       -0.34126416       5.39400308       4.08947175       0.00000000 NULL
P        5.72950918      -0.01104180       3.81179522       0.00000000 NULL
P        2.45143880       0.20801858       7.47834499       0.00000000 NULL
P        2.93680627       5.61306397       0.42292206       0.00000000 NULL
P       -0.47900247      -3.45882946       6.68686864       0.00000000 NULL
P        5.86724666       1.94621494       1.21439712       0.00000000 NULL
P        0.78754189      -1.94100147       7.32181479       0.00000000 NULL
P        4.60070267       3.46404346       0.57945151       0.00000000 NULL
P        5.95070948       9.22578557       0.92261193       0.00000000 NULL
P       -0.56246355       3.82074108       6.97865638       0.00000000 NULL
P        4.75808567       6.98957037       0.74866947       0.00000000 NULL
P        0.63015973       1.58452554       7.15259806       0.00000000 NULL
P        6.70601493       2.15310323       3.13273678       0.00000000 NULL
P       -1.31776940       7.55814810       4.76853095       0.00000000 NULL
P        3.10308394       3.24210148       1.99809213       0.00000000 NULL
P        2.28516056      -2.16294331       5.90317408       0.00000000 NULL
P        7.24822778       5.28270249       2.73340256       0.00000000 NULL
P       -1.85998279      -0.12234106       5.16786437       0.00000000 NULL
P        3.51793957       0.12247520       2.64364005       0.00000000 NULL
P        1.87030548       5.52751914       5.25762697       0.00000000 NULL
P        8.07461337      -2.20074714       3.56320943       0.00000000 NULL
P       -2.68636888       3.20429820       4.33805678       0.00000000 NULL
P        2.93663620       7.60668427       3.86136913       0.00000000 NULL
P        2.45160935       2.20164009       4.03989862       0.00000000 NULL
P        5.94952378       1.30667832       5.56437388       0.00000000 NULL
P       -0.56127845       6.71172386       2.33689356       0.00000000 NULL
P        1.59335407       4.08877738       0.78220499       0.00000000 NULL
P        3.79489064      -1.31626819       7.11906152       0.00000000 NULL
P        5.37249579       7.95815282       3.16933413       0.00000000 NULL
P        0.01574984       2.55310898       4.73193374       0.00000000 NULL
P       -2.24917577       2.85224837       7.88231028       0.00000000 NULL
P        7.63742147       8.25729277       0.01895770       0.00000000 NULL
P        5.17632559       3.08290290       4.86731018       0.00000000 NULL
P        0.21192016       8.48794802       3.03395788       0.00000000 NULL
P       -3.40616632      -3.05600232       7.62626465       0.00000000 NULL
P        8.79441061       2.34904172       0.27500125       0.00000000 NULL
P        1.16100962      -1.02667090       4.29684198       0.00000000 NULL
P        4.22723515       4.37837306       3.60442464       0.00000000 NULL
P        7.93438967       1.05074938       1.65619279       0.00000000 NULL
P       -2.54614440       6.45579403       6.24507455       0.00000000 NULL
40
Lattice="10.953593616640713 -1.2807871370632735e-06 -0.1379637941761028 1.2933134597160948e-06 10.855608529932514 1.9041683285008605e-06 -5.578362753227324 -5.4278050023551705 7.992662271415492" Properties=species:S:1:pos:R:3:initial_magmoms:R:1:castep_labels:S:1 n_minim_iter=4 pbc="T T T"
P       -0.36851069       5.41655275       4.08584419       0.00000000 NULL
P        5.74374285      -0.01125219       3.76885619       0.00000000 NULL
P        2.41913564       0.20998703       7.45152371       0.00000000 NULL
P        2.95609657       5.63779247       0.40317675       0.00000000 NULL
P       -0.52489960      -3.47491577       6.67995201       0.00000000 NULL
P        5.90013093       1.95288870       1.17474715       0.00000000 NULL
P        0.74801343      -1.94697552       7.30625657       0.00000000 NULL
P        4.62721826       3.48082947       0.54844313       0.00000000 NULL
P        5.98617913       9.26618253       0.88563434       0.00000000 NULL
P       -0.61094606       3.83837798       6.96906739       0.00000000 NULL
P        4.78453111       7.01744186       0.72038679       0.00000000 NULL
P        0.59070143       1.58963697       7.13431416       0.00000000 NULL
P        6.73173708       2.16141748       3.08711492       0.00000000 NULL
P       -1.35650440       7.58922242       4.76758622       0.00000000 NULL
P        3.11049464       3.25470918       1.97834588       0.00000000 NULL
P        2.26473700      -2.17309567       5.87635374       0.00000000 NULL
P        7.28106658       5.30436930       2.68383734       0.00000000 NULL
P       -1.90583445      -0.12343430       5.17086301       0.00000000 NULL
P        3.52605868       0.12372124       2.61927430       0.00000000 NULL
P        1.84917351       5.55152524       5.23542612       0.00000000 NULL
P        8.10681011      -2.20829209       3.50722034       0.00000000 NULL
P       -2.73157848       3.21951332       4.34747927       0.00000000 NULL
P        2.93219572       7.63785820       3.83755618       0.00000000 NULL
P        2.44303697       2.21005396       4.01714498       0.00000000 NULL
P        5.95465146       1.31043403       5.51856536       0.00000000 NULL
P       -0.57941899       6.73823963       2.33613548       0.00000000 NULL
P        1.59636783       4.10623690       0.77125345       0.00000000 NULL
P        3.77886401      -1.32156873       7.08344647       0.00000000 NULL
P        5.38909734       7.99203751       3.12997411       0.00000000 NULL
P       -0.01386457       2.56423361       4.72472717       0.00000000 NULL
P       -2.31553048       2.86435437       7.88360701       0.00000000 NULL
P        7.69076332       8.29215883      -0.02890562       0.00000000 NULL
P        5.18130240       3.09636904       4.82773462       0.00000000 NULL
P        0.19393050       8.52417422       3.02696685       0.00000000 NULL
P       -3.47850481      -3.06925903       7.63593900       0.00000000 NULL
P        8.85373624       2.35854507       0.21876031       0.00000000 NULL
P        1.14320475      -1.03031620       4.28360327       0.00000000 NULL
P        4.23202716       4.39748782       3.57109675       0.00000000 NULL
P        7.97827250       1.05462091       1.60367361       0.00000000 NULL
P       -2.60304009       6.48242562       6.25102714       0.00000000 NULL
40
Lattice="11.017712063204403 -1.2724485206719598e-06 -0.2290513324107282 1.298068650008319e-06 10.895521889024037 1.9111694794972506e-06 -5.677476864133226 -5.447761667566323 7.978259498071169" Properties=species:S:1:pos:R:3:initial_magmoms:R:1:castep_labels:S:1 n_minim_iter=5 pbc="T T T"
P       -0.40324726       5.43618100       4.05896376       0.00000000 NULL
P        5.74348376      -0.01158061       3.69024632       0.00000000 NULL
P        2.36717717       0.21241879       7.37500295       0.00000000 NULL
P        2.97305939       5.66018089       0.37420720       0.00000000 NULL
P       -0.58471623      -3.49033019       6.63464035       0.00000000 NULL
P        5.92495190       1.95743095       1.11456851       0.00000000 NULL
P        0.69333817      -1.95021500       7.24575858       0.00000000 NULL
P        4.64689786       3.49754665       0.50345082       0.00000000 NULL
P        6.01466232       9.30288818       0.83192595       0.00000000 NULL
P       -0.67442490       3.85512697       6.91728548       0.00000000 NULL
P        4.80373009       7.04047623       0.67951760       0.00000000 NULL
P        0.53650679       1.59271467       7.06969304       0.00000000 NULL
P        6.74396238       2.16781549       3.00996317       0.00000000 NULL
P       -1.40372536       7.61557710       4.73924767       0.00000000 NULL
P        3.10987412       3.26472185       1.94208807       0.00000000 NULL
P        2.23036186      -2.18303967       5.80712124       0.00000000 NULL
P        7.30151755       5.32270156       2.60290721       0.00000000 NULL
P       -1.96128108      -0.12505873       5.14630282       0.00000000 NULL
P        3.52572862       0.12556626       2.57325745       0.00000000 NULL
P        1.81450792       5.57332695       5.17595267       0.00000000 NULL
P        8.12306511      -2.21318984       3.41329323       0.00000000 NULL
P       -2.78282913       3.23457224       4.33591607       0.00000000 NULL
P        2.91651495       7.66436756       3.78508416       0.00000000 NULL
P        2.42372208       2.21660664       3.96412670       0.00000000 NULL
P        5.94162411       1.31218515       5.42699811       0.00000000 NULL
P       -0.60138729       6.75994742       2.32221243       0.00000000 NULL
P        1.59388776       4.12207037       0.75261178       0.00000000 NULL
P        3.74634842      -1.32569192       6.99659784       0.00000000 NULL
P        5.39349749       8.02213312       3.05978054       0.00000000 NULL
P       -0.05326038       2.57437254       4.68943045       0.00000000 NULL
P       -2.39684934       2.87518215       7.84186274       0.00000000 NULL
P        7.73708653       8.32294328      -0.09265165       0.00000000 NULL
P        5.17121201       3.10848355       4.74865787       0.00000000 NULL
P        0.16902524       8.55624540       3.00055330       0.00000000 NULL
P       -3.56435407      -3.08128522       7.60718538       0.00000000 NULL
P        8.90458983       2.36647555       0.14202362       0.00000000 NULL
P        1.11625875      -1.03295453       4.24286212       0.00000000 NULL
P        4.22397751       4.41480617       3.50634760       0.00000000 NULL
P        8.01074540       1.05779650       1.52444722       0.00000000 NULL
P       -2.67050865       6.50555790       6.22476323       0.00000000 NULL
40
Lattice="11.06775159763495 -1.267594655049078e-06 -0.29070999278033977 1.3055848570944502e-06 10.958610230787786 1.922235724351678e-06 -5.747887196644848 -5.479305817320535 7.905634077751612" Properties=species:S:1:pos:R:3:initial_magmoms:R:1:castep_labels:S:1 n_minim_iter=6 pbc="T T T"
P       -0.42496414       5.46696452       4.00988042       0.00000000 NULL
P        5.74482985      -0.01234126       3.60504558       0.00000000 NULL
P        2.33004495       0.21601709       7.26498233       0.00000000 NULL
P        2.98982082       5.69532334       0.34994376       0.00000000 NULL
P       -0.62588288      -3.51508481       6.55340960       0.00000000 NULL
P        5.94574776       1.96422049       1.06151518       0.00000000 NULL
P        0.65947331      -1.95453144       7.14856527       0.00000000 NULL
P        4.66039194       3.52477437       0.46636006       0.00000000 NULL
P        6.04009228       9.36124448       0.79142316       0.00000000 NULL
P       -0.72022564       3.88193912       6.82350421       0.00000000 NULL
P        4.81749685       7.07639134       0.65037399       0.00000000 NULL
P        0.50236924       1.59708564       6.96455258       0.00000000 NULL
P        6.75592802       2.17739782       2.93664539       0.00000000 NULL
P       -1.43606179       7.65670361       4.67828139       0.00000000 NULL
P        3.10965447       3.27973402       1.90634339       0.00000000 NULL
P        2.21021072      -2.19957165       5.70858185       0.00000000 NULL
P        7.32130443       5.35113854       2.52721129       0.00000000 NULL
P       -2.00143875      -0.12816591       5.08771468       0.00000000 NULL
P        3.52907040       0.12879584       2.52498183       0.00000000 NULL
P        1.79079534       5.60810072       5.08994423       0.00000000 NULL
P        8.13789405      -2.21989279       3.32243145       0.00000000 NULL
P       -2.81802887       3.25941346       4.29249378       0.00000000 NULL
P        2.90710269       7.70578230       3.72058313       0.00000000 NULL
P        2.41276355       2.22647721       3.89434366       0.00000000 NULL
P        5.93517365       1.31455596       5.32169192       0.00000000 NULL
P       -0.61530762       6.79386239       2.29323455       0.00000000 NULL
P        1.58745975       4.14794381       0.73463241       0.00000000 NULL
P        3.73240564      -1.33136264       6.88029313       0.00000000 NULL
P        5.39921585       8.06978911       2.98586004       0.00000000 NULL
P       -0.07934952       2.59048436       4.62906688       0.00000000 NULL
P       -2.45455765       2.89263604       7.75010050       0.00000000 NULL
P        7.77442405       8.37194132      -0.13517347       0.00000000 NULL
P        5.16840938       3.12745387       4.65825467       0.00000000 NULL
P        0.15145707       8.60675989       2.95667243       0.00000000 NULL
P       -3.62678714      -3.10048104       7.52777083       0.00000000 NULL
P        8.94665212       2.37882388       0.08715409       0.00000000 NULL
P        1.10118395      -1.03658547       4.18299196       0.00000000 NULL
P        4.21868151       4.44271940       3.43193369       0.00000000 NULL
P        8.03745181       1.06301494       1.45738220       0.00000000 NULL
P       -2.71758585       6.54232051       6.15754419       0.00000000 NULL
40
Lattice="11.093740310846323 -1.2760587666081424e-06 -0.2601079035111385 1.3162156407956066e-06 11.047841209724165 1.9378876155814214e-06 -5.738353572772589 -5.523921294608148 7.829717706066157" Properties=species:S:1:pos:R:3:initial_magmoms:R:1:castep_labels:S:1 n_minim_iter=7 pbc="T T T"
P       -0.41036218       5.51037360       3.98041608       0.00000000 NULL
P        5.76575024      -0.01354767       3.58919566       0.00000000 NULL
P        2.35147350       0.21957093       7.21674087       0.00000000 NULL
P        3.00391461       5.74349266       0.35287095       0.00000000 NULL
P       -0.60795784      -3.54830282       6.50588018       0.00000000 NULL
P        5.96334506       1.97561796       1.06373032       0.00000000 NULL
P        0.68684996      -1.96299615       7.09805885       0.00000000 NULL
P        4.66853763       3.56092515       0.47155220       0.00000000 NULL
P        6.06188944       9.44231254       0.80696973       0.00000000 NULL
P       -0.70650044       3.91839169       6.76264339       0.00000000 NULL
P        4.82728735       7.12887070       0.66593627       0.00000000 NULL
P        0.52810109       1.60494951       6.90367603       0.00000000 NULL
P        6.78069930       2.19198547       2.93919062       0.00000000 NULL
P       -1.42531072       7.71590676       4.63042189       0.00000000 NULL
P        3.11961099       3.30174669       1.90783467       0.00000000 NULL
P        2.23577654      -2.22217446       5.66177630       0.00000000 NULL
P        7.34946718       5.39172206       2.52843411       0.00000000 NULL
P       -1.99407916      -0.13219788       5.04117759       0.00000000 NULL
P        3.54754370       0.13249928       2.52151046       0.00000000 NULL
P        1.80784439       5.65641965       5.04810133       0.00000000 NULL
P        8.16556187      -2.23074287       3.31995910       0.00000000 NULL
P       -2.81017434       3.29317888       4.24965186       0.00000000 NULL
P        2.92414200       7.76494603       3.70217190       0.00000000 NULL
P        2.43124659       2.24102545       3.86744063       0.00000000 NULL
P        5.96321691       1.31987255       5.29789705       0.00000000 NULL
P       -0.60782853       6.84379447       2.27171516       0.00000000 NULL
P        1.58384174       4.18458622       0.73448412       0.00000000 NULL
P        3.77154600      -1.33933571       6.83512716       0.00000000 NULL
P        5.42022608       8.13669808       2.97459629       0.00000000 NULL
P       -0.06483740       2.61277785       4.59501637       0.00000000 NULL
P       -2.43947351       2.91720432       7.68171729       0.00000000 NULL
P        7.79486226       8.44112507      -0.11210452       0.00000000 NULL
P        5.19640275       3.15356773       4.63892827       0.00000000 NULL
P        0.15898606       8.67748923       2.93068458       0.00000000 NULL
P       -3.61745095      -3.12700954       7.46072376       0.00000000 NULL
P        8.97283826       2.39691085       0.10888689       0.00000000 NULL
P        1.12036983      -1.04191406       4.15644017       0.00000000 NULL
P        4.23501798       4.48200631       3.41317121       0.00000000 NULL
P        8.06111270       1.07077530       1.46677404       0.00000000 NULL
P       -2.70572438       6.59469637       6.10283808       0.00000000 NULL
40
Lattice="11.04672604343796 -1.269384341769862e-06 -0.2662264583399933 1.3184329879034905e-06 11.066452824678855 1.941152255025259e-06 -5.719350657963242 -5.53322709060112 7.7513388138688475" Properties=species:S:1:pos:R:3:initial_magmoms:R:1:castep_labels:S:1 n_minim_iter=8 pbc="T T T"
P       -0.40832927       5.51880124       3.94039786       0.00000000 NULL
P        5.73570598      -0.01442584       3.54471643       0.00000000 NULL
P        2.33249136       0.22065070       7.13983316       0.00000000 NULL
P        2.99488540       5.75387822       0.34528122       0.00000000 NULL
P       -0.60946821      -3.55711174       6.44098528       0.00000000 NULL
P        5.93684407       1.97611484       1.04412777       0.00000000 NULL
P        0.68223172      -1.96118531       7.02440944       0.00000000 NULL
P        4.64514452       3.57204178       0.46070417       0.00000000 NULL
P        6.03910153       9.46179632       0.79782526       0.00000000 NULL
P       -0.71172389       3.92856968       6.68729041       0.00000000 NULL
P        4.80313691       7.13730677       0.66080571       0.00000000 NULL
P        0.52424018       1.60407979       6.82430916       0.00000000 NULL
P        6.74973265       2.19358444       2.90880881       0.00000000 NULL
P       -1.42235542       7.72681154       4.57630626       0.00000000 NULL
P        3.10203920       3.30410590       1.89090422       0.00000000 NULL
P        2.22533698      -2.22912105       5.59420930       0.00000000 NULL
P        7.31885215       5.39840324       2.49720420       0.00000000 NULL
P       -1.99147547      -0.13482250       4.98791005       0.00000000 NULL
P        3.53244374       0.13467479       2.49714287       0.00000000 NULL
P        1.79493300       5.66790098       4.98797147       0.00000000 NULL
P        8.12729348      -2.22900897       3.28021527       0.00000000 NULL
P       -2.79991731       3.30421858       4.20489824       0.00000000 NULL
P        2.90842379       7.77516369       3.66268205       0.00000000 NULL
P        2.41895345       2.24193731       3.82243304       0.00000000 NULL
P        5.93258827       1.31818425       5.23858057       0.00000000 NULL
P       -0.60521125       6.85141197       2.24653419       0.00000000 NULL
P        1.57036367       4.19377984       0.72655512       0.00000000 NULL
P        3.75701272      -1.33944789       6.75855871       0.00000000 NULL
P        5.39446621       8.15133286       2.93709423       0.00000000 NULL
P       -0.06708887       2.61810682       4.54802099       0.00000000 NULL
P       -2.43529004       2.92269729       7.60082957       0.00000000 NULL
P        7.76266744       8.45592384      -0.11571425       0.00000000 NULL
P        5.17233814       3.15926236       4.58793016       0.00000000 NULL
P        0.15503932       8.69248967       2.89718525       0.00000000 NULL
P       -3.61048725      -3.13288331       7.38507880       0.00000000 NULL
P        8.93786321       2.40034288       0.10003440       0.00000000 NULL
P        1.11565075      -1.04153025       4.11352839       0.00000000 NULL
P        4.21172571       4.49169593       3.37158555       0.00000000 NULL
P        8.02569777       1.07189955       1.44475672       0.00000000 NULL
P       -2.69832081       6.60512643       6.04035796       0.00000000 NULL
40
Lattice="11.072208452194905 -1.2738356971170714e-06 -0.2581570934935817 1.3242251880702365e-06 11.11507047179943 1.9496802139879854e-06 -5.726151537848882 -5.55753591402672 7.755190123994924" Properties=species:S:1:pos:R:3:initial_magmoms:R:1:castep_labels:S:1 n_minim_iter=9 pbc="T T T"
P       -0.40458163       5.54253671       3.94504709       0.00000000 NULL
P        5.75063987      -0.01499919       3.55198789       0.00000000 NULL
P        2.34218274       0.22189911       7.14985510       0.00000000 NULL
P        3.00387556       5.77943546       0.34717996       0.00000000 NULL
P       -0.60509042      -3.57402605       6.44905673       0.00000000 NULL
P        5.95114781       1.98350935       1.04797700       0.00000000 NULL
P        0.69120639      -1.96743931       7.03324808       0.00000000 NULL
P        4.65485138       3.59009661       0.46378621       0.00000000 NULL
P        6.05548045       9.50507473       0.80520505       0.00000000 NULL
P       -0.70942127       3.94753927       6.69183132       0.00000000 NULL
P        4.81343654       7.16701156       0.66773673       0.00000000 NULL
P        0.53262209       1.60947575       6.82929882       0.00000000 NULL
P        6.76791369       2.20238239       2.91996576       0.00000000 NULL
P       -1.42185493       7.75991831       4.57707000       0.00000000 NULL
P        3.10936487       3.31703406       1.89783350       0.00000000 NULL
P        2.23669284      -2.24050172       5.59920070       0.00000000 NULL
P        7.33911150       5.42099450       2.50601479       0.00000000 NULL
P       -1.99305329      -0.13654006       4.99102014       0.00000000 NULL
P        3.54346821       0.13608769       2.50468077       0.00000000 NULL
P        1.80259006       5.69362270       4.99235426       0.00000000 NULL
P        8.14833806      -2.23616127       3.29063896       0.00000000 NULL
P       -2.80228035       3.32137511       4.20639524       0.00000000 NULL
P        2.91791934       7.80790139       3.66953347       0.00000000 NULL
P        2.42813944       2.25036619       3.82750230       0.00000000 NULL
P        5.95014950       1.32224802       5.24950920       0.00000000 NULL
P       -0.60409094       6.87978457       2.24752625       0.00000000 NULL
P        1.57176044       4.21323414       0.72892300       0.00000000 NULL
P        3.77429748      -1.34430242       6.76811151       0.00000000 NULL
P        5.40923831       8.18751634       2.94351112       0.00000000 NULL
P       -0.06317944       2.62998148       4.55352479       0.00000000 NULL
P       -2.43499676       2.93581269       7.60635674       0.00000000 NULL
P        7.78105570       8.49334806      -0.10932072       0.00000000 NULL
P        5.18879700       3.17325329       4.59775789       0.00000000 NULL
P        0.15726200       8.73078942       2.89927821       0.00000000 NULL
P       -3.61426805      -3.14684508       7.39035627       0.00000000 NULL
P        8.96032554       2.41068994       0.10667761       0.00000000 NULL
P        1.12294944      -1.04488160       4.11950101       0.00000000 NULL
P        4.22310855       4.51265340       3.37753360       0.00000000 NULL
P        8.04561806       1.07612808       1.45232122       0.00000000 NULL
P       -2.69955956       6.63366379       6.04471415       0.00000000 NULL
40