64
Lattice="9.425018297331171 0.9515235626681955 0.0 -0.03207023433023498 9.912761432183055 0.0 0.0 0.0 15.267540114024717" Properties=species:S:1:pos:R:3:initial_magmoms:R:1:castep_labels:S:1:forces:R:3 n_minim_iter=1 energy=-340.16498980459585 stress="-0.00016100543982695015 -0.000467923874319528 5.029733062848646e-12 -0.000467923874319528 -4.1927046626416324e-05 4.4339379726368036e-12 5.029733062848646e-12 4.4339379726368036e-12 0.000255328373224982" free_energy=-340.16498980459585 pbc="T T T"
P        3.84958733       4.35553688       6.06789294       0.00000000 NULL      -0.01604671       0.01434756       0.00851180
P       10.27190500       2.02812918       6.06789294       0.00000000 NULL       0.01604671      -0.01434756       0.00851180
P        5.54336073       6.50874811       9.19964718       0.00000000 NULL       0.01604671      -0.01434756      -0.00851180
P       -0.87895694       8.83615582       9.19964718       0.00000000 NULL      -0.01604671       0.01434756      -0.00851180
P        5.33440759      10.07763973      10.40392589       0.00000000 NULL      -0.03167543      -0.02227860      -0.01482801
P        8.75501451       6.21878776      10.40392589       0.00000000 NULL       0.03167543       0.02227860      -0.01482801
P        4.05854048       0.78664527       4.86361422       0.00000000 NULL       0.03167543       0.02227860       0.01482801
P        0.63793356       4.64549723       4.86361422       0.00000000 NULL      -0.03167543      -0.02227860       0.01482801
P        8.99798600       6.83702192       3.14442811       0.00000000 NULL       0.01519641      -0.00480732      -0.00720513
P        5.09143609       9.45940557       3.14442811       0.00000000 NULL      -0.01519641       0.00480732      -0.00720513
P        0.39496206       4.02726308      12.12311200       0.00000000 NULL      -0.01519641       0.00480732       0.00720513
P        4.30151197       1.40487942      12.12311200       0.00000000 NULL       0.01519641      -0.00480732       0.00720513
P        7.45503211       2.15613245       3.48497494       0.00000000 NULL       0.00855502      -0.00619060       0.02135253
P        6.66646022       4.22753361       3.48497494       0.00000000 NULL      -0.00855502       0.00619059       0.02135253
P        1.93791595       8.70815254      11.78256517       0.00000000 NULL      -0.00855502       0.00619059      -0.02135253
P        2.72648785       6.63675139      11.78256517       0.00000000 NULL       0.00855502      -0.00619059      -0.02135253
P        5.66888009       1.58657116       2.24054657       0.00000000 NULL      -0.01235331      -0.00443188       0.00556373
P        8.45261224       4.79709490       2.24054657       0.00000000 NULL       0.01235331       0.00443188       0.00556373
P        3.72406797       9.27771383      13.02699354       0.00000000 NULL       0.01235331       0.00443188      -0.00556373
P        0.94033583       6.06719010      13.02699354       0.00000000 NULL      -0.01235331      -0.00443188      -0.00556373
P        7.22713268       1.27730402       8.04529500       0.00000000 NULL      -0.01323987      -0.00971379       0.04217198
P        6.89435965       5.10636204       8.04529500       0.00000000 NULL       0.01323987       0.00971378       0.04217198
P        2.16581539       9.58698098       7.22224511       0.00000000 NULL       0.01323987       0.00971378      -0.04217198
P        2.49858841       5.75792296       7.22224511       0.00000000 NULL      -0.01323987      -0.00971379      -0.04217198
P        2.42095858       5.66340848      14.59102951       0.00000000 NULL      -0.00773297      -0.00819403       0.04648129
P        2.27551545      -0.23126598      14.59102951       0.00000000 NULL       0.00773297       0.00819403       0.04648129
P        6.97198948       5.20087652       0.67651061       0.00000000 NULL       0.00773297       0.00819403      -0.04648129
P        7.11743261      11.09555097       0.67651061       0.00000000 NULL      -0.00773297      -0.00819403      -0.04648129
P        4.58982990       4.98718606      10.46686152       0.00000000 NULL      -0.00022746      -0.00821199      -0.00065891
P        0.10664413       0.44495644      10.46686152       0.00000000 NULL       0.00022746       0.00821199      -0.00065891
P        4.80311816       5.87709894       4.80067859       0.00000000 NULL       0.00022746       0.00821199       0.00065891
P        9.28630394      10.41932856       4.80067859       0.00000000 NULL      -0.00022746      -0.00821199       0.00065891
P        3.06327501       1.85354804      10.28445890       0.00000000 NULL      -0.00730295      -0.01948418       0.01650335
P        1.63319903       3.57859446      10.28445890       0.00000000 NULL       0.00730295       0.01948418       0.01650335
P        6.32967306       9.01073696       4.98308121       0.00000000 NULL       0.00730295       0.01948418      -0.01650335
P        7.75974904       7.28569053       4.98308121       0.00000000 NULL      -0.00730295      -0.01948418      -0.01650335
P        4.79602461       7.71493283       6.03210004       0.00000000 NULL       0.01121049      -0.00311603      -0.01032710
P        9.29339749       8.58149467       6.03210004       0.00000000 NULL      -0.01121049       0.00311603      -0.01032710
P        4.59692346       3.14935217       9.23544007       0.00000000 NULL      -0.01121049       0.00311603       0.01032709
P        0.09955058       2.28279033       9.23544007       0.00000000 NULL       0.01121049      -0.00311603       0.01032709
P        6.15857462       1.77370731      14.06693808       0.00000000 NULL       0.02858104      -0.00189871       0.01947948
P        7.96291771       4.60995875      14.06693808       0.00000000 NULL      -0.02858104       0.00189871       0.01947948
P        3.23437345       9.09057768       1.20060203       0.00000000 NULL      -0.02858104       0.00189871      -0.01947948
P        1.43003035       6.25432625       1.20060203       0.00000000 NULL       0.02858104      -0.00189871      -0.01947948
P        4.03608166       6.81829512      13.63481429       0.00000000 NULL      -0.00569849       0.00290724       0.01290031
P        0.62832214       8.52660881      13.63481429       0.00000000 NULL       0.00569849      -0.00290724       0.01290031
P        5.35686641       4.04598988       1.63272582       0.00000000 NULL       0.00569849      -0.00290724      -0.01290030
P        8.76462592       2.33767618       1.63272582       0.00000000 NULL      -0.00569849       0.00290724      -0.01290030
P        1.39048969       8.31553978       2.10625419       0.00000000 NULL       0.00532314      -0.00671990      -0.01766122
P        3.27391411       7.02936415       2.10625419       0.00000000 NULL      -0.00532314       0.00671990      -0.01766123
P        8.00245837       2.54874521      13.16128593       0.00000000 NULL      -0.00532314       0.00671990       0.01766122
P        6.11903396       3.83492085      13.16128593       0.00000000 NULL       0.00532314      -0.00671991       0.01766122
P        5.50056442       9.73865509       8.04836723       0.00000000 NULL      -0.00254148      -0.00644987       0.02431534
P        8.58885767       6.55777240       8.04836723       0.00000000 NULL       0.00254148       0.00644987       0.02431534
P        3.89238364       1.12562990       7.21917289       0.00000000 NULL       0.00254148       0.00644987      -0.02431534
P        0.80409039       4.30651259       7.21917289       0.00000000 NULL      -0.00254148      -0.00644987      -0.02431534
P        6.42584584       2.16353920       9.95503952       0.00000000 NULL       0.01314547      -0.02821842      -0.01597794
P        7.69564649       4.22012686       9.95503952       0.00000000 NULL      -0.01314547       0.02821842      -0.01597794
P        2.96710222       8.70074580       5.31250059       0.00000000 NULL      -0.01314547       0.02821842       0.01597794
P        1.69730158       6.64415813       5.31250059       0.00000000 NULL       0.01314547      -0.02821842       0.01597794
P        7.27961854       9.24993742      11.05264141       0.00000000 NULL       0.01904625       0.02688230      -0.01047750
P        6.80980355       7.04649007      11.05264141       0.00000000 NULL      -0.01904625      -0.02688230      -0.01047750
P        2.11332952       1.61434757       4.21489871       0.00000000 NULL      -0.01904625      -0.02688230       0.01047750
P        2.58314451       3.81779493       4.21489871       0.00000000 NULL       0.01904625       0.02688230       0.01047750
64
Lattice="9.427738703601955 0.9576873999352565 0.0 -0.025652897396751653 9.913318314084 0.0 0.0 0.0 15.262142529379373" Properties=species:S:1:pos:R:3:initial_magmoms:R:1:castep_labels:S:1:forces:R:3 n_minim_iter=2 energy=-340.1655465483659 stress="-3.0014228742866338e-05 1.568719569276802e-05 -1.3323988505457653e-12 1.568719569276802e-05 4.052467171862219e-05 -6.934809871912651e-13 -1.3323988505457653e-12 -6.934809871912651e-13 3.314585411554819e-05" free_energy=-340.1655465483659 pbc="T T T"
P        3.85325385       4.35829955       6.06575599       0.00000000 NULL      -0.00825267       0.01234795       0.00204581
P       10.27552776       2.03489071       6.06575599       0.00000000 NULL       0.00825267      -0.01234795       0.00204581
P        5.54883196       6.51270617       9.19638654       0.00000000 NULL       0.00825267      -0.01234795      -0.00204581
P       -0.87344195       8.83611500       9.19638654       0.00000000 NULL      -0.00825267       0.01234795      -0.00204581
P        5.34209885      10.08166261      10.40023337       0.00000000 NULL      -0.02596479      -0.01489543      -0.01783021
P        8.76102986       6.22484596      10.40023337       0.00000000 NULL       0.02596479       0.01489542      -0.01783021
P        4.05998696       0.78934311       4.86190916       0.00000000 NULL       0.02596479       0.01489542       0.01783021
P        0.64105595       4.64615975       4.86190916       0.00000000 NULL      -0.02596479      -0.01489543       0.01783021
P        9.00444026       6.84324732       3.14330946       0.00000000 NULL       0.00842832      -0.00821439      -0.01453993
P        5.09868846       9.46326125       3.14330946       0.00000000 NULL      -0.00842832       0.00821439      -0.01453993
P        0.39764555       4.02775840      12.11883307       0.00000000 NULL      -0.00842832       0.00821439       0.01453993
P        4.30339735       1.40774446      12.11883307       0.00000000 NULL       0.00842832      -0.00821439       0.01453993
P        7.45810182       2.16108373       3.48376361       0.00000000 NULL       0.01155091      -0.01481983       0.02339354
P        6.67067979       4.23210653       3.48376361       0.00000000 NULL      -0.01155091       0.01481983       0.02339353
P        1.94398399       8.70992198      11.77837892       0.00000000 NULL      -0.01155091       0.01481983      -0.02339353
P        2.73140602       6.63889919      11.77837892       0.00000000 NULL       0.01155091      -0.01481983      -0.02339354
P        5.67116169       1.59033333       2.23975986       0.00000000 NULL      -0.01235011      -0.00322919       0.01287288
P        8.45761992       4.80285692       2.23975986       0.00000000 NULL       0.01235010       0.00322919       0.01287289
P        3.73092412       9.28067238      13.02238267       0.00000000 NULL       0.01235010       0.00322919      -0.01287288
P        0.94446589       6.06814879      13.02238267       0.00000000 NULL      -0.01235011      -0.00322919      -0.01287288
P        7.22956078       1.28205295       8.04249164       0.00000000 NULL      -0.02605307      -0.01486294       0.03209093
P        6.89922082       5.11113731       8.04249164       0.00000000 NULL       0.02605307       0.01486294       0.03209093
P        2.17252502       9.58895277       7.21965089       0.00000000 NULL       0.02605307       0.01486294      -0.03209093
P        2.50286498       5.75986841       7.21965089       0.00000000 NULL      -0.02605307      -0.01486294      -0.03209093
P        2.42516192       5.66529959      14.58591619       0.00000000 NULL       0.00596496      -0.01008977       0.04236048
P        2.27588099      -0.22979673      14.58591619       0.00000000 NULL      -0.00596496       0.01008977       0.04236048
P        6.97692389       5.20570613       0.67622634       0.00000000 NULL      -0.00596496       0.01008977      -0.04236048
P        7.12620482      11.10080244       0.67622634       0.00000000 NULL       0.00596496      -0.01008977      -0.04236048
P        4.59408637       4.99044340      10.46316050       0.00000000 NULL      -0.00036537      -0.00073244      -0.00263869
P        0.10695654       0.44505946      10.46316050       0.00000000 NULL       0.00036537       0.00073244      -0.00263869
P        4.80799944       5.88056231       4.79898203       0.00000000 NULL       0.00036537       0.00073243       0.00263869
P        9.29512927      10.42594626       4.79898203       0.00000000 NULL      -0.00036537      -0.00073243       0.00263869
P        3.06515294       1.85562245      10.28083901       0.00000000 NULL       0.00015338      -0.01974042       0.01005805
P        1.63588997       3.57988040      10.28083901       0.00000000 NULL      -0.00015338       0.01974042       0.01005805
P        6.33693287       9.01538326       4.98130351       0.00000000 NULL      -0.00015338       0.01974042      -0.01005805
P        7.76619584       7.29112531       4.98130351       0.00000000 NULL       0.00015338      -0.01974042      -0.01005805
P        4.80210606       7.71848772       6.02995748       0.00000000 NULL       0.01663345      -0.00711121      -0.00771386
P        9.30102265       8.58802085       6.02995748       0.00000000 NULL      -0.01663345       0.00711121      -0.00771386
P        4.59997974       3.15251800       9.23218505       0.00000000 NULL      -0.01663345       0.00711121       0.00771386
P        0.10106316       2.28298486       9.23218505       0.00000000 NULL       0.01663345      -0.00711121       0.00771386
P        6.16112654       1.77780024      14.06198385       0.00000000 NULL       0.03620716       0.00322080       0.01221555
P        7.96765507       4.61539002      14.06198385       0.00000000 NULL      -0.03620716      -0.00322080       0.01221555
P        3.24095927       9.09320547       1.20015868       0.00000000 NULL      -0.03620716      -0.00322080      -0.01221555
P        1.43443074       6.25561570       1.20015868       0.00000000 NULL       0.03620716       0.00322080      -0.01221555
P        4.04139597       6.82131107      13.63000645       0.00000000 NULL      -0.01457499      -0.00764127       0.01562927
P        0.63399404       8.52751010      13.63000645       0.00000000 NULL       0.01457499       0.00764127       0.01562927
P        5.36068984       4.04969465       1.63213608       0.00000000 NULL       0.01457499       0.00764127      -0.01562927
P        8.76809177       2.34349561       1.63213608       0.00000000 NULL      -0.01457499      -0.00764127      -0.01562927
P        1.39619455       8.31691904       2.10549242       0.00000000 NULL       0.00738988      -0.00082845      -0.01983284
P        3.27919546       7.03190214       2.10549242       0.00000000 NULL      -0.00738988       0.00082845      -0.01983284
P        8.00589126       2.55408668      13.15665011       0.00000000 NULL      -0.00738988       0.00082845       0.01983284
P        6.12289035       3.83910358      13.15665011       0.00000000 NULL       0.00738988      -0.00082845       0.01983284
P        5.50810137       9.74278128       8.04554545       0.00000000 NULL       0.01494777      -0.00128995       0.02137291
P        8.59502734       6.56372729       8.04554545       0.00000000 NULL      -0.01494777       0.00128995       0.02137291
P        3.89398444       1.12822443       7.21659708       0.00000000 NULL      -0.01494777       0.00128995      -0.02137291
P        0.80705846       4.30727843       7.21659708       0.00000000 NULL       0.01494777      -0.00128995      -0.02137291
P        6.42869507       2.16780251       9.95150458       0.00000000 NULL       0.01427679      -0.02732341      -0.00661590
P        7.70008654       4.22538775       9.95150458       0.00000000 NULL      -0.01427679       0.02732341      -0.00661590
P        2.97339074       8.70320321       5.31063795       0.00000000 NULL      -0.01427679       0.02732341       0.00661590
P        1.70199927       6.64561797       5.31063795       0.00000000 NULL       0.01427679      -0.02732341       0.00661590
P        7.28725682       9.25522052      11.04872376       0.00000000 NULL       0.02204434       0.02004558      -0.00680618
P        6.81587189       7.05128806      11.04872376       0.00000000 NULL      -0.02204434      -0.02004558      -0.00680618
P        2.11482899       1.61578520       4.21341877       0.00000000 NULL      -0.02204434      -0.02004558       0.00680618
P        2.58621392       3.81971766       4.21341877       0.00000000 NULL       0.02204434       0.02004558       0.00680618
64
Lattice="9.430217031585746 0.9567293812904201 0.0 -0.026338773387011804 9.910048088104075 0.0 0.0 0.0 15.257440134257608" Properties=species:S:1:pos:R:3:initial_magmoms:R:1:castep_labels:S:1:forces:R:3 n_minim_iter=3 energy=-340.16574491078575 stress="4.816135240676828e-05 -5.612119878908402e-05 -2.9965461104660368e-12 -5.612119878908402e-05 -0.00026638590838453486 -3.95321011963086e-12 -2.9965461104660368e-12 -3.95321011963086e-12 -0.0002186588296802804" free_energy=-340.16574491078575 pbc="T T T"
P        3.85394576       4.35667162       6.06389973       0.00000000 NULL      -0.01091643       0.00773020       0.00480152
P       10.27821040       2.03344650       6.06389973       0.00000000 NULL       0.01091643      -0.00773020       0.00480152
P        5.54993250       6.51010585       9.19354040       0.00000000 NULL       0.01091644      -0.00773020      -0.00480152
P       -0.87433214       8.83333097       9.19354040       0.00000000 NULL      -0.01091643       0.00773020      -0.00480152
P        5.34269598      10.07788264      10.39692421       0.00000000 NULL      -0.01990747      -0.01953517      -0.01489606
P        8.76312141       6.22228356      10.39692421       0.00000000 NULL       0.01990747       0.01953517      -0.01489606
P        4.06118228       0.78889483       4.86051593       0.00000000 NULL       0.01990747       0.01953517       0.01489606
P        0.64075685       4.64449391       4.86051593       0.00000000 NULL      -0.01990747      -0.01953517       0.01489606
P        9.00645157       6.84032749       3.14225600       0.00000000 NULL       0.00921304      -0.00183679      -0.01506740
P        5.09936582       9.45983872       3.14225600       0.00000000 NULL      -0.00921304       0.00183679      -0.01506740
P        0.39742669       4.02644998      12.11518414       0.00000000 NULL      -0.00921304       0.00183679       0.01506741
P        4.30451244       1.40693875      12.11518414       0.00000000 NULL       0.00921304      -0.00183679       0.01506740
P        7.46003404       2.15977613       3.48282786       0.00000000 NULL       0.00884549      -0.01801153       0.02643985
P        6.67212213       4.23034198       3.48282786       0.00000000 NULL      -0.00884549       0.01801153       0.02643985
P        1.94384422       8.70700134      11.77461228       0.00000000 NULL      -0.00884549       0.01801153      -0.02643985
P        2.73175613       6.63643549      11.77461228       0.00000000 NULL       0.00884549      -0.01801153      -0.02643985
P        5.67251013       1.58940305       2.23914494       0.00000000 NULL      -0.00581686      -0.00174038       0.01050438
P        8.45964603       4.80071507       2.23914494       0.00000000 NULL       0.00581686       0.00174038       0.01050438
P        3.73136813       9.27737442      13.01829520       0.00000000 NULL       0.00581686       0.00174038      -0.01050438
P        0.94423223       6.06606240      13.01829520       0.00000000 NULL      -0.00581686      -0.00174038      -0.01050438
P        7.23127108       1.28105020       8.04020367       0.00000000 NULL      -0.02429119      -0.00958286       0.02288387
P        6.90088508       5.10906792       8.04020367       0.00000000 NULL       0.02429119       0.00958286       0.02288387
P        2.17260718       9.58572727       7.21723647       0.00000000 NULL       0.02429119       0.00958286      -0.02288386
P        2.50299318       5.75770955       7.21723647       0.00000000 NULL      -0.02429119      -0.00958286      -0.02288386
P        2.42546216       5.66320531      14.58167208       0.00000000 NULL       0.00369471      -0.01791553       0.03673534
P        2.27647697      -0.22981657      14.58167208       0.00000000 NULL      -0.00369471       0.01791553       0.03673534
P        6.97841610       5.20357216       0.67576805       0.00000000 NULL      -0.00369471       0.01791553      -0.03673534
P        7.12740129      11.09659404       0.67576805       0.00000000 NULL       0.00369471      -0.01791553      -0.03673534
P        4.59498207       4.98847845      10.45992135       0.00000000 NULL      -0.00283704      -0.00027306       0.00298227
P        0.10695706       0.44491029      10.45992135       0.00000000 NULL       0.00283704       0.00027306       0.00298227
P        4.80889619       5.87829902       4.79751879       0.00000000 NULL       0.00283704       0.00027306      -0.00298227
P        9.29692120      10.42186718       4.79751879       0.00000000 NULL      -0.00283704      -0.00027306      -0.00298227
P        3.06585300       1.85468492      10.27773125       0.00000000 NULL      -0.00056080      -0.02115741       0.01020776
P        1.63608613       3.57870381      10.27773125       0.00000000 NULL       0.00056080       0.02115741       0.01020776
P        6.33802526       9.01209255       4.97970888       0.00000000 NULL       0.00056081       0.02115741      -0.01020776
P        7.76779213       7.28807366       4.97970888       0.00000000 NULL      -0.00056081      -0.02115741      -0.01020776
P        4.80297081       7.71557176       6.02805391       0.00000000 NULL       0.01138920      -0.00136072      -0.00500345
P        9.30284658       8.58459445       6.02805391       0.00000000 NULL      -0.01138920       0.00136072      -0.00500345
P        4.60090745       3.15120571       9.22938622       0.00000000 NULL      -0.01138920       0.00136072       0.00500345
P        0.10103168       2.28218302       9.22938622       0.00000000 NULL       0.01138920      -0.00136072       0.00500345
P        6.16288025       1.77681274      14.05772387       0.00000000 NULL       0.03236409      -0.00071637       0.00734403
P        7.96927592       4.61330538      14.05772387       0.00000000 NULL      -0.03236409       0.00071637       0.00734403
P        3.24099801       9.08996473       1.19971626       0.00000000 NULL      -0.03236409       0.00071637      -0.00734403
P        1.43460234       6.25347209       1.19971626       0.00000000 NULL       0.03236409      -0.00071637      -0.00734403
P        4.04193404       6.81874028      13.62589875       0.00000000 NULL      -0.01452053      -0.00901074       0.01544893
P        0.63366632       8.52469654      13.62589875       0.00000000 NULL       0.01452053       0.00901074       0.01544892
P        5.36194422       4.04803719       1.63154138       0.00000000 NULL       0.01452053       0.00901074      -0.01544892
P        8.77021194       2.34208093       1.63154138       0.00000000 NULL      -0.01452053      -0.00901074      -0.01544892
P        1.39604509       8.31407353       2.10472706       0.00000000 NULL       0.00627752       0.00309081      -0.01690354
P        3.27955527       7.02936330       2.10472706       0.00000000 NULL      -0.00627752      -0.00309081      -0.01690354
P        8.00783317       2.55270394      13.15271307       0.00000000 NULL      -0.00627752      -0.00309081       0.01690354
P        6.12432299       3.83741417      13.15271307       0.00000000 NULL       0.00627752       0.00309081       0.01690354
P        5.50900695       9.73918258       8.04319274       0.00000000 NULL       0.01120465      -0.00505281       0.01858315
P        8.59681044       6.56098362       8.04319274       0.00000000 NULL      -0.01120465       0.00505281       0.01858315
P        3.89487131       1.12759489       7.21424740       0.00000000 NULL      -0.01120465       0.00505281      -0.01858315
P        0.80706782       4.30579385       7.21424740       0.00000000 NULL       0.01120465      -0.00505281      -0.01858315
P        6.43036523       2.16648821       9.94839860       0.00000000 NULL       0.00780826      -0.02068109      -0.00332742
P        7.70179093       4.22362991       9.94839860       0.00000000 NULL      -0.00780826       0.02068109      -0.00332742
P        2.97351303       8.70028926       5.30904153       0.00000000 NULL      -0.00780826       0.02068109       0.00332742
P        1.70208733       6.64314756       5.30904153       0.00000000 NULL       0.00780826      -0.02068109       0.00332742
P        7.28871925       9.25178855      11.04527912       0.00000000 NULL       0.01469321       0.02029782      -0.00418655
P        6.81709814       7.04837766      11.04527912       0.00000000 NULL      -0.01469321      -0.02029782      -0.00418655
P        2.11515901       1.61498892       4.21216101       0.00000000 NULL      -0.01469321      -0.02029781       0.00418655
P        2.58678012       3.81839981       4.21216101       0.00000000 NULL       0.01469321       0.02029782       0.00418655
64
Lattice="9.434945662126575 0.9568624502667528 0.0 -0.026500928908181474 9.912881177673942 0.0 0.0 0.0 15.260201739066162" Properties=species:S:1:pos:R:3:initial_magmoms:R:1:castep_labels:S:1:forces:R:3 n_minim_iter=4 energy=-340.1661862114856 stress="0.0006323928281938138 -9.972398340069243e-05 -1.2043607563919483e-12 -9.972398340069243e-05 0.00014615464587120063 -4.568970635093551e-12 -1.2043607563919483e-12 -4.568970635093551e-12 8.298003538270555e-05" free_energy=-340.1661862114856 pbc="T T T"
P        3.85564877       4.35808494       6.06504667       0.00000000 NULL      -0.01295438       0.00884700       0.00007422
P       10.28351926       2.03364932       6.06504667       0.00000000 NULL       0.01295438      -0.00884700       0.00007422
P        5.55279596       6.51165869       9.19515506       0.00000000 NULL       0.01295438      -0.00884700      -0.00007422
P       -0.87507453       8.83609431       9.19515506       0.00000000 NULL      -0.01295438       0.00884700      -0.00007422
P        5.34474454      10.08037788      10.39846953       0.00000000 NULL      -0.00582146      -0.01826124      -0.01219647
P        8.76792256       6.22423757      10.39846953       0.00000000 NULL       0.00582146       0.01826124      -0.01219647
P        4.06370019       0.78936575       4.86173221       0.00000000 NULL       0.00582146       0.01826124       0.01219647
P        0.64052218       4.64550606       4.86173221       0.00000000 NULL      -0.00582146      -0.01826124       0.01219647
P        9.01104595       6.84200993       3.14254170       0.00000000 NULL       0.00584709      -0.00515680      -0.00965305
P        5.10162115       9.46260551       3.14254170       0.00000000 NULL      -0.00584709       0.00515680      -0.00965305
P        0.39739879       4.02773370      12.11766004       0.00000000 NULL      -0.00584709       0.00515680       0.00965305
P        4.30682358       1.40713812      12.11766004       0.00000000 NULL       0.00584709      -0.00515680       0.00965305
P        7.46396908       2.15998563       3.48392197       0.00000000 NULL      -0.00152230      -0.00616771       0.01137916
P        6.67519895       4.23174864       3.48392197       0.00000000 NULL       0.00152230       0.00616771       0.01137916
P        1.94447565       8.70975800      11.77627977       0.00000000 NULL       0.00152230       0.00616771      -0.01137916
P        2.73324579       6.63799499      11.77627977       0.00000000 NULL      -0.00152230      -0.00616771      -0.01137916
P        5.67511969       1.58971445       2.23979169       0.00000000 NULL       0.01320676      -0.00367000       0.00363648
P        8.46404834       4.80201981       2.23979169       0.00000000 NULL      -0.01320676       0.00367000       0.00363648
P        3.73332505       9.28002918      13.02041005       0.00000000 NULL      -0.01320676       0.00367000      -0.00363648
P        0.94439639       6.06772381      13.02041005       0.00000000 NULL       0.01320676      -0.00367000      -0.00363648
P        7.23438885       1.28103672       8.04225426       0.00000000 NULL      -0.02353947      -0.00933841       0.02125092
P        6.90477918       5.11069755       8.04225426       0.00000000 NULL       0.02353947       0.00933841       0.02125092
P        2.17405588       9.58870691       7.21794748       0.00000000 NULL       0.02353947       0.00933841      -0.02125092
P        2.50366556       5.75904608       7.21794748       0.00000000 NULL      -0.02353947      -0.00933841      -0.02125092
P        2.42670369       5.66456733      14.58511670       0.00000000 NULL      -0.00277752      -0.00602315       0.01532498
P        2.27751868      -0.22969551      14.58511670       0.00000000 NULL       0.00277752       0.00602315       0.01532498
P        6.98174104       5.20517630       0.67508504       0.00000000 NULL       0.00277752       0.00602315      -0.01532498
P        7.13092606      11.09943914       0.67508504       0.00000000 NULL      -0.00277752      -0.00602315      -0.01532498