14
Lattice="4.404037426811653 -0.9502470194597619 1.7039228831440965 -0.8682000578501546 6.265036893752777 1.085691686610619 5.116624200987216 -0.2987073604275946 15.7474176928955" Properties=species:S:1:pos:R:3:initial_magmoms:R:1:castep_labels:S:1:forces:R:3 n_minim_iter=1 energy=-74.85296313058505 stress="3.483659934197761e-05 -0.0008467680170949105 -0.0006385073948561048 -0.0008467680170949105 0.0002591602939189467 -7.353456373630194e-08 -0.0006385073948561048 -7.353456373630194e-08 -0.0021061541873394433" free_energy=-74.85296313058505 pbc="T T T"
P        0.91307669       4.34319859       4.79903811       0.00000000 NULL      -0.14909008       0.00454058       0.09605177
P        7.73938488       0.67288393      13.73799416       0.00000000 NULL       0.14909008      -0.00454058      -0.09605177
P        2.59888720       4.82520185       1.59525691       0.00000000 NULL      -0.02423394      -0.00939033       0.00379496
P        6.05357437       0.19088067      16.94177536       0.00000000 NULL       0.02423394       0.00939033      -0.00379496
P        0.45724758       4.57112178       2.63077798       0.00000000 NULL      -0.02107173       0.08589003      -0.13103667
P        8.19521399       0.44496074      15.90625428       0.00000000 NULL       0.02107173      -0.08589003       0.13103667
P        3.03474351      -0.18857275       4.21171330       0.00000000 NULL       0.02393960       0.05846189       0.07794627
P        5.61771806       5.20465526      14.32531896       0.00000000 NULL      -0.02393960      -0.05846189      -0.07794627
P        6.44410471       3.56834796      15.62266488       0.00000000 NULL      -0.03060909       0.04859485       0.02513217
P        2.20835686       1.44773456       2.91436738       0.00000000 NULL       0.03060909      -0.04859485      -0.02513217
P        7.54167606       4.00835834      13.78459760       0.00000000 NULL      -0.04060150       0.03146212      -0.01582998
P        1.11078551       1.00772417       4.75243467       0.00000000 NULL       0.04060150      -0.03146212       0.01582998
P        6.16216425       2.19316806      13.67385233       0.00000000 NULL      -0.06640060       0.06641863      -0.05109276
P        2.49029732       2.82291446       4.86317993       0.00000000 NULL       0.06640060      -0.06641863       0.05109276
14
Lattice="4.404219213856653 -0.9448915444557188 1.712558815765692 -0.8600788620060819 6.261864162615321 1.0880330205401632 5.129614371222418 -0.2927578339127528 15.796579764208493" Properties=species:S:1:pos:R:3:initial_magmoms:R:1:castep_labels:S:1:forces:R:3 n_minim_iter=2 energy=-74.85491076792674 stress="0.00041686878591345024 -9.853361397951836e-06 -2.821525952920528e-05 -9.853361397951836e-06 0.0002157904095383517 -1.2412973345097895e-05 -2.821525952920528e-05 -1.2412973345097895e-05 0.0005351047853299424" free_energy=-74.85491076792674 pbc="T T T"
P        0.92157062       4.34274568       4.81382279       0.00000000 NULL      -0.14171110       0.04159918       0.04241547
P        7.75218410       0.68146910      13.78334881       0.00000000 NULL       0.14171110      -0.04159918      -0.04241547
P        2.60555602       4.82645088       1.60204638       0.00000000 NULL      -0.04088774      -0.02021184      -0.01938479
P        6.06819871       0.19776390      16.99512522       0.00000000 NULL       0.04088774       0.02021184       0.01938480
P        0.46462867       4.57037022       2.63816414       0.00000000 NULL      -0.00191880       0.07769016      -0.07503038
P        8.20912605       0.45384456      15.95900746       0.00000000 NULL       0.00191880      -0.07769016       0.07503038
P        3.03810654      -0.18482632       4.22658710       0.00000000 NULL       0.00669098       0.03001837       0.03886372
P        5.63564818       5.20904111      14.37058450       0.00000000 NULL      -0.00669098      -0.03001837      -0.03886372
P        6.46122415       3.57464401      15.67271158       0.00000000 NULL      -0.01370643       0.04966415      -0.00863621
P        2.21253057       1.44957077       2.92446002       0.00000000 NULL       0.01370643      -0.04966415       0.00863621
P        7.55762632       4.01568837      13.83021395       0.00000000 NULL      -0.03718838       0.01178067       0.02227190
P        1.11612840       1.00852641       4.76695765       0.00000000 NULL       0.03718838      -0.01178067      -0.02227190
P        6.17591641       2.19968645      13.71783332       0.00000000 NULL      -0.05684603       0.08622306      -0.02344044
P        2.49783831       2.82452833       4.87933829       0.00000000 NULL       0.05684603      -0.08622305       0.02344044
14
Lattice="4.3987390013514345 -0.9419215972677997 1.7135332802264591 -0.8554359032585012 6.2564350046954065 1.0873381019168131 5.1295733569549355 -0.28941918383444704 15.790576638379592" Properties=species:S:1:pos:R:3:initial_magmoms:R:1:castep_labels:S:1:forces:R:3 n_minim_iter=3 energy=-74.85572934520543 stress="-0.0008745862195080222 0.000349958971641063 0.00037371357774294226 0.000349958971641063 -0.0008758476379892008 8.714862233972222e-05 0.00037371357774294226 8.714862233972222e-05 -0.00018347647881891541" free_energy=-74.85572934520543 pbc="T T T"
P        0.92313483       4.34023061       4.81238936       0.00000000 NULL      -0.14663673       0.04584937       0.04994986
P        7.74974162       0.68486361      13.77905866       0.00000000 NULL       0.14663673      -0.04584937      -0.04994985
P        2.60480700       4.82369865       1.60236397       0.00000000 NULL      -0.02921082      -0.03597620      -0.01418349
P        6.06806946       0.20139557      16.98908405       0.00000000 NULL       0.02921082       0.03597620       0.01418349
P        0.46733692       4.56779561       2.63633516       0.00000000 NULL      -0.00713439       0.05765769      -0.06047300
P        8.20553953       0.45729861      15.95511286       0.00000000 NULL       0.00713439      -0.05765769       0.06047300
P        3.03595998      -0.18269581       4.22614330       0.00000000 NULL       0.02162356       0.00163498       0.04332002
P        5.63691648       5.20779003      14.36530472       0.00000000 NULL      -0.02162356      -0.00163498      -0.04332002
P        6.46111183       3.57599738      15.66745985       0.00000000 NULL      -0.02484056       0.03397653       0.01546937
P        2.21176463       1.44909684       2.92398817       0.00000000 NULL       0.02484056      -0.03397653      -0.01546937
P        7.55528690       4.01680092      13.82661180       0.00000000 NULL       0.01176927       0.00870962      -0.01058224
P        1.11758955       1.00829331       4.76483622       0.00000000 NULL      -0.01176927      -0.00870962       0.01058224
P        6.17424664       2.20227058      13.71318035       0.00000000 NULL      -0.06045036       0.08085625      -0.02448875
P        2.49862981       2.82282365       4.87826767       0.00000000 NULL       0.06045036      -0.08085625       0.02448875
14
Lattice="4.397059423996684 -0.94378394934697 1.7111509717847433 -0.855299270568951 6.265968943657589 1.084792161465133 5.123403525074739 -0.2946423578466008 15.776876599943435" Properties=species:S:1:pos:R:3:initial_magmoms:R:1:castep_labels:S:1:forces:R:3 n_minim_iter=4 energy=-74.8585830075488 stress="-0.00018024201071463296 -0.00015764307377380335 0.00041558458446441256 -0.00015764307377380335 0.000655319748429038 0.00014292608385898178 0.00041558458446441256 0.00014292608385898178 8.801635255599996e-06" free_energy=-74.8585830075488 pbc="T T T"
P        0.91422028       4.34759483       4.80960959       0.00000000 NULL       0.00043478      -0.00751831       0.01693189
P        7.75094340       0.67994781      13.76321014       0.00000000 NULL      -0.00043478       0.00751831      -0.01693189
P        2.60200922       4.82972420       1.59800951       0.00000000 NULL      -0.01721482      -0.01750422       0.01540631
P        6.06315446       0.19781844      16.97481022       0.00000000 NULL       0.01721482       0.01750422      -0.01540631
P        0.46631390       4.57797363       2.62872963       0.00000000 NULL      -0.01137809       0.05233539       0.00147605
P        8.19884977       0.44956900      15.94409010       0.00000000 NULL       0.01137809      -0.05233539      -0.00147605
P        3.03454684      -0.18289782       4.22429380       0.00000000 NULL      -0.01272330      -0.04297794       0.03325854
P        5.63061683       5.21044045      14.34852593       0.00000000 NULL       0.01272330       0.04297794      -0.03325854
P        6.45384672       3.57930480      15.65232271       0.00000000 NULL      -0.04202243       0.02002206       0.01338932
P        2.21131696       1.44823783       2.92049702       0.00000000 NULL       0.04202243      -0.02002206      -0.01338933
P        7.54805943       4.01977765      13.81278478       0.00000000 NULL       0.02835559       0.00348676      -0.02987042
P        1.11710425       1.00776498       4.76003496       0.00000000 NULL      -0.02835559      -0.00348676       0.02987042
P        6.16553825       2.20592164      13.69859128       0.00000000 NULL       0.04186310      -0.01608848      -0.01429005
P        2.49962543       2.82162100       4.87422845       0.00000000 NULL      -0.04186310       0.01608848       0.01429005
14
Lattice="4.397176490784431 -0.9423629611819364 1.7079832060871518 -0.8548854490803919 6.260140020993309 1.0836185680312875 5.113137455763663 -0.29765085595840707 15.77255934743037" Properties=species:S:1:pos:R:3:initial_magmoms:R:1:castep_labels:S:1:forces:R:3 n_minim_iter=5 energy=-74.85893248511312 stress="0.00011125641464734755 -4.82645576420209e-05 -6.929810296553078e-05 -4.82645576420209e-05 -9.012082553335343e-05 -4.195503382664738e-05 -6.929810296553078e-05 -4.195503382664738e-05 0.00010323159740011291" free_energy=-74.85893248511312 pbc="T T T"
P        0.91108795       4.34295771       4.80790580       0.00000000 NULL       0.00865541      -0.01406523       0.00460590
P        7.74434054       0.67716849      13.75625532       0.00000000 NULL      -0.00865541       0.01406523      -0.00460590
P        2.60268578       4.82561185       1.59454881       0.00000000 NULL      -0.01341286      -0.03049311       0.03183821
P        6.05274272       0.19451435      16.96961231       0.00000000 NULL       0.01341286       0.03049311      -0.03183821
P        0.46553175       4.57414575       2.62651592       0.00000000 NULL      -0.00699157       0.03263155      -0.00292486
P        8.18989675       0.44598046      15.93764520       0.00000000 NULL       0.00699157      -0.03263155       0.00292485
P        3.03242549      -0.18324657       4.22231502       0.00000000 NULL      -0.00919513      -0.04266634       0.04101828
P        5.62300301       5.20337277      14.34184610       0.00000000 NULL       0.00919513       0.04266634      -0.04101828
P        6.44484353       3.57375833      15.64594869       0.00000000 NULL      -0.03604783       0.01177582      -0.00228577
P        2.21058497       1.44636787       2.91821243       0.00000000 NULL       0.03604783      -0.01177582       0.00228577
P        7.54130720       4.01440101      13.80531935       0.00000000 NULL       0.01136152       0.00178355      -0.01553293
P        1.11412130       1.00572519       4.75884178       0.00000000 NULL      -0.01136152      -0.00178355       0.01553293
P        6.15773338       2.20208797      13.69257913       0.00000000 NULL       0.03793434      -0.02467979      -0.01934678
P        2.49769512       2.81803823       4.87158199       0.00000000 NULL      -0.03793434       0.02467979       0.01934678
14
Lattice="4.393812635812677 -0.9375802126737516 1.703551660464823 -0.8472163291017007 6.266175735595601 1.0836383054806333 5.103695348616344 -0.28900566948038503 15.749889795707706" Properties=species:S:1:pos:R:3:initial_magmoms:R:1:castep_labels:S:1:forces:R:3 n_minim_iter=6 energy=-74.85975749979546 stress="-0.00014278238370515125 0.0007394644777011657 -0.00038936463385252717 0.0007394644777011657 0.000686397070015351 2.6251714212853355e-05 -0.00038936463385252717 2.6251714212853355e-05 -0.00023937334873322174" free_energy=-74.85975749979546 pbc="T T T"
P        0.91243773       4.34938001       4.80319150       0.00000000 NULL       0.01111364       0.03108144       0.01329345
P        7.73785392       0.69020984      13.73388826       0.00000000 NULL      -0.01111364      -0.03108144      -0.01329345
P        2.60583488       4.83225340       1.59376894       0.00000000 NULL      -0.01466733      -0.02749689       0.03004535
P        6.04445677       0.20733645      16.94331083       0.00000000 NULL       0.01466733       0.02749689      -0.03004535
P        0.46934583       4.58353312       2.62243110       0.00000000 NULL      -0.01666780       0.03184936      -0.00286612
P        8.18094582       0.45605673      15.91464867       0.00000000 NULL       0.01666780      -0.03184935       0.00286612
P        3.02883624      -0.18145450       4.21871158       0.00000000 NULL      -0.02441510      -0.04840628       0.03965763
P        5.62145542       5.22104436      14.31836818       0.00000000 NULL       0.02441510       0.04840628      -0.03965763
P        6.43724330       3.58979424      15.62353052       0.00000000 NULL      -0.01633539       0.01342798      -0.01957130
P        2.21304835       1.44979561       2.91354924       0.00000000 NULL       0.01633539      -0.01342798       0.01957130
P        7.53820343       4.03090513      13.78356416       0.00000000 NULL      -0.01741796      -0.02469441      -0.00866823
P        1.11208823       1.00868472       4.75351560       0.00000000 NULL       0.01741796       0.02469441       0.00866823
P        6.15377138       2.21412835      13.67086012       0.00000000 NULL       0.02398954       0.02244030      -0.01589008
P        2.49652027       2.82546150       4.86621964       0.00000000 NULL      -0.02398954      -0.02244030       0.01589008
14
Lattice="4.396874999721737 -0.9402068821465679 1.7039026366382446 -0.8514765793152078 6.264379751414903 1.0826534011707893 5.11838299655717 -0.2885412874000433 15.725086364299486" Properties=species:S:1:pos:R:3:initial_magmoms:R:1:castep_labels:S:1:forces:R:3 n_minim_iter=7 energy=-74.86181112820782 stress="-3.810445860866546e-05 -2.7418993970625663e-05 0.00011364210800683986 -2.7418993970625663e-05 4.283178717542762e-05 -0.00014152744490702264 0.00011364210800683986 -0.00014152744490702264 -0.00017514855986462287" free_energy=-74.86181112820782 pbc="T T T"
P        0.90937792       4.34773381       4.79949570       0.00000000 NULL      -0.01051609      -0.00569580      -0.00733834
P        7.75440350       0.68789777      13.71214670       0.00000000 NULL       0.01051609       0.00569580       0.00733834
P        2.60008802       4.82232221       1.59923836       0.00000000 NULL      -0.00954078      -0.02971228      -0.00334642
P        6.06369340       0.21330937      16.91240404       0.00000000 NULL       0.00954078       0.02971229       0.00334642
P        0.46627443       4.59071815       2.61609762       0.00000000 NULL      -0.02586936      -0.02110948       0.05254954
P        8.19750699       0.44491343      15.89554478       0.00000000 NULL       0.02586936       0.02110948      -0.05254954
P        3.03178358      -0.18972199       4.22236186       0.00000000 NULL      -0.04447953       0.02498679       0.02455776
P        5.63199783       5.22535357      14.28928054       0.00000000 NULL       0.04447953      -0.02498679      -0.02455776
P        6.44185013       3.59127146      15.60116418       0.00000000 NULL       0.00105763       0.00838570      -0.06373296
P        2.22193128       1.44436013       2.91047822       0.00000000 NULL      -0.00105763      -0.00838570       0.06373296
P        7.54977219       4.02740307      13.76265557       0.00000000 NULL      -0.03700492      -0.01324018       0.01602440
P        1.11400923       1.00822851       4.74898684       0.00000000 NULL       0.03700492       0.01324018      -0.01602440
P        6.16943602       2.21144626      13.64716099       0.00000000 NULL       0.02225400       0.02836308      -0.01410082
P        2.49434539       2.82418532       4.86448141       0.00000000 NULL      -0.02225400      -0.02836308       0.01410082
14
Lattice="4.395200118089188 -0.9378716790294752 1.6996887815139858 -0.8532099472540052 6.265398268422111 1.09445615278731 5.106897590184867 -0.2619530990730977 15.725217172592322" Properties=species:S:1:pos:R:3:initial_magmoms:R:1:castep_labels:S:1:forces:R:3 n_minim_iter=8 energy=-74.8624249535151 stress="-0.00016574004158085472 -0.00011906138394109906 -0.00014111204876111197 -0.00011906138394109906 -1.29694215110003e-05 0.0004414304474882171 -0.00014111204876111197 0.0004414304474882171 0.00011466686668001737" free_energy=-74.8624249535151 pbc="T T T"
P        0.90369482       4.35499604       4.80840527       0.00000000 NULL      -0.00904274      -0.01929739      -0.01211080
P        7.74519294       0.71057745      13.71095684       0.00000000 NULL       0.00904274       0.01929739       0.01211080
P        2.59630367       4.82111956       1.60764094       0.00000000 NULL      -0.01018598      -0.03302378      -0.00602541
P        6.05258409       0.24445393      16.91172117       0.00000000 NULL       0.01018598       0.03302378       0.00602541
P        0.46234776       4.59646514       2.62506444       0.00000000 NULL      -0.02060704      -0.02343585       0.04706565
P        8.18654000       0.46910835      15.89429767       0.00000000 NULL       0.02060704       0.02343585      -0.04706565
P        3.02675010      -0.18425582       4.22442738       0.00000000 NULL      -0.03127986       0.00710288       0.03147464
P        5.62213766       5.24982931      14.29493473       0.00000000 NULL       0.03127986      -0.00710288      -0.03147464
P        6.42747614       3.61816291      15.60520016       0.00000000 NULL       0.01277609      -0.02649153      -0.02691250
P        2.22141162       1.44741058       2.91416194       0.00000000 NULL      -0.01277609       0.02649153       0.02691250
P        7.53779978       4.04915004      13.76777226       0.00000000 NULL      -0.02631547       0.00548974       0.01929987
P        1.11108798       1.01642345       4.75158985       0.00000000 NULL       0.02631547      -0.00548974      -0.01929987
P        6.16075294       2.23447254      13.64868368       0.00000000 NULL       0.00790617       0.02689979      -0.02072347
P        2.48813482       2.83110095       4.87067843       0.00000000 NULL      -0.00790617      -0.02689979       0.02072347
14
Lattice="4.399788958198878 -0.9368122307470081 1.7001279950557169 -0.8503286868921215 6.264232513346336 1.088196108953716 5.115718523944261 -0.27217704617226623 15.71436949081142" Properties=species:S:1:pos:R:3:initial_magmoms:R:1:castep_labels:S:1:forces:R:3 n_minim_iter=9 energy=-74.86347380614436 stress="0.00016198443012977988 5.291320937178893e-05 9.649478585568955e-05 5.291320937178893e-05 -1.126087740396689e-05 5.38253383346639e-05 9.649478585568955e-05 5.38253383346639e-05 -9.857130919011527e-05" free_energy=-74.86347380614436 pbc="T T T"
P        0.90542996       4.35078404       4.80209953       0.00000000 NULL      -0.00114884      -0.00426006       0.00421920
P        7.75974883       0.70445919      13.70059407       0.00000000 NULL       0.00114884       0.00426006      -0.00421920
P        2.59949973       4.81592190       1.60513551       0.00000000 NULL      -0.02969606      -0.00506024      -0.01715555
P        6.06567906       0.23932133      16.89755808       0.00000000 NULL       0.02969606       0.00506024       0.01715555
P        0.46340562       4.59757685       2.62144597       0.00000000 NULL      -0.00319404      -0.01440713       0.01053820
P        8.20177318       0.45766639      15.88124763       0.00000000 NULL       0.00319404       0.01440713      -0.01053820
P        3.02713369      -0.18828417       4.22851661       0.00000000 NULL      -0.01899942       0.00433461       0.01809764
P        5.63804511       5.24352741      14.27417699       0.00000000 NULL       0.01899942      -0.00433462      -0.01809764
P        6.43666668       3.61068764      15.58751913       0.00000000 NULL      -0.00410151      -0.04362947       0.02511721
P        2.22851211       1.44455559       2.91517447       0.00000000 NULL       0.00410151       0.04362947      -0.02511721
P        7.54943666       4.04177651      13.75527783       0.00000000 NULL       0.02603188       0.02312061      -0.01658099
P        1.11574214       1.01346673       4.74741577       0.00000000 NULL      -0.02603188      -0.02312061       0.01658099
P        6.17528589       2.22850360      13.63418455       0.00000000 NULL      -0.01595344      -0.00216762      -0.02322426
P        2.48989291       2.82673963       4.86850905       0.00000000 NULL       0.01595344       0.00216762       0.02322426
14
Lattice="4.3966304175280895 -0.9382976034141773 1.699762758538856 -0.8513114752977798 6.26496437633843 1.0870596044271414 5.108499060077533 -0.2774155942815347 15.717508112002212" Properties=species:S:1:pos:R:3:initial_magmoms:R:1:castep_labels:S:1:forces:R:3 n_minim_iter=10 energy=-74.86360866622579 stress="-0.0002555582844123974 -7.011937216058783e-05 -6.416620678201746e-05 -7.011937216058783e-05 0.00010483016141281107 -0.00012679698266241483 -6.416620678201746e-05 -0.00012679698266241483 0.0001458335172694744" free_energy=-74.86360866622579 pbc="T T T"
P        0.90239935       4.34976466       4.80220306       0.00000000 NULL      -0.00878652      -0.00880575      -0.00381360
P        7.75141865       0.69948652      13.70212741       0.00000000 NULL       0.00878652       0.00880575       0.00381360
P        2.59571214       4.81486370       1.60375277       0.00000000 NULL      -0.02333835       0.00546423      -0.01810187
P        6.05810587       0.23438748      16.90057771       0.00000000 NULL       0.02333835      -0.00546423       0.01810187
P        0.46115167       4.59758398       2.62122633       0.00000000 NULL      -0.00383350      -0.00715835       0.00654035
P        8.19266633       0.45166720      15.88310415       0.00000000 NULL       0.00383350       0.00715835      -0.00654035
P        3.02343696      -0.19026548       4.23000146       0.00000000 NULL      -0.01362540       0.01686336       0.01369949
P        5.63038104       5.23951666      14.27432901       0.00000000 NULL       0.01362540      -0.01686336      -0.01369949
P        6.42736538       3.60544390      15.58905691       0.00000000 NULL      -0.00519132      -0.03511534       0.01510122
P        2.22645262       1.44380728       2.91527356       0.00000000 NULL       0.00519132       0.03511534      -0.01510122
P        7.54024608       4.03735131      13.75596155       0.00000000 NULL       0.02936239       0.02473737      -0.00896833
P        1.11357192       1.01189986       4.74836892       0.00000000 NULL      -0.02936239      -0.02473737       0.00896833
P        6.16761224       2.22413657      13.63514608       0.00000000 NULL      -0.02084112      -0.00907622      -0.02382513
P        2.48620576       2.82511461       4.86918440       0.00000000 NULL       0.02084112       0.00907622       0.02382513
14
Lattice="4.400186906274934 -0.9356014946233904 1.698294345409699 -0.8529677718098382 6.258796316891781 1.0950660965285317 5.118344569678816 -0.25423285532329565 15.7016256384009" Properties=species:S:1:pos:R:3:initial_magmoms:R:1:castep_labels:S:1:forces:R:3 n_minim_iter=11 energy=-74.86484915060731 stress="-4.514346760430444e-05 3.5781137887234266e-05 6.627747221886423e-05 3.5781137887234266e-05 -3.482833487639441e-06 1.8639527914454978e-05 6.627747221886423e-05 1.8639527914454978e-05 6.757083983048663e-05" free_energy=-74.86484915060731 pbc="T T T"
P        0.89978911       4.34919946       4.80493888       0.00000000 NULL       0.01345386      -0.02465764       0.05052277
P        7.76577460       0.71976250      13.69004720       0.00000000 NULL      -0.01345386       0.02465764      -0.05052277
P        2.58839253       4.80379663       1.60975738       0.00000000 NULL       0.00272502       0.00730305      -0.00475448
P        6.07717117       0.26516534      16.88522870       0.00000000 NULL      -0.00272502      -0.00730305       0.00475448
P        0.45761847       4.59660519       2.62960990       0.00000000 NULL       0.01533529       0.01457084      -0.02886771
P        8.20794524       0.47235678      15.86537618       0.00000000 NULL      -0.01533529      -0.01457084       0.02886771
P        3.01953036      -0.18491215       4.23702853       0.00000000 NULL      -0.01346405       0.01208650      -0.01187683
P        5.64603335       5.25387412      14.25795755       0.00000000 NULL       0.01346405      -0.01208650       0.01187683
P        6.43236955       3.61754408      15.57879493       0.00000000 NULL       0.01096192      -0.01807930      -0.02394269
P        2.23319415       1.45141789       2.91619115       0.00000000 NULL      -0.01096192       0.01807930       0.02394269
P        7.55225973       4.05540670      13.74749889       0.00000000 NULL       0.00413762       0.00848715       0.02357762
P        1.11330397       1.01355527       4.74748719       0.00000000 NULL      -0.00413762      -0.00848715      -0.02357762
P        6.17720581       2.24189355      13.61740538       0.00000000 NULL       0.02397761      -0.00857729      -0.01577877
P        2.48835790       2.82706842       4.87758070       0.00000000 NULL      -0.02397761       0.00857729       0.01577877
14
Lattice="4.404812393406601 -0.9373832117993983 1.6950470012946905 -0.8593276018159874 6.256633617970798 1.0993208927384315 5.12155407503865 -0.2449083269170831 15.682720810338193" Properties=species:S:1:pos:R:3:initial_magmoms:R:1:castep_labels:S:1:forces:R:3 n_minim_iter=12 energy=-74.86578652693898 stress="-8.687638608908571e-05 4.349629626618843e-05 7.71927945852937e-05 4.349629626618843e-05 3.176587881325572e-06 1.3672851179934675e-05 7.71927945852937e-05 1.3672851179934675e-05 4.098300400128644e-05" free_energy=-74.86578652693898 pbc="T T T"
P        0.89475054       4.34532412       4.80980603       0.00000000 NULL      -0.01327152       0.00048064      -0.00237351
P        7.77228833       0.72901796      13.66728268       0.00000000 NULL       0.01327153      -0.00048064       0.00237351
P        2.58038018       4.79572668       1.61080879       0.00000000 NULL       0.01663642       0.00653959       0.02417399
P        6.08665869       0.27861540      16.86627992       0.00000000 NULL      -0.01663642      -0.00653959      -0.02417398
P        0.45260376       4.59797220       2.63014452       0.00000000 NULL       0.01927212       0.00421478       0.01782270
P        8.21443511       0.47636988      15.84694418       0.00000000 NULL      -0.01927212      -0.00421478      -0.01782270
P        3.01457456      -0.18251110       4.23866415       0.00000000 NULL       0.00917161       0.00331419      -0.00176819
P        5.65246430       5.25685318      14.23842455       0.00000000 NULL      -0.00917161      -0.00331419       0.00176819
P        6.43129522       3.61679929      15.55950925       0.00000000 NULL       0.00444230      -0.00698769       0.00944397
P        2.23574365       1.45754279       2.91757945       0.00000000 NULL      -0.00444230       0.00698769      -0.00944397
P        7.55630516       4.06239310      13.73533719       0.00000000 NULL       0.00689245       0.00088193      -0.00776262
P        1.11073371       1.01194898       4.74175151       0.00000000 NULL      -0.00689245      -0.00088193       0.00776262
P        6.18261352       2.24694108      13.59451598       0.00000000 NULL       0.01363569       0.00721210      -0.01796632
P        2.48442535       2.82740099       4.88257272       0.00000000 NULL      -0.01363569      -0.00721210       0.01796632
14
Lattice="4.405924885075472 -0.9388594421791301 1.692018933912185 -0.8648751338894514 6.25325232901576 1.1038495181211831 5.119027634688981 -0.23601062327168318 15.66982731310909" Properties=species:S:1:pos:R:3:initial_magmoms:R:1:castep_labels:S:1:forces:R:3 n_minim_iter=13 energy=-74.86636201610938 stress="-8.779229193328662e-05 4.0150623823915796e-05 6.302334566448308e-05 4.0150623823915796e-05 -3.493210209918227e-05 8.536299361070996e-06 6.302334566448308e-05 8.536299361070996e-06 7.279374189247797e-05" free_energy=-74.86636201610938 pbc="T T T"
P        0.88614524       4.34213648       4.81321519       0.00000000 NULL       0.00448802       0.02657269       0.01245190
P        7.77393215       0.73624579      13.65248058       0.00000000 NULL      -0.00448802      -0.02657269      -0.01245190
P        2.57635265       4.79000374       1.61759567       0.00000000 NULL       0.00114578      -0.00362895       0.00998838
P        6.08372474       0.28837853      16.84810010       0.00000000 NULL      -0.00114578       0.00362895      -0.00998838
P        0.45167222       4.59811421       2.63503417       0.00000000 NULL      -0.00068700      -0.01523955      -0.00049654
P        8.20840517       0.48026805      15.83066160       0.00000000 NULL       0.00068700       0.01523955       0.00049654
P        3.01160539      -0.17888031       4.23892049       0.00000000 NULL      -0.00909544      -0.01934932      -0.00432301
P        5.64847199       5.25726257      14.22677527       0.00000000 NULL       0.00909544       0.01934932       0.00432301
P        6.42584859       3.61599571      15.54887773       0.00000000 NULL       0.01125168       0.00534446       0.00215774
P        2.23422880       1.46238655       2.91681804       0.00000000 NULL      -0.01125168      -0.00534446      -0.00215774