6
Lattice="4.825545462578938 -0.6436052160819277 -0.5431025660686163 0.3452906028349141 4.856015968381688 -0.5431025660686163 0.345290602834912 0.28129026518140887 4.878188933319662" Properties=species:S:1:pos:R:3:initial_magmoms:R:1:castep_labels:S:1:forces:R:3 n_minim_iter=1 energy=-30.119315845996017 stress="-0.006281597147603092 0.00035996197378474436 0.0003037518328477505 0.00035996197378474436 -0.006430216910946329 0.0002474507936487202 0.0003037518328477505 0.0002474507936487202 -0.006514649395629326" free_energy=-30.119315845996017 pbc="T T T"
P        1.19703948       2.99332603       3.38522126       0.00000000 NULL       0.21427769       0.76291210       0.66517484
P        3.17352359       3.43238552      -0.01024124       0.00000000 NULL       0.79047911       0.66505326      -0.05704651
P        4.00311205       0.39588529       2.38138532       0.00000000 NULL       0.81113467       0.05134682       0.64018076
P        2.21338777       1.54170098      -0.20077399       0.00000000 NULL      -0.50419427      -0.72079720      -0.29334708
P        1.95735576       0.11421498       1.86331718       0.00000000 NULL      -0.80784782      -0.34770297      -0.29376440
P        0.50758491       2.15527446       1.55350799       0.00000000 NULL      -0.50384938      -0.41081200      -0.66119761
6
Lattice="4.867528671304545 -0.651463525650839 -0.5497337554766489 0.3460825301850569 4.898720952812678 -0.5497337554766496 0.34608253018505447 0.281935407135743 4.9214008779655005" Properties=species:S:1:pos:R:3:initial_magmoms:R:1:castep_labels:S:1:forces:R:3 n_minim_iter=2 energy=-30.16305271757988 stress="0.013332917663260993 0.004948853890337828 0.004176061938404582 0.004948853890337828 0.011289653260229222 0.003402020091597079 0.004176061938404582 0.003402020091597079 0.010128854991269795" free_energy=-30.16305271757988 pbc="T T T"
P        1.20693243       3.02684160       3.42165471       0.00000000 NULL       0.18775845       0.46221726       0.29787557
P        3.20834715       3.46878989      -0.01349726       0.00000000 NULL       0.49063227       0.30884141       0.03904927
P        4.04580510       0.39717336       2.40829636       0.00000000 NULL       0.40165726       0.10880016       0.40553897
P        2.22581166       1.54578151      -0.20744378       0.00000000 NULL      -0.42691794      -0.25975441      -0.18990398
P        1.96386382       0.10954768       1.87561967       0.00000000 NULL      -0.34070249      -0.24868142      -0.32844203
P        0.50432977       2.16863231       1.55865208       0.00000000 NULL      -0.31242755      -0.37142299      -0.22411781
6
Lattice="4.813248093150107 -0.7069044964270654 -0.5965173003291968 0.2808122692827201 4.856770083368396 -0.5965173003291999 0.2808122692827157 0.22876312602835372 4.887915298413426" Properties=species:S:1:pos:R:3:initial_magmoms:R:1:castep_labels:S:1:forces:R:3 n_minim_iter=3 energy=-30.30521464380576 stress="0.00635709985227955 0.002673937569476579 0.002256386865386051 0.002673937569476579 0.005253094474119057 0.001838160827080573 0.002256386865386051 0.001838160827080573 0.0046258983023236555" free_energy=-30.30521464380576 pbc="T T T"
P        1.11823489       2.98219342       3.38465811       0.00000000 NULL       0.20017095       0.19360851       0.06131561
P        3.14668855       3.41922968      -0.08400586       0.00000000 NULL       0.23007995       0.08682795       0.14434816
P        3.98480251       0.31919881       2.37050597       0.00000000 NULL       0.13155133       0.17723455       0.18053928
P        2.15337597       1.47965685      -0.25776626       0.00000000 NULL      -0.28549162      -0.10273759      -0.04488809
P        1.88445999       0.05025995       1.82733151       0.00000000 NULL      -0.15833529      -0.08777651      -0.24758966
P        0.43021289       2.10996979       1.50193217       0.00000000 NULL      -0.11797532      -0.26715690      -0.09372530
6
Lattice="4.854337731714011 -0.853470930639575 -0.7201965442684007 0.14557982076921405 4.926643274966633 -0.7201965442684048 0.14557982076920886 0.1185962955638642 4.97759298655772" Properties=species:S:1:pos:R:3:initial_magmoms:R:1:castep_labels:S:1:forces:R:3 n_minim_iter=4 energy=-30.39128822362885 stress="0.01393794115215445 -0.001297198810400029 -0.001094633773950392 -0.001297198810400029 0.014473523801089874 -0.0008917410834344248 -0.001094633773950392 -0.0008917410834344248 0.014777793442618085" free_energy=-30.39128822362885 pbc="T T T"
P        1.01182636       2.92463999       3.33068155       0.00000000 NULL       0.20137005       0.11202908       0.34544061
P        3.06881049       3.35045310      -0.16618512       0.00000000 NULL       0.15042761       0.36987747       0.11398164
P        3.90170120       0.22770182       2.32284974       0.00000000 NULL       0.39265199       0.12455780       0.05233921
P        2.04583316       1.43130488      -0.32924366       0.00000000 NULL      -0.42813042      -0.03123434      -0.11132264
P        1.81536404      -0.03626788       1.74516659       0.00000000 NULL      -0.11714663      -0.17918883      -0.38837096
P        0.33150243       2.02053693       1.46628953       0.00000000 NULL      -0.19917260      -0.39604118      -0.01206786
6
Lattice="4.851012724805824 -0.86461760268564 -0.7296025994713029 0.13399110072162435 4.925640510637102 -0.7296025994713086 0.1339911007216179 0.10915556909017542 4.9781863620118925" Properties=species:S:1:pos:R:3:initial_magmoms:R:1:castep_labels:S:1:forces:R:3 n_minim_iter=5 energy=-30.43046409902481 stress="0.013603765954857006 0.003424032976659155 0.002889350571714587 0.003424032976659155 0.012190063963340629 0.0023538033630702885 0.002889350571714587 0.0023538033630702885 0.011386926119298427" free_energy=-30.43046409902481 pbc="T T T"
P        1.03383121       2.91732830       3.31363836       0.00000000 NULL      -0.00615216       0.21005325       0.18081286
P        3.06609861       3.33752548      -0.14061821       0.00000000 NULL       0.20447171       0.17008237      -0.07821007
P        3.88849228       0.25289749       2.31850841       0.00000000 NULL       0.20790915      -0.04920226       0.17665343
P        2.00113559       1.42289894      -0.32551987       0.00000000 NULL      -0.16934594      -0.01847652      -0.15254767
P        1.79809495      -0.03967307       1.70306454       0.00000000 NULL      -0.05233249      -0.17763829      -0.13414980
P        0.32467618       1.97630607       1.45737707       0.00000000 NULL      -0.18455027      -0.13481856       0.00744125
6
Lattice="4.827309696413315 -0.9788199328524517 -0.8259715800432601 0.01735495613198067 4.925515827964924 -0.8259715800432684 0.017354956131972105 0.014138178602302933 4.994270250444797" Properties=species:S:1:pos:R:3:initial_magmoms:R:1:castep_labels:S:1:forces:R:3 n_minim_iter=6 energy=-30.512783286592203 stress="0.005176201047628942 -0.004633163862644013 -0.00390966871349925 -0.004633163862644013 0.007089124549520647 -0.003185003404245324 -0.00390966871349925 -0.003185003404245324 0.008175874930699746" free_energy=-30.512783286592203 pbc="T T T"
P        0.91210163       2.86194607       3.25428825       0.00000000 NULL      -0.03958551       0.22884065       0.11697541
P        2.98724938       3.26085467      -0.23711744       0.00000000 NULL       0.21611175       0.10100883      -0.10349507
P        3.79746341       0.14739295       2.27389615       0.00000000 NULL       0.14261534      -0.06986146       0.20590906
P        1.86759727       1.37809280      -0.40594279       0.00000000 NULL      -0.14293022      -0.09472544      -0.01040685
P        1.72721596      -0.13942107       1.59660128       0.00000000 NULL      -0.12166623      -0.03057872      -0.11735642
P        0.21265807       1.86307676       1.42673417       0.00000000 NULL      -0.05454513      -0.13468386      -0.09162613
6
Lattice="4.798868982531935 -0.9670525734489084 -0.8160417613776759 0.023129309200366568 4.89528336527899 -0.8160417613776872 0.023129309200355597 0.01884224321489858 4.962798439646747" Properties=species:S:1:pos:R:3:initial_magmoms:R:1:castep_labels:S:1:forces:R:3 n_minim_iter=7 energy=-30.54493091544047 stress="0.004035695729763236 -0.0036455833009373653 -0.0030763045337747047 -0.0036455833009373653 0.005540870667051725 -0.002506105035674761 -0.0030763045337747047 -0.002506105035674761 0.0063959751412064475" free_energy=-30.54493091544047 pbc="T T T"
P        0.91699709       2.88637656       3.21893480       0.00000000 NULL       0.01981753       0.07239157       0.10977537
P        3.01216510       3.22598039      -0.23131470       0.00000000 NULL       0.07490325       0.10901448      -0.01375686
P        3.76834665       0.15840245       2.30392423       0.00000000 NULL       0.12190684      -0.00493082       0.05289911
P        1.84195947       1.36589124      -0.39630934       0.00000000 NULL      -0.08221647       0.04105549      -0.15344558
P        1.71008306      -0.13373256       1.57266215       0.00000000 NULL       0.02358555      -0.16619718      -0.06174841
P        0.21476527       1.83646335       1.41308630       0.00000000 NULL      -0.15799670      -0.05133355       0.06627637
6
Lattice="4.732308240604096 -0.8808481710537028 -0.7432986713942462 0.09409661617939982 4.812668761857782 -0.7432986713942655 0.09409661617938238 0.07665561095629461 4.8691269693413295" Properties=species:S:1:pos:R:3:initial_magmoms:R:1:castep_labels:S:1:forces:R:3 n_minim_iter=8 energy=-30.623997714749866 stress="0.002131976460022303 0.003391929554281084 0.0028622602582640882 0.003391929554281084 0.0007315291846489393 0.002331734342448925 0.0028622602582640882 0.002331734342448925 -6.407868285625153e-05" free_energy=-30.623997714749866 pbc="T T T"
P        1.02655301       2.99845336       3.14293010       0.00000000 NULL      -0.19089001       0.13428018      -0.55201017
P        3.14407692       3.16529154      -0.13510369       0.00000000 NULL       0.09291402      -0.58015352      -0.11821283
P        3.73558034       0.27703269       2.42718679       0.00000000 NULL      -0.54938811      -0.08150047       0.22520164
P        1.82663667       1.40163407      -0.44781987       0.00000000 NULL       0.26476799       0.09307548       0.17511281
P        1.74198989      -0.18824840       1.55940888       0.00000000 NULL       0.14468290       0.21306178       0.20760821
P        0.16782597       1.83050752       1.45698280       0.00000000 NULL       0.23791320       0.22123654       0.06230034
6
Lattice="4.610480955198837 -0.7000376681082361 -0.5907227666810217 0.24654283350353043 4.656801907561637 -0.5907227666810588 0.24654283350349854 0.20084560206795699 4.689820725515523" Properties=species:S:1:pos:R:3:initial_magmoms:R:1:castep_labels:S:1:forces:R:3 n_minim_iter=9 energy=-30.95170685149497 stress="0.018019469901107015 0.02283739549013558 0.0192712050725295 0.02283739549013558 0.008590451005436043 0.01569924676705837 0.0192712050725295 0.01569924676705837 0.003233733795575372" free_energy=-30.95170685149497 pbc="T T T"
P        1.29004325       3.26833775       2.94875783       0.00000000 NULL      -1.32359518       0.25973691      -1.72466068
P        3.46165920       3.00810580       0.09813804       0.00000000 NULL      -0.01322476      -1.92692612      -1.03952045
P        3.64584780       0.56460311       2.72588209       0.00000000 NULL      -1.88980765      -0.96137619       0.54608132
P        1.78951349       1.46986464      -0.53493913       0.00000000 NULL       1.86230762       0.13040824       0.47866334
P        1.80130607      -0.28256097       1.52462331       0.00000000 NULL       0.50422740       0.77413675       1.69138452
P        0.08745327       1.80919355       1.53889281       0.00000000 NULL       0.86009257       1.72402041       0.04805195
6
Lattice="4.5928499299992245 -0.6726523521839897 -0.5676138250823147 0.26979807242280857 4.633998345544538 -0.5676138250823562 0.26979807242277304 0.2197904336641663 4.663455616407625" Properties=species:S:1:pos:R:3:initial_magmoms:R:1:castep_labels:S:1:forces:R:3 n_minim_iter=10 energy=-30.962717375895735 stress="0.015865989306628 0.028983871020827917 0.024457873113881357 0.028983871020827917 0.0038992366942675414 0.019924555017504807 0.024457873113881357 0.019924555017504807 -0.0028991918301488413" free_energy=-30.962717375895735 pbc="T T T"
P        1.32746271       3.30156208       2.92657145       0.00000000 NULL      -1.51893819       0.23021568      -1.58161996
P        3.50176270       2.99126881       0.13137254       0.00000000 NULL      -0.08162985      -1.81709223      -1.24627708
P        3.63746643       0.60454183       2.76236440       0.00000000 NULL      -1.79607170      -1.18018888       0.49292476
P        1.79058424       1.47511865      -0.54356034       0.00000000 NULL       1.93039242       0.19685893       0.47697936
P        1.80666806      -0.29106168       1.52605978       0.00000000 NULL       0.58307090       0.78143105       1.74415352
P        0.08021216       1.81178172       1.54552185       0.00000000 NULL       0.88317642       1.78877546       0.11383941
6
Lattice="4.610724205419516 -0.5787475469756548 -0.48837279439998965 0.36537741964998355 4.632518296000747 -0.4883727944000892 0.3653774196499001 0.2976539483577752 4.648670334205132" Properties=species:S:1:pos:R:3:initial_magmoms:R:1:castep_labels:S:1:forces:R:3 n_minim_iter=11 energy=-31.43851574254647 stress="0.010227051569347285 0.027209261473559117 0.022960379053418866 0.027209261473559117 -0.0010070070266338682 0.01870462460609051 0.022960379053418866 0.01870462460609051 -0.007389184661715318" free_energy=-31.43851574254647 pbc="T T T"
P        1.32926326       3.49858612       2.94700750       0.00000000 NULL      -1.19268747      -0.10146013      -1.51964942
P        3.69508211       3.00501140       0.09040795       0.00000000 NULL      -0.34049659      -1.69099314      -0.87563473
P        3.69000959       0.59553343       2.95314546       0.00000000 NULL      -1.72491303      -0.86174869       0.15555107
P        1.82582813       1.64044985      -0.53496397       0.00000000 NULL       2.07242913      -0.08525093       0.46116842
P        1.97571050      -0.28240439       1.52568880       0.00000000 NULL       0.33550305       0.79883089       1.94015810
P        0.12286684       1.83896321       1.70705259       0.00000000 NULL       0.85016490       1.94062200      -0.16159345
6
Lattice="4.646731252740743 -0.48999360399494274 -0.4134782892326329 0.45957826745616187 4.649837941609946 -0.4134782892328285 0.4595782674559991 0.374394471390161 4.653147962261128" Properties=species:S:1:pos:R:3:initial_magmoms:R:1:castep_labels:S:1:forces:R:3 n_minim_iter=12 energy=-32.13161426357527 stress="-0.008055064268468484 0.015095685718139028 0.01273840776365378 0.015095685718139028 -0.014287714850401364 0.010377317127229157 0.01273840776365378 0.010377317127229157 -0.01782854401952345" free_energy=-32.13161426357527 pbc="T T T"
P        1.31804442       3.58038396       3.00262648       0.00000000 NULL      -0.10236435      -0.41661474      -1.08747819
P        3.77292260       3.05520927       0.05392164       0.00000000 NULL      -0.42870691      -1.07468390       0.16709283
P        3.75490825       0.57068048       3.02442458       0.00000000 NULL      -1.13916488       0.13064427      -0.22779501
P        1.98067880       1.73786401      -0.46188143       0.00000000 NULL       1.19998938      -0.15974956       0.17380607
P        2.10241995      -0.18817076       1.64347693       0.00000000 NULL       0.08615730       0.37440223       1.16107833
P        0.24077199       1.97273895       1.79078870       0.00000000 NULL       0.38408946       1.14600170      -0.18670402
6
Lattice="4.679101568972984 -0.4918486424358831 -0.4150436527695281 0.46430600757077467 4.681914833822273 -0.4150436527697608 0.4643060075705813 0.3782459149557602 4.685031245647023" Properties=species:S:1:pos:R:3:initial_magmoms:R:1:castep_labels:S:1:forces:R:3 n_minim_iter=13 energy=-32.400922107720035 stress="-0.01334160473910656 -0.0005570936448544099 -0.0004701002841742252 -0.0005570936448544099 -0.013111593842903918 -0.0003829662152167749 -0.0004701002841742252 -0.0003829662152167749 -0.012980922521109862" free_energy=-32.400922107720035 pbc="T T T"
P        1.31760147       3.54293794       3.01992797       0.00000000 NULL       0.23767098      -0.03437216      -0.56696930
P        3.73616032       3.07346457       0.05804718       0.00000000 NULL       0.01438879      -0.51858066       0.33164769
P        3.76535415       0.56807175       2.98460223       0.00000000 NULL      -0.50496260       0.34692606       0.06146711
P        2.06461050       1.72660599      -0.44040242       0.00000000 NULL       0.46816189      -0.18956703      -0.19441258
P        2.10836331      -0.15279121       1.72313612       0.00000000 NULL      -0.09100169      -0.10809124       0.52243894
P        0.27662252       2.05103952       1.77607880       0.00000000 NULL      -0.12425736       0.50368503      -0.15417186
6
Lattice="4.723666429593479 -0.45436560377749485 -0.3834138058217875 0.5100249026232279 4.71798126730793 -0.38341380582205464 0.5100249026230063 0.4154907168922212 4.715264663763852" Properties=species:S:1:pos:R:3:initial_magmoms:R:1:castep_labels:S:1:forces:R:3 n_minim_iter=14 energy=-32.517989141592295 stress="-0.012725764399600858 0.0020987860238576316 0.0017710485305381385 0.0020987860238576316 -0.013592303488301517 0.0014427809756814688 0.0017710485305381385 0.0014427809756814688 -0.014084592668390263" free_energy=-32.517989141592295 pbc="T T T"
P        1.39742240       3.58644895       3.03101139       0.00000000 NULL       0.19620362      -0.07975537      -0.03124661
P        3.79491059       3.09605736       0.12457087       0.00000000 NULL      -0.03844089       0.00422519       0.21056490
P        3.79935822       0.64255606       3.02562957       0.00000000 NULL      -0.00363385       0.20109095      -0.07336456
P        2.16258433       1.75193716      -0.45836574       0.00000000 NULL      -0.12675081      -0.04989661       0.08385937
P        2.15297924      -0.15522353       1.81569270       0.00000000 NULL      -0.07449207       0.06348545      -0.12652416
P        0.28326066       2.14970886       1.80407016       0.00000000 NULL       0.04711400      -0.13914961      -0.06328894
6
Lattice="4.755766623511876 -0.48089768221918205 -0.405802747870045 0.49053058649137954 4.754782697641358 -0.40580274787031156 0.4905305864911584 0.39960971315439403 4.755307187671637" Properties=species:S:1:pos:R:3:initial_magmoms:R:1:castep_labels:S:1:forces:R:3 n_minim_iter=15 energy=-32.558580271145104 stress="-0.0026264739431353687 -0.0002985442532303961 -0.0002519248751927111 -0.0002985442532303961 -0.002503212179570812 -0.00020523004214065616 -0.0002519248751927111 -0.00020523004214065616 -0.002433185947177962" free_energy=-32.558580271145104 pbc="T T T"
P        1.40532926       3.57628164       3.03421842       0.00000000 NULL       0.13075563      -0.01977652       0.01523397
P        3.78655181       3.10086668       0.13369111       0.00000000 NULL       0.00706740       0.03722505       0.12761099
P        3.80237829       0.65000618       3.01506773       0.00000000 NULL       0.03788519       0.12569180      -0.02205681
P        2.16713603       1.74191360      -0.47265200       0.00000000 NULL      -0.07889239       0.00925802      -0.07821344
P        2.14408292      -0.16821583       1.82448715       0.00000000 NULL      -0.00688324      -0.09040794      -0.06485436
P        0.26873805       2.15735456       1.79659195       0.00000000 NULL      -0.08993258      -0.06199041       0.02227966
6
Lattice="4.760136093013056 -0.5048154183732086 -0.4259855921901736 0.4679901638013678 4.763897504902676 -0.42598559219043985 0.46799016380114683 0.38124720509967625 4.767686412776706" Properties=species:S:1:pos:R:3:initial_magmoms:R:1:castep_labels:S:1:forces:R:3 n_minim_iter=16 energy=-32.56638439232572 stress="-8.803766716387902e-05 0.0030857582508035104 0.002603899382855442 0.0030857582508035104 -0.0013620740616483481 0.0021212611736129874 0.002603899382855442 0.0021212611736129874 -0.0020858664043746696" free_energy=-32.56638439232572 pbc="T T T"
P        1.40636094       3.56260863       3.02003842       0.00000000 NULL      -0.05707050      -0.11825363       0.00226251
P        3.77336974       3.08752345       0.13979678       0.00000000 NULL      -0.12734986      -0.00314861      -0.03190898
P        3.78664552       0.65430745       3.00397418       0.00000000 NULL      -0.02883055      -0.05232216      -0.11694987
P        2.15324832       1.72366919      -0.50172850       0.00000000 NULL       0.02942873       0.18055062      -0.03587777
P        2.12340751      -0.19854521       1.81960590       0.00000000 NULL       0.18277190      -0.03665866      -0.00153869
P        0.23485494       2.15016878       1.78349731       0.00000000 NULL       0.00105028       0.02983245       0.18401281
6
Lattice="4.785909428518564 -0.5194059332824754 -0.4382977144189546 0.45891167768509566 4.792088443841163 -0.4382977144192274 0.45891167768486923 0.37385143543167715 4.797546419190434" Properties=species:S:1:pos:R:3:initial_magmoms:R:1:castep_labels:S:1:forces:R:3 n_minim_iter=17 energy=-32.57484091222073 stress="0.004499318982288791 0.003030889646906589 0.002557598862883681 0.003030889646906589 0.0032479364577761133 0.002083542554147663 0.002557598862883681 0.002083542554147663 0.0025370141971456507" free_energy=-32.57484091222073 pbc="T T T"
P        1.40960490       3.56800804       3.02369749       0.00000000 NULL      -0.03785698      -0.03606987      -0.03470516
P        3.77931349       3.09148111       0.14123707       0.00000000 NULL      -0.04297875      -0.03921956      -0.02352208
P        3.79172314       0.65657161       3.00868132       0.00000000 NULL      -0.04709889      -0.02893223      -0.02971962
P        2.15729815       1.74330032      -0.52699286       0.00000000 NULL       0.05963452       0.07420605      -0.04216760
P        2.14345203      -0.22345019       1.82385203       0.00000000 NULL       0.08473027      -0.03426818       0.04987379
P        0.21451676       2.15850258       1.80709766       0.00000000 NULL      -0.01643017       0.06428379       0.08024066
6
Lattice="4.7863873192130635 -0.6137222737812263 -0.5178860167930305 0.36663964405616345 4.8116248783820375 -0.5178860167933259 0.3666396440559183 0.2986822168221621 4.830189316166534" Properties=species:S:1:pos:R:3:initial_magmoms:R:1:castep_labels:S:1:forces:R:3 n_minim_iter=18 energy=-32.59199453687115 stress="-0.0007681861822227456 -0.00025263636799696367 -0.0002131857624352735 -0.00025263636799696367 -0.0006638785999785871 -0.00017367132600911223 -0.0002131857624352735 -0.00017367132600911223 -0.0006046206218548462" free_energy=-32.59199453687115 pbc="T T T"
P        1.33015527       3.51072006       2.96600377       0.00000000 NULL       0.01482352       0.12539654      -0.02083350
P        3.70714581       3.02347146       0.08565617       0.00000000 NULL       0.12580397      -0.02235888      -0.00717668
P        3.71052742       0.59220859       2.96191189       0.00000000 NULL       0.00353727       0.01440586       0.12711421
P        2.10678567       1.72854094      -0.64600368       0.00000000 NULL       0.02901640      -0.11516917      -0.05505957
P        2.11878507      -0.34858362       1.79804329       0.00000000 NULL      -0.10692446      -0.04558050       0.06022477
P        0.08698036       2.13325337       1.81256306       0.00000000 NULL      -0.06625670       0.04330615      -0.10426923
6
Lattice="4.787912186584483 -0.6459653888260353 -0.5450941842865707 0.3353706589383644 4.8196370103077655 -0.5450941842868808 0.3353706589381071 0.2732090036981328 4.842663050550815" Properties=species:S:1:pos:R:3:initial_magmoms:R:1:castep_labels:S:1:forces:R:3 n_minim_iter=19 energy=-32.5965780736673 stress="-0.002013183495900577 0.00012304886101874624 0.00010383407724929772 0.00012304886101874624 -0.0020639875293995413 8.458820160665492e-05 0.00010383407724929772 8.458820160665492e-05 -0.002092849679943437" free_energy=-32.5965780736673 pbc="T T T"
P        1.30532073       3.49944775       2.94325789       0.00000000 NULL      -0.01106121       0.05787813       0.03303732
P        3.69108536       2.99734252       0.06775269       0.00000000 NULL       0.05444662       0.02877708      -0.02776938
P        3.68169104       0.57280332       2.95462540       0.00000000 NULL       0.03919057      -0.01938487       0.05149776
P        2.09308305       1.71906867      -0.69215548       0.00000000 NULL       0.00006469      -0.06169439      -0.01251843
P        2.10673809      -0.39601288       1.79446411       0.00000000 NULL      -0.06040728      -0.01023183       0.01446314
P        0.03809495       2.12935363       1.81098726       0.00000000 NULL      -0.02223338       0.00465587      -0.05871041
6
Lattice="4.792785821583284 -0.6661943894667244 -0.562164310324141 0.31654472684363655 4.828499801391101 -0.5621643103244617 0.3165447268433704 0.2578724976138811 4.854270369356342" Properties=species:S:1:pos:R:3:initial_magmoms:R:1:castep_labels:S:1:forces:R:3 n_minim_iter=20 energy=-32.597929018820174 stress="-0.0011036652307264696 -3.181079573900619e-05 -2.6843345172562354e-05 -3.181079573900619e-05 -0.0010905311799892076 -2.1867897346963946e-05 -2.6843345172562354e-05 -2.1867897346963946e-05 -0.0010830696663183498" free_energy=-32.597929018820174 pbc="T T T"
P        1.28966288       3.49496453       2.93420587       0.00000000 NULL      -0.00873652      -0.00977699       0.04079193
P        3.68352909       2.98599299       0.05505239       0.00000000 NULL      -0.01134140       0.03910445      -0.01334589
P        3.66904819       0.55942527       2.95172835       0.00000000 NULL       0.03600397      -0.01635333      -0.01649790
P        2.08660105       1.71289713      -0.71860853       0.00000000 NULL       0.00789464      -0.01024059      -0.01584538
P        2.09938349      -0.42294692       1.79388506       0.00000000 NULL      -0.00843302      -0.01397125       0.01232718
P        0.01023020       2.12848729       1.80935234       0.00000000 NULL      -0.01538768       0.01123771      -0.00742995
6
Lattice="4.803470481024003 -0.6853543151503927 -0.5783323035977566 0.2999406369267615 4.8428374754562915 -0.5783323035980914 0.29994063692648343 0.24434601059840338 4.8711228781640985" Properties=species:S:1:pos:R:3:initial_magmoms:R:1:castep_labels:S:1:forces:R:3 n_minim_iter=21 energy=-32.598893650403625 stress="0.00014112044654285917 0.0001767869208876944 0.00014918062806701884 0.0001767869208876944 6.812919085057482e-05 0.00012152969033030705 0.00014918062806701884 0.00012152969033030705 2.6662104108204286e-05" free_energy=-32.598893650403625 pbc="T T T"
P        1.27960704       3.48831296       2.93279097       0.00000000 NULL      -0.01276079      -0.02839120       0.05185375
P        3.67498185       2.98316819       0.04690805       0.00000000 NULL      -0.03038482       0.04997881      -0.01538151
P        3.66455368       0.55008523       2.94540948       0.00000000 NULL       0.04280366      -0.02186618      -0.03670730
P        2.08922668       1.70694766      -0.74665629       0.00000000 NULL      -0.01291956       0.01916275      -0.00356083
P        2.09408772      -0.44996047       1.80232247       0.00000000 NULL       0.01615502      -0.00628953      -0.01569276
P       -0.01729618       2.13685079       1.80820452       0.00000000 NULL      -0.00289351      -0.01259465       0.01948866
