7
Lattice="4.919039999999998 3.795603510915389e-16 1.2643835276736e-15 2.3646502918477394 5.101038903808163 1.6258817232048811e-15 0.9430635690888942 1.2097998592416819 6.398405980346677" Properties=species:S:1:pos:R:3:initial_magmoms:R:1:castep_labels:S:1 n_minim_iter=1 pbc="T T T"
P        4.83443443       1.82056083       1.63360710       0.00000000 NULL
P        2.42735884       0.46306174       2.08934637       0.00000000 NULL
P        5.75361365       5.78379301       6.20260836       0.00000000 NULL
P        4.02169811       4.18735024       5.90833991       0.00000000 NULL
P        1.12369848       1.35275311       5.47999606       0.00000000 NULL
P        4.38304269       4.07741696       3.41279458       0.00000000 NULL
P        3.18263952       3.75799272       1.76914774       0.00000000 NULL
7
Lattice="4.9162691410236015 0.0010454092955866827 0.00040468339960888296 2.364402390021364 5.0999847093175665 -0.0012132025883044026 0.9433158476934835 1.207865299422407 6.400732363257073" Properties=species:S:1:pos:R:3:initial_magmoms:R:1:castep_labels:S:1 n_minim_iter=2 pbc="T T T"
P        4.83214251       1.82059185       1.63419332       0.00000000 NULL
P        2.42634882       0.46307097       2.09006804       0.00000000 NULL
P        5.75200249       5.78157541       6.20394495       0.00000000 NULL
P        4.02084000       4.18541054       5.90985871       0.00000000 NULL
P        1.12386336       1.35094801       5.48198087       0.00000000 NULL
P        4.38185622       4.07602401       3.41368190       0.00000000 NULL
P        3.18167768       3.75691925       1.76900603       0.00000000 NULL
7
Lattice="4.543461467739901 0.13908384651218686 0.05351116935515781 2.328334308653736 4.955661087218473 -0.175103217479603 0.9748696476823255 0.9342250016079754 6.743968938418073" Properties=species:S:1:pos:R:3:initial_magmoms:R:1:castep_labels:S:1 n_minim_iter=3 pbc="T T T"
P        4.52278601       1.81804416       1.71694121       0.00000000 NULL
P        2.28977573       0.46034256       2.19235627       0.00000000 NULL
P        5.53099919       5.46645844       6.40163377       0.00000000 NULL
P        3.90176524       3.91012432       6.13401834       0.00000000 NULL
P        1.14323627       1.09623479       5.77577067       0.00000000 NULL
P        4.21846792       3.87757693       3.54641381       0.00000000 NULL
P        3.04970854       3.60624865       1.75009522       0.00000000 NULL
7
Lattice="4.237651027808127 0.19336144971599237 0.06216143911805067 2.2376128303801925 4.733606309641314 -0.26458471609831985 0.940841522184615 0.7683230520812135 6.639763330087898" Properties=species:S:1:pos:R:3:initial_magmoms:R:1:castep_labels:S:1 n_minim_iter=4 pbc="T T T"
P        4.23693744       1.75329066       1.68660985       0.00000000 NULL
P        2.15035775       0.43515909       2.14452422       0.00000000 NULL
P        5.24462956       5.14135161       6.21646862       0.00000000 NULL
P        3.70780596       3.64902513       5.97576916       0.00000000 NULL
P        1.10493460       0.93528326       5.68321379       0.00000000 NULL
P        4.00554103       3.65953751       3.44784230       0.00000000 NULL
P        2.89034872       3.41574958       1.66799530       0.00000000 NULL
7
Lattice="4.334288575624183 0.1910939539449268 0.11001824029453453 2.2817164403334376 4.894922223180121 -0.32352756928568555 1.0210603001442606 0.7036152170762032 6.798065024415609" Properties=species:S:1:pos:R:3:initial_magmoms:R:1:castep_labels:S:1 n_minim_iter=5 pbc="T T T"
P        4.34754063       1.77955113       1.75274240       0.00000000 NULL
P        2.22063116       0.42175541       2.21026861       0.00000000 NULL
P        5.42120607       5.22761537       6.34039033       0.00000000 NULL
P        3.83823012       3.67712076       6.10299453       0.00000000 NULL
P        1.17829546       0.89806529       5.80942049       0.00000000 NULL
P        4.12815928       3.72685487       3.52719613       0.00000000 NULL
P        2.95979561       3.50361490       1.68323699       0.00000000 NULL
7
Lattice="4.289768754699353 0.1900873784622304 0.11957709527665673 2.259271331482957 4.859069676845412 -0.3517317555101529 1.0247111464047154 0.6538927226514485 6.751405780441001" Properties=species:S:1:pos:R:3:initial_magmoms:R:1:castep_labels:S:1 n_minim_iter=6 pbc="T T T"
P        4.30586405       1.75465806       1.74402931       0.00000000 NULL
P        2.20296608       0.40571138       2.19636823       0.00000000 NULL
P        5.38107370       5.14805703       6.27334260       0.00000000 NULL
P        3.81104913       3.60932693       6.04387010       0.00000000 NULL
P        1.17941744       0.85344591       5.76734218       0.00000000 NULL
P        4.09585996       3.67440053       3.48930162       0.00000000 NULL
P        2.93188998       3.46467031       1.65551931       0.00000000 NULL
7
Lattice="4.272588555661198 0.19011545170335412 0.13517225347427136 2.2510416850530732 4.850985718611745 -0.3874167237793877 1.0417096047739622 0.5978132885227851 6.737617013665898" Properties=species:S:1:pos:R:3:initial_magmoms:R:1:castep_labels:S:1 n_minim_iter=7 pbc="T T T"
P        4.29374674       1.73681790       1.74633325       0.00000000 NULL
P        2.20171437       0.38923535       2.19522233       0.00000000 NULL
P        5.38262577       5.08846092       6.23456043       0.00000000 NULL
P        3.81372187       3.55153366       6.01310417       0.00000000 NULL
P        1.19347975       0.80631332       5.75238290       0.00000000 NULL
P        4.09353637       3.63700176       3.46827074       0.00000000 NULL
P        2.92356725       3.44272032       1.63287024       0.00000000 NULL
7
Lattice="4.251086970010375 0.19132508218597144 0.16701470425980547 2.2419599620678223 4.8376386771249384 -0.46766334494356876 1.0793037239959489 0.47488552643781434 6.71558387208317" Properties=species:S:1:pos:R:3:initial_magmoms:R:1:castep_labels:S:1 n_minim_iter=8 pbc="T T T"
P        4.28305909       1.69986067       1.75017944       0.00000000 NULL
P        2.20583222       0.35363849       2.19444696       0.00000000 NULL
P        5.40341631       4.96219502       6.15463052       0.00000000 NULL
P        3.83087820       3.42793551       5.95181939       0.00000000 NULL
P        1.22560365       0.70329085       5.72691658       0.00000000 NULL
P        4.10200156       3.55856932       3.42386620       0.00000000 NULL
P        2.91593688       3.39804359       1.58307223       0.00000000 NULL
7
Lattice="4.246569507976201 0.19529951349144944 0.19404465652594452 2.243909836594607 4.823598062926737 -0.5603215196590825 1.1145741468412411 0.33934170381837686 6.708030136637896" Properties=species:S:1:pos:R:3:initial_magmoms:R:1:castep_labels:S:1 n_minim_iter=9 pbc="T T T"
P        4.28875987       1.66146135       1.74941074       0.00000000 NULL
P        2.21600019       0.31541962       2.19547592       0.00000000 NULL
P        5.44180466       4.82449471       6.07486733       0.00000000 NULL
P        3.85824415       3.29350200       5.89505428       0.00000000 NULL
P        1.25709167       0.58913758       5.71398439       0.00000000 NULL
P        4.12451544       3.47399690       3.37694098       0.00000000 NULL
P        2.91960460       3.35047716       1.52746425       0.00000000 NULL
7
Lattice="4.243646009391744 0.19806279548291586 0.2146627749043532 2.2453699908441576 4.8033712340094645 -0.662533714710368 1.141512139842103 0.19411884558105236 6.709599874170854" Properties=species:S:1:pos:R:3:initial_magmoms:R:1:castep_labels:S:1 n_minim_iter=10 pbc="T T T"
P        4.29350795       1.61737355       1.74222930       0.00000000 NULL
P        2.22325374       0.27365171       2.19574685       0.00000000 NULL
P        5.47290841       4.67097408       5.99160996       0.00000000 NULL
P        3.87834383       3.14677252       5.83859960       0.00000000 NULL
P        1.28155698       0.46535086       5.70924796       0.00000000 NULL
P        4.14277724       3.37927714       3.32590143       0.00000000 NULL
P        2.92148533       3.29653823       1.46661737       0.00000000 NULL
7
Lattice="4.242041729893932 0.1969691143512305 0.262607943836723 2.2434646454955125 4.759400015625019 -0.9690698467540034 1.2032999242060036 -0.22980310427346062 6.765331949133582" Properties=species:S:1:pos:R:3:initial_magmoms:R:1:castep_labels:S:1 n_minim_iter=11 pbc="T T T"
P        4.30646877       1.48344524       1.71995053       0.00000000 NULL
P        2.23910955       0.14918235       2.20517979       0.00000000 NULL
P        5.54742654       4.23192076       5.78301609       0.00000000 NULL
P        3.92016977       2.72683835       5.71029096       0.00000000 NULL
P        1.33831887       0.10212571       5.74063518       0.00000000 NULL
P        4.18606885       3.10670445       3.19690819       0.00000000 NULL
P        2.92136434       3.14944525       1.29568299       0.00000000 NULL
7
Lattice="4.171176712901337 0.16236664084444624 0.2477137655972723 2.1735161298015107 4.781858288344683 -0.9515048168887283 1.1618301897565675 -0.19615236501175692 6.9455555075832045" Properties=species:S:1:pos:R:3:initial_magmoms:R:1:castep_labels:S:1 n_minim_iter=12 pbc="T T T"
P        4.21487266       1.45939200       1.75948630       0.00000000 NULL
P        2.18894305       0.14920254       2.24515270       0.00000000 NULL
P        5.41648953       4.27140798       5.95932032       0.00000000 NULL
P        3.80947315       2.76148743       5.86907803       0.00000000 NULL
P        1.29846418       0.12795834       5.90120242       0.00000000 NULL
P        4.08701350       3.12274266       3.31785185       0.00000000 NULL
P        2.84198412       3.16925624       1.35945911       0.00000000 NULL
7
Lattice="4.13032839452532 0.1638529740778775 0.23484607932582502 2.1554211063169295 4.75620483249331 -0.9751350987607306 1.137626874480656 -0.22400239080127435 6.817500870837799" Properties=species:S:1:pos:R:3:initial_magmoms:R:1:castep_labels:S:1 n_minim_iter=13 pbc="T T T"
P        4.16996003       1.44463175       1.70906857       0.00000000 NULL
P        2.16184641       0.14147260       2.19269759       0.00000000 NULL
P        5.35842531       4.22268277       5.80940051       0.00000000 NULL
P        3.75877738       2.72141831       5.72942134       0.00000000 NULL
P        1.27695026       0.10162712       5.79120511       0.00000000 NULL
P        4.04261170       3.09084553       3.22777712       0.00000000 NULL
P        2.81220203       3.14509036       1.30842504       0.00000000 NULL
7
Lattice="4.146637887645778 0.16542971262496164 0.23546542959524408 2.164896380422647 4.78542808072353 -0.9895370729037446 1.1419470835727352 -0.2353874037092938 6.854793254333039" Properties=species:S:1:pos:R:3:initial_magmoms:R:1:castep_labels:S:1 n_minim_iter=14 pbc="T T T"
P        4.18620576       1.44995281       1.71497309       0.00000000 NULL
P        2.16957287       0.14035827       2.20151700       0.00000000 NULL
P        5.38392594       4.24022367       5.83273900       0.00000000 NULL
P        3.77154610       2.72829663       5.75308767       0.00000000 NULL
P        1.28257527       0.09476314       5.82132989       0.00000000 NULL
P        4.05989742       3.10363776       3.24310329       0.00000000 NULL
P        2.82255744       3.16208702       1.31106532       0.00000000 NULL
