42
Lattice="3.796484906050248 -7.365071171811595e-43 -1.055773675856525e-42 2.890789802856896e-42 14.90119999805872 4.732169883259234e-14 2.1433370978445046e-42 -7.450599999029401 12.904817745191457" Properties=species:S:1:pos:R:3:initial_magmoms:R:1:castep_labels:S:1:forces:R:3 n_minim_iter=1 energy=-219.04361845286803 stress="0.005648250988875417 2.597532053061057e-13 9.866208885072928e-12 2.597532053061057e-13 -0.006479005211636668 3.1431192680704847e-12 9.866208885072928e-12 3.1431192680704847e-12 -0.006479005208041768" free_energy=-219.04361845286803 pbc="T T T"
P        1.95143153       9.17536542       6.52441783       0.00000000 NULL       0.14205489       0.04743883       0.04543455
P        1.95143153       4.66320497       4.68389192       0.00000000 NULL       0.14205489      -0.06306689       0.01836596
P        1.95143153       8.51322739       1.69650930       0.00000000 NULL       0.14205489       0.01562806      -0.06380051
P        3.48174169       6.09980440      10.09412553       0.00000000 NULL       0.01361141      -0.38919176      -0.26372029
P        3.48174169      -4.34107207      13.14034185       0.00000000 NULL       0.01361141       0.42298435      -0.20518981
P        3.48174169      -1.75873455       2.57516942       0.00000000 NULL       0.01361141      -0.03379259       0.46891010
P        0.64591478       7.13113086       0.48697003       0.00000000 NULL       0.03911108      -0.36678982      -0.06595289
P        0.64591478      10.91390542       5.93225676       0.00000000 NULL       0.03911108       0.24051179      -0.28467286
P        0.64591478       4.30676150       6.48559226       0.00000000 NULL       0.03911108       0.12627803       0.35062575
P        3.05622250       7.07098580       2.94826926       0.00000000 NULL      -0.04350946       0.10747550       0.05947796
P        3.05622250       8.81243028       4.64952000       0.00000000 NULL      -0.04350946      -0.10524717       0.06333753
P        3.05622250       6.46838169       5.30702979       0.00000000 NULL      -0.04350946      -0.00222833      -0.12281549
P        2.88422283       1.63785915       3.13768654       0.00000000 NULL      -0.01689743      -0.01551009      -0.34900813
P        2.88422283      11.36495344      -0.15041434       0.00000000 NULL      -0.01689743       0.31000495       0.16107193
P        2.88422283       9.34898519       9.91754685       0.00000000 NULL      -0.01689743      -0.29449486       0.18793619
P        2.32860064      -2.63844046       8.35152965       0.00000000 NULL       0.17923886      -0.02232527      -0.08721327
P        2.32860064       1.53718265       6.44409775       0.00000000 NULL       0.17923886       0.08669155       0.02427239
P        2.32860064       1.10125558      11.01400939       0.00000000 NULL       0.17923886      -0.06436628       0.06294089
P        3.56837345       1.04789989       1.02336137       0.00000000 NULL      -0.04567593      -0.06836798      -0.02887393
P        3.56837345      13.49099237       0.39582853       0.00000000 NULL      -0.04567594       0.05918955      -0.04477144
P        3.56837345       7.81290551      11.48562915       0.00000000 NULL      -0.04567594       0.00917843       0.07364537
P        2.27968454       3.51617845       7.84017891       0.00000000 NULL      -0.19152029       0.02717440      -0.22036141
P        2.27968454       6.35331593      -0.87498830       0.00000000 NULL      -0.19152029       0.17725138       0.13371442
P        2.27968454      12.48230339       5.93962844       0.00000000 NULL      -0.19152029      -0.20442577       0.08664698
P        3.36870641       3.78391846       2.38455688       0.00000000 NULL      -0.47649495       0.09837615      -0.36399038
P        3.36870641      10.94415320       2.08469237       0.00000000 NULL      -0.47649495       0.26603684       0.26719143
P        3.36870641       7.62372611       8.43556980       0.00000000 NULL      -0.47649495      -0.36441299       0.09679895
P        0.33550817       0.74633118       7.54142444       0.00000000 NULL      -0.37069630       0.03693273       0.04458757
P        0.33550817       0.54636853       9.78044858       0.00000000 NULL      -0.37069630      -0.05708033       0.00969089
P        0.33550817      -1.29270193       8.48776378       0.00000000 NULL      -0.37069630       0.02014760      -0.05427846
P        1.44804777       7.04267150       7.17790974       0.00000000 NULL       0.73967368       0.03215945       0.00597124
P        1.44804777       5.16361133       2.51017885       0.00000000 NULL       0.73967368      -0.02125097       0.02486528
P        1.44804777      10.14551495       3.21673046       0.00000000 NULL       0.73967368      -0.01090848      -0.03083652
P        1.59946170      -4.54786066      11.66128195       0.00000000 NULL       0.00748086      -0.19493021       0.25745939
P        1.59946170      -0.37443682       3.13561520       0.00000000 NULL       0.00748086      -0.12550127      -0.29754420
P        1.59946170       4.92229525      11.01273964       0.00000000 NULL       0.00748086       0.32043147       0.04008482
P        0.11368216       2.49250980       5.20342267       0.00000000 NULL       0.05930803       0.05054226      -0.30277536
P        0.11368216       1.69804814      12.46168450       0.00000000 NULL       0.05930803       0.23694002       0.19515856
P        0.11368216      -4.19056016       8.14452962       0.00000000 NULL       0.05930803      -0.28748228       0.10761680
P        1.20043812       3.19071089       9.74670652       0.00000000 NULL      -0.03568446      -0.36044773       0.16571732
P        1.20043812      -2.58565162      10.79470246       0.00000000 NULL      -0.03568446       0.03670846      -0.39501555
P        1.20043812      -0.60506148       5.26822781       0.00000000 NULL      -0.03568446       0.32373928       0.22929823
42
Lattice="3.7573701695963835 -8.088829784173528e-43 -9.042202318535314e-43 2.5634402608751784e-42 15.07927517651768 4.5636952167048524e-14 2.116464888769305e-42 -7.539637588258881 13.059035373520363" Properties=species:S:1:pos:R:3:initial_magmoms:R:1:castep_labels:S:1:forces:R:3 n_minim_iter=2 energy=-219.12762336237876 stress="0.009250257296177445 8.586494933718971e-12 3.517753834986523e-13 8.586494933718971e-12 0.004789514073409017 -4.31121018153824e-12 3.517753834986523e-13 -4.31121018153824e-12 0.004789514074807436" free_energy=-219.12762336237876 pbc="T T T"
P        1.93167926       9.28513519       6.60250265       0.00000000 NULL       0.14015042      -0.04343688      -0.10523658
P        1.93167926       4.71877181       4.73991294       0.00000000 NULL       0.14015042       0.11285599       0.01500085
P        1.93167926       8.61500351       1.71662110       0.00000000 NULL       0.14015042      -0.06941911       0.09023573
P        3.44590355       6.17171031      10.21408403       0.00000000 NULL      -0.00867199      -0.12059048      -0.14651679
P        3.44590355      -4.39187456      13.29685258       0.00000000 NULL      -0.00867199       0.18718250      -0.03117602
P        3.44590355      -1.77983800       2.60713546       0.00000000 NULL      -0.00867199      -0.06659202       0.17769281
P        0.63935721       7.21541845       0.49262189       0.00000000 NULL       0.02815139      -0.25295779      -0.16256588
P        0.63935721      11.04494214       6.00242604       0.00000000 NULL       0.02815139       0.26726508      -0.13778494
P        0.63935721       4.35854993       6.56398876       0.00000000 NULL       0.02815139      -0.01430728       0.30035082
P        3.02462645       7.15576001       2.98365340       0.00000000 NULL      -0.08657022       0.21802446       0.13858839
P        3.02462645       8.91747479       4.70524456       0.00000000 NULL      -0.08657022      -0.22903330       0.11952052
P        3.02462645       6.54567572       5.37013873       0.00000000 NULL      -0.08657022       0.01100884      -0.25810892
P        2.85446502       1.65739279       3.17429611       0.00000000 NULL       0.05892013       0.01752036      -0.46474064
P        2.85446502      11.50155697      -0.15180248       0.00000000 NULL       0.05892013       0.39371702       0.24754339
P        2.85446502       9.45996075      10.03654307       0.00000000 NULL       0.05892013      -0.41123738       0.21719725
P        2.30505486      -2.67002759       8.45111205       0.00000000 NULL       0.14473897      -0.07664463      -0.12646764
P        2.30505486       1.55577292       6.52116893       0.00000000 NULL       0.14473897       0.14784650      -0.00314238
P        2.30505486       1.11425243      11.14579108       0.00000000 NULL       0.14473897      -0.07120187       0.12961002
P        3.53149538       1.06024894       1.03551756       0.00000000 NULL      -0.09002114       0.12560779      -0.08505953
P        3.53149538      13.65236545       0.40044505       0.00000000 NULL      -0.09002113       0.01085982       0.15130930
P        3.53149538       7.90629612      11.62307409       0.00000000 NULL      -0.09002113      -0.13646761      -0.06624977
P        2.25572117       3.55826723       7.93331206       0.00000000 NULL      -0.20775788      -0.04073736      -0.18692190
P        2.25572117       6.42969104      -0.88510491       0.00000000 NULL      -0.20775788       0.18224780       0.05818136
P        2.25572117      12.63095225       6.01082954       0.00000000 NULL      -0.20775788      -0.14151044       0.12874054
P        3.33281463       3.82938780       2.41212817       0.00000000 NULL      -0.49129071      -0.02940743      -0.45052099
P        3.33281463      11.07561626       2.11028434       0.00000000 NULL      -0.49129071       0.40486634       0.19979291
P        3.33281463       7.71390646       8.53662418       0.00000000 NULL      -0.49129071      -0.37545890       0.25072808
P        0.33113005       0.75534400       7.63166074       0.00000000 NULL      -0.34498994      -0.11249746       0.20863235
P        0.33113005       0.55275278       9.89735340       0.00000000 NULL      -0.34498994      -0.12443218      -0.20174183
P        0.33113005      -1.30809902       8.58905793       0.00000000 NULL      -0.34498994       0.23692965      -0.00689051
P        1.43496727       7.12691591       7.26370375       0.00000000 NULL       0.76057725       0.08699134      -0.03905205
P        1.43496727       5.22526450       2.54023966       0.00000000 NULL       0.76057725      -0.00967560       0.09486273
P        1.43496727      10.26673010       3.25509328       0.00000000 NULL       0.76057725      -0.07731574      -0.05581068
P        1.58300123      -4.60270480      11.80129318       0.00000000 NULL      -0.00743198       0.03349783       0.13954158
P        1.58300123      -0.37923045       3.17233081       0.00000000 NULL      -0.00743198      -0.13759547      -0.04076082
P        1.58300123       4.98193300      11.14444807       0.00000000 NULL      -0.00743198       0.10409764      -0.09878076
P        0.11265833       2.52242472       5.26483610       0.00000000 NULL       0.06927307       0.16662226      -0.22809183
P        0.11265833       1.71894268      12.61110252       0.00000000 NULL       0.06927307       0.11422219       0.25834502
P        0.11265833      -4.24136964       8.24213345       0.00000000 NULL       0.06927307      -0.28084445      -0.03025319
P        1.18798144       3.22792504       9.86360465       0.00000000 NULL       0.03492263      -0.21808142       0.21641796
P        1.18798144      -2.61645788      10.92269944       0.00000000 NULL       0.03492263      -0.07838274      -0.29707303
P        1.18798144      -0.61146941       5.33176797       0.00000000 NULL       0.03492263       0.29646416       0.08065507
42
Lattice="3.6100415779341795 -7.496316720959283e-43 -8.236838469206493e-43 2.7219405690311087e-42 15.177862515750624 4.333066725200787e-14 2.2039687641610747e-42 -7.58893125787535 13.144414513787607" Properties=species:S:1:pos:R:3:initial_magmoms:R:1:castep_labels:S:1:forces:R:3 n_minim_iter=3 energy=-219.20225198932826 stress="-0.006376297976374388 1.8323737510957578e-12 8.974288628648615e-12 1.8323737510957578e-12 -0.002635982654955808 -3.936798863730215e-12 8.974288628648615e-12 -3.936798863730215e-12 -0.0026359826437797646" free_energy=-219.20225198932826 pbc="T T T"
P        1.85692844       9.34587778       6.64547819       0.00000000 NULL       0.25758055      -0.11150291      -0.04180191
P        1.85692844       4.74976995       4.77102980       0.00000000 NULL       0.25758055       0.09195297      -0.07566340
P        1.85692844       8.67114379       1.72790785       0.00000000 NULL       0.25758055       0.01954994       0.11746531
P        3.31081087       6.21005891      10.27927595       0.00000000 NULL      -0.09967646       0.06991503      -0.10046025
P        3.31081087      -4.41821305      13.38284663       0.00000000 NULL      -0.09967647       0.05204361       0.11077832
P        3.31081087      -1.79184812       2.62670777       0.00000000 NULL      -0.09967646      -0.12195864      -0.01031807
P        0.61452668       7.26020989       0.49499729       0.00000000 NULL      -0.27067811      -0.27556281      -0.23490764
P        0.61452668      11.11907660       6.04002887       0.00000000 NULL      -0.27067811       0.34121739      -0.12119057
P        0.61452668       4.38750503       6.60938968       0.00000000 NULL      -0.27067811      -0.06565458       0.35609821
P        2.90558360       7.20375447       3.00389412       0.00000000 NULL       0.01442850       0.21668248       0.32857833
P        2.90558360       8.97453591       4.73668862       0.00000000 NULL       0.01442850      -0.39289842       0.02336337
P        2.90558360       6.58850113       5.40383309       0.00000000 NULL       0.01442850       0.17621594      -0.35194170
P        2.74266769       1.66822845       3.19198461       0.00000000 NULL       0.15331869       0.07620173      -0.47332832
P        2.74266769      11.57940778      -0.15126277       0.00000000 NULL       0.15331869       0.37181348       0.30265679
P        2.74266769       9.51915528      10.10369400       0.00000000 NULL       0.15331869      -0.44801521       0.17067153
P        2.21581893      -2.68784718       8.50556221       0.00000000 NULL      -0.26842817      -0.21086071      -0.09661368
P        2.21581893       1.56682115       6.56389078       0.00000000 NULL      -0.26842817       0.18910026      -0.13430389
P        2.21581893       1.12102377      11.21937736       0.00000000 NULL      -0.26842817       0.02176045       0.23091758
P        3.39255853       1.06735188       1.04186817       0.00000000 NULL      -0.07179844       0.29749989      -0.09582795
P        3.39255853      13.74190153       0.40342108       0.00000000 NULL      -0.07179844      -0.06576051       0.30555643
P        3.39255853       7.95753810      11.69912660       0.00000000 NULL      -0.07179844      -0.23173938      -0.20972849
P        2.16587531       3.58149566       7.98362372       0.00000000 NULL       0.09860402      -0.08558147      -0.10880502
P        2.16587531       6.47309298      -0.89014432       0.00000000 NULL       0.09860402       0.13701864      -0.01971321
P        2.16587531      12.71220287       6.05093644       0.00000000 NULL       0.09860402      -0.05143718       0.12851823
P        3.19873876       3.85471678       2.42482378       0.00000000 NULL      -0.44852875      -0.34666511      -0.43718094
P        3.19873876      11.15054438       2.12587208       0.00000000 NULL      -0.44852875       0.55194236      -0.08163032
P        3.19873876       7.76153035       8.59371997       0.00000000 NULL      -0.44852875      -0.20527724       0.51881126
P        0.31562658       0.76003098       7.68247911       0.00000000 NULL      -0.16156504      -0.29808744       0.39191622
P        0.31562658       0.55569295       9.96138241       0.00000000 NULL      -0.16156504      -0.19036568      -0.45410941
P        0.31562658      -1.31572619       8.64496883       0.00000000 NULL      -0.16156504       0.48845312       0.06219318
P        1.38396380       7.17395093       7.31107844       0.00000000 NULL       0.64141834      -0.11629098      -0.21095953
P        1.38396380       5.25930664       2.55728584       0.00000000 NULL       0.64141834       0.24084180       0.00476882
P        1.38396380      10.33353394       3.27605156       0.00000000 NULL       0.64141834      -0.12455082       0.20619070
P        1.52093491      -4.63346517      11.87998626       0.00000000 NULL       0.00201554       0.05820724      -0.01106718
P        1.52093491      -0.38270680       3.19172416       0.00000000 NULL       0.00201554      -0.01951916       0.05594254
P        1.52093491       5.01616971      11.21711994       0.00000000 NULL       0.00201554      -0.03868808      -0.04487536
P        0.10868983       2.53971369       5.29722190       0.00000000 NULL       0.25953538       0.42418406      -0.43521372
P        0.10868983       1.73154493      12.69526146       0.00000000 NULL       0.25953538       0.16481410       0.58496103
P        0.10868983      -4.27126089       8.29634700       0.00000000 NULL       0.25953538      -0.58899817      -0.14974732
P        1.14137899       3.24679631       9.92953239       0.00000000 NULL      -0.10622606      -0.15795653       0.36182406
P        1.14137899      -2.63369494      10.99145772       0.00000000 NULL      -0.10622606      -0.23437056      -0.31770640
P        1.14137899      -0.61310363       5.36784025       0.00000000 NULL      -0.10622606       0.39232709      -0.04411766
42
Lattice="3.529388737364427 -6.6896510374185756e-43 3.8033003348190926e-43 3.033755424546548e-42 15.33822154363652 4.308659448186385e-14 1.678221150889627e-42 -7.669110771818297 13.283289505662971" Properties=species:S:1:pos:R:3:initial_magmoms:R:1:castep_labels:S:1:forces:R:3 n_minim_iter=4 energy=-219.62967939354485 stress="-0.009156186645406541 -2.770312575441142e-12 8.253161149432137e-12 -2.770312575441142e-12 -0.0017911413394721945 7.549631447593734e-13 8.253161149432137e-12 7.549631447593734e-13 -0.0017911413448136113" free_energy=-219.62967939354485 pbc="T T T"
P        1.83703517       9.43534710       6.70846506       0.00000000 NULL       0.03417107      -0.04777350       0.01146162
P        1.83703517       4.81084608       4.81701909       0.00000000 NULL       0.03417107       0.01396070      -0.04710387
P        1.83703517       8.76113685       1.75780670       0.00000000 NULL       0.03417107       0.03381280       0.03564225
P        3.23078437       6.27198228      10.37225661       0.00000000 NULL      -0.06165126      -0.05854178       0.18585380
P        3.23078437      -4.44951884      13.52885851       0.00000000 NULL      -0.06165126      -0.13168322      -0.14362557
P        3.23078437      -1.82246572       2.66546523       0.00000000 NULL      -0.06165126       0.19022500      -0.04222823
P        0.58639884       7.30359069       0.47617962       0.00000000 NULL      -0.37506616       0.03003276      -0.07797144
P        0.58639884      11.27404179       6.08700660       0.00000000 NULL      -0.37506616       0.05250886       0.06499486
P        0.58639884       4.42969755       6.72010463       0.00000000 NULL      -0.37506616      -0.08254163       0.01297658
P        2.83777969       7.30546207       3.06503828       0.00000000 NULL       0.10224348      -0.02439915       0.26526883
P        2.83777969       9.03108874       4.79419793       0.00000000 NULL       0.10224348      -0.21752998      -0.15376470
P        2.83777969       6.67077922       5.42405464       0.00000000 NULL       0.10224348       0.24192912      -0.11150414
P        2.69253966       1.69178436       3.16938476       0.00000000 NULL       0.11940076       0.09275914      -0.25932113
P        2.69253966      11.74756089      -0.11956282       0.00000000 NULL       0.11940076       0.17819911       0.20999234
P        2.69253966       9.56798478      10.23346890       0.00000000 NULL       0.11940076      -0.27095826       0.04932879
P        2.15766726      -2.73443996       8.58238939       0.00000000 NULL      -0.29564283      -0.40496284      -0.03791199
P        2.15766726       1.60376276       6.62400166       0.00000000 NULL      -0.29564283       0.23531417      -0.33175211
P        2.15766726       1.13067492      11.36018929       0.00000000 NULL      -0.29564283       0.16964868       0.36966410
P        3.30869179       1.10427336       1.04221321       0.00000000 NULL      -0.03948824       0.37596041      -0.20453845
P        3.30869179      13.88350099       0.43522351       0.00000000 NULL      -0.03948824      -0.01084471       0.42786048
P        3.30869179       8.01955568      11.80585413       0.00000000 NULL      -0.03948824      -0.36511569      -0.22332204
P        2.11365036       3.61181323       8.05031859       0.00000000 NULL       0.25446070      -0.26367090       0.20995929
P        2.11365036       6.56053377      -0.89723595       0.00000000 NULL       0.25446070      -0.04999463      -0.33332534
P        2.11365036      12.83498303       6.13020821       0.00000000 NULL       0.25446070       0.31366553       0.12336605
P        3.07825338       3.87093362       2.39713412       0.00000000 NULL       0.26435876      -0.23130517      -0.11760915
P        3.07825338      11.32677493       2.15376112       0.00000000 NULL       0.26435876       0.21750510      -0.14151158
P        3.07825338       7.80962148       8.73239560       0.00000000 NULL       0.26435876       0.01380008       0.25912073
P        0.28283905       0.74270731       7.80044445       0.00000000 NULL      -0.05824860       0.14534145      -0.28655553
P        0.28283905       0.54237331      10.02627201       0.00000000 NULL      -0.05824860       0.17549364       0.26914715
P        0.28283905      -1.28508290       8.73986390       0.00000000 NULL      -0.05824860      -0.32083509       0.01740838
P        1.42586010       7.24584191       7.37202762       0.00000000 NULL      -0.01167135      -0.11471124      -0.22959937
P        1.42586010       5.33093664       2.58907069       0.00000000 NULL      -0.01167135       0.25619451       0.01545684
P        1.42586010      10.43055148       3.32219254       0.00000000 NULL      -0.01167135      -0.14148326       0.21414253
P        1.48683437      -4.67846914      12.01304521       0.00000000 NULL      -0.05890358       0.17239188      -0.15925749
P        1.48683437      -0.39525774       3.22509510       0.00000000 NULL      -0.05890358       0.05172509       0.22892449
P        1.48683437       5.07372460      11.32844004       0.00000000 NULL      -0.05890358      -0.22411697      -0.06966701
P        0.12456982       2.60374950       5.31044162       0.00000000 NULL       0.08399292       0.39319619      -0.03180912
P        0.12456982       1.76825792      12.88298323       0.00000000 NULL       0.08399292      -0.16905059       0.35642245
P        0.12456982      -4.37200970       8.37315550       0.00000000 NULL       0.08399292      -0.22414560      -0.32461333
P        1.11079800       3.25752135      10.07048162       0.00000000 NULL       0.04204431       0.00366594       0.28399503
P        1.11079800      -2.68094357      11.06914627       0.00000000 NULL       0.04204431      -0.24777988      -0.13882272
P        1.11079800      -0.57658007       5.42695246       0.00000000 NULL       0.04204431       0.24411394      -0.14517231
42
Lattice="3.508208111990638 -6.363804801131417e-43 2.4193461616519137e-43 3.1664655892116754e-42 15.387330863852055 4.0418549206277315e-14 8.129194791256023e-43 -7.693665431926062 13.325819424532215" Properties=species:S:1:pos:R:3:initial_magmoms:R:1:castep_labels:S:1:forces:R:3 n_minim_iter=5 energy=-219.8255340521149 stress="-0.010325372283911848 -6.176675990063548e-12 3.429211844080242e-12 -6.176675990063548e-12 -0.0015408693843946151 -1.2661001374707616e-11 3.429211844080242e-12 -1.2661001374707616e-11 -0.0015408693792723206" free_energy=-219.8255340521149 pbc="T T T"
P        1.82969809       9.46444538       6.72874391       0.00000000 NULL       0.04403528      -0.09137742      -0.04671811
P        1.82969809       4.82784425       4.83207951       0.00000000 NULL       0.04403528       0.08614778      -0.05577611
P        1.82969809       8.78870437       1.76499735       0.00000000 NULL       0.04403528       0.00522964       0.10249422
P        3.20988101       6.26942796      10.41198148       0.00000000 NULL      -0.06979473      -0.05783308       0.06695633
P        3.20988101      -4.45808977      13.54931390       0.00000000 NULL      -0.06979473      -0.02906934      -0.08356308
P        3.20988101      -1.81134048       2.69034481       0.00000000 NULL      -0.06979473       0.08690243       0.01660675
P        0.56621697       7.31855957       0.47000989       0.00000000 NULL      -0.21844837      -0.01897048      -0.17049696
P        0.56621697      11.32100982       6.10305490       0.00000000 NULL      -0.21844837       0.15713994       0.06881956
P        0.56621697       4.44142461       6.75275598       0.00000000 NULL      -0.21844837      -0.13816946       0.10167740
P        2.82314644       7.33178403       3.09441088       0.00000000 NULL       0.09779315      -0.00635928       0.07493921
P        2.82314644       9.04159966       4.80230712       0.00000000 NULL       0.09779315      -0.06171962      -0.04297690
P        2.82314644       6.70761031       5.42910277       0.00000000 NULL       0.09779315       0.06807890      -0.03196231
P        2.68234226       1.70307485       3.14353344       0.00000000 NULL       0.11076201       0.10797762      -0.18281486
P        2.68234226      11.81341286      -0.09685930       0.00000000 NULL       0.11076202       0.10433350       0.18491879
P        2.68234226       9.56450629      10.27914663       0.00000000 NULL       0.11076201      -0.21231112      -0.00210393
P        2.14132647      -2.77528485       8.60200254       0.00000000 NULL      -0.50239760      -0.26756339       0.00569433
P        2.14132647       1.63175438       6.62135231       0.00000000 NULL      -0.50239760       0.12885026      -0.23456386
P        2.14132647       1.14352818      11.42828535       0.00000000 NULL      -0.50239760       0.13871313       0.22886953
P        3.28353774       1.13434659       1.02643645       0.00000000 NULL      -0.03156275       0.25831219      -0.21876507
P        3.28353774      13.93123677       0.46915607       0.00000000 NULL      -0.03156275       0.06030001       0.33308745
P        3.28353774       8.01541064      11.83022825       0.00000000 NULL      -0.03156275      -0.31861220      -0.11432239
P        2.10358138       3.60214655       8.08424433       0.00000000 NULL       0.14590729      -0.10569776       0.10465689
P        2.10358138       6.58509587      -0.92257041       0.00000000 NULL       0.14590729      -0.03778664      -0.14386539
P        2.10358138      12.89375158       6.16414685       0.00000000 NULL       0.14590729       0.14348440       0.03920851
P        3.06131546       3.87621850       2.38020389       0.00000000 NULL       0.35462605      -0.16270505      -0.07116204
P        3.06131546      11.38790381       2.16680308       0.00000000 NULL       0.35462605       0.14298066      -0.10532569
P        3.06131546       7.81687168       8.77881379       0.00000000 NULL       0.35462605       0.01972439       0.17648772
P        0.25978813       0.76388401       7.79743199       0.00000000 NULL       0.13470194      -0.30644009       0.22709803
P        0.25978813       0.55894848      10.08864773       0.00000000 NULL       0.13470194      -0.04345262      -0.37893392
P        0.25978813      -1.32283479       8.76556048       0.00000000 NULL       0.13470194       0.34989271       0.15183589
P        1.44454613       7.26778646       7.38125616       0.00000000 NULL      -0.10928901      -0.06016195      -0.15113560
P        1.44454613       5.36108153       2.60346096       0.00000000 NULL      -0.10928901       0.16096825       0.02346602
P        1.44454613      10.45212601       3.34110365       0.00000000 NULL      -0.10928901      -0.10080630       0.12766958
P        1.47356920      -4.68372441      12.05069543       0.00000000 NULL      -0.03774779       0.04591527      -0.22518379
P        1.47356920      -0.40068149       3.24424873       0.00000000 NULL      -0.03774779       0.17205725       0.15235569
P        1.47356920       5.08440361      11.35669604       0.00000000 NULL      -0.03774779      -0.21797252       0.07282810
P        0.12632094       2.64055775       5.32185969       0.00000000 NULL       0.05095398       0.46735383      -0.11269232
P        0.12632094       1.76452011      12.95168101       0.00000000 NULL       0.05095398      -0.13608250       0.46108645
P        0.12632094      -4.40508015       8.37809949       0.00000000 NULL       0.05095398      -0.33127133      -0.34839412
P        1.11075749       3.25490981      10.12893071       0.00000000 NULL       0.03046055      -0.08357194       0.21088544
P        1.11075749      -2.70570154      11.08018998       0.00000000 NULL       0.03046055      -0.14084617      -0.17781815
P        1.11075749      -0.54921056       5.44251950       0.00000000 NULL       0.03046055       0.22441812      -0.03306729
42