26
Lattice="7.806860000000002 -1.029741733813395e-15 -3.843477325722405e-16 1.4115371195860686 8.496629334414358 -1.4691089061969626e-15 1.411537119586069 1.8476816041934543 8.293297458547821" Properties=species:S:1:pos:R:3:initial_magmoms:R:1:castep_labels:S:1 n_minim_iter=1 pbc="T T T"
P        9.62434317       9.43086755       5.60460462       0.00000000 NULL
P        9.62434317       7.52132301       7.98639818       0.00000000 NULL
P        4.21087416       2.41446206       0.63251570       0.00000000 NULL
P        4.21087416       1.14242926       2.21913464       0.00000000 NULL
P        5.40512971       9.95132022       6.67305584       0.00000000 NULL
P        5.40512971       8.67738316       8.26204998       0.00000000 NULL
P        6.31717001       3.21096743       1.29098527       0.00000000 NULL
P        6.31717001       1.95834956       2.85338778       0.00000000 NULL
P        5.73026994       5.14544504       0.72053495       0.00000000 NULL
P        5.73026994       1.82222317       4.86562206       0.00000000 NULL
P        3.13512559       7.16574826       4.36613002       0.00000000 NULL
P        3.13512559       5.81991214       6.04480456       0.00000000 NULL
P        5.95289100       2.43626809       6.77886256       0.00000000 NULL
P        5.95289100       7.14643054       0.90383092       0.00000000 NULL
P        3.81703237       7.44718013       8.25613934       0.00000000 NULL
P        3.81703237       9.67803041       5.47357799       0.00000000 NULL
P        3.69966092       4.24014758       8.22370674       0.00000000 NULL
P        3.69966092       8.94897092       2.35034538       0.00000000 NULL
P        9.23710244       6.25757755       3.21803411       0.00000000 NULL
P        9.23710244       4.50179989       5.40803274       0.00000000 NULL
P        5.77163221       5.14214246       5.42366145       0.00000000 NULL
P        5.77163221       6.41208150       3.83965408       0.00000000 NULL
P        1.66682503       4.55530587       2.16918576       0.00000000 NULL
P        1.66682503       3.10787449       3.97458106       0.00000000 NULL
P        7.61893890       2.40601354       4.37615496       0.00000000 NULL
P        7.61893890       4.79464269       1.39679448       0.00000000 NULL
26
Lattice="7.8464365591646725 0.007993084576728725 0.006408259419072345 1.4273921572341777 8.526496468039197 -0.0043645658162231385 1.4273921572341783 1.8499164093179237 8.323398966014786" Properties=species:S:1:pos:R:3:initial_magmoms:R:1:castep_labels:S:1 n_minim_iter=2 pbc="T T T"
P        9.68722586       9.46832883       5.62699351       0.00000000 NULL
P        9.68722586       7.55132247       8.01809427       0.00000000 NULL
P        4.23533500       2.42650656       0.63657431       0.00000000 NULL
P        4.23533500       1.14900995       2.23000832       0.00000000 NULL
P        5.44827841       9.98595543       6.69532524       0.00000000 NULL
P        5.44827841       8.70665143       8.29101362       0.00000000 NULL
P        6.35349712       3.22716728       1.29861223       0.00000000 NULL
P        6.35349712       1.96931683       2.86754139       0.00000000 NULL
P        5.76484074       5.16799258       0.72437298       0.00000000 NULL
P        5.76484074       1.83087255       4.88679540       0.00000000 NULL
P        3.16201892       7.19009740       4.37974877       0.00000000 NULL
P        3.16201892       5.83849996       6.06560946       0.00000000 NULL
P        5.99116133       2.44619631       6.80707264       0.00000000 NULL
P        5.99116133       7.17612453       0.90738697       0.00000000 NULL
P        3.85087648       7.47041741       8.28449897       0.00000000 NULL
P        3.85087648       9.71076456       5.49009208       0.00000000 NULL
P        3.72928617       4.25276281       8.25384129       0.00000000 NULL
P        3.72928617       8.98112764       2.35610564       0.00000000 NULL
P        9.29296890       6.28612555       3.23351308       0.00000000 NULL
P        9.29296890       4.52311650       5.43253149       0.00000000 NULL
P        5.81053667       5.16168515       5.44485668       0.00000000 NULL
P        5.81053667       6.43701927       3.85411998       0.00000000 NULL
P        1.68206360       4.57060167       2.17545417       0.00000000 NULL
P        1.68206360       3.11731913       3.98814768       0.00000000 NULL
P        7.66371443       2.41922861       4.39675415       0.00000000 NULL
P        7.66371443       4.81762268       1.40521379       0.00000000 NULL
26
Lattice="8.201554805264204 0.0837993915626957 0.06718410585290224 1.574104238388749 8.793251328754822 -0.039947502097674344 1.5741042383887498 1.8731936603499002 8.591508030863805" Properties=species:S:1:pos:R:3:initial_magmoms:R:1:castep_labels:S:1 n_minim_iter=3 pbc="T T T"
P       10.25870533       9.80911448       5.83320016       0.00000000 NULL
P       10.25870533       7.82670183       8.30588281       0.00000000 NULL
P        4.45633565       2.53640965       0.67531445       0.00000000 NULL
P        4.45633565       1.21072258       2.32885688       0.00000000 NULL
P        5.84359057      10.29967893       6.89833610       0.00000000 NULL
P        5.84359057       8.97302654       8.55308259       0.00000000 NULL
P        6.68166817       3.37552083       1.37030366       0.00000000 NULL
P        6.68166817       2.07155366       2.99675465       0.00000000 NULL
P        6.07782988       5.37231500       0.76265310       0.00000000 NULL
P        6.07782988       1.91266865       5.07790378       0.00000000 NULL
P        3.40895287       7.40999360       4.50396904       0.00000000 NULL
P        3.40895287       6.00756627       6.25323034       0.00000000 NULL
P        6.33863245       2.54018059       7.06100000       0.00000000 NULL
P        6.33863245       7.44441305       0.94390295       0.00000000 NULL
P        4.16191570       7.68197558       8.54003952       0.00000000 NULL
P        4.16191570      10.00619535       5.64101749       0.00000000 NULL
P        4.00065226       4.36977204       8.52406656       0.00000000 NULL
P        4.00065226       9.27033108       2.41155141       0.00000000 NULL
P        9.79901292       6.54694736       3.37746618       0.00000000 NULL
P        9.79901292       4.72034313       5.65580748       0.00000000 NULL
P        6.16448043       5.34084987       5.63708848       0.00000000 NULL
P        6.16448043       6.66361205       3.98719429       0.00000000 NULL
P        1.82230555       4.70833545       2.23319535       0.00000000 NULL
P        1.82230555       3.20363017       4.11002894       0.00000000 NULL
P        8.06862037       2.54286414       4.58392289       0.00000000 NULL
P        8.06862037       5.02719816       1.48518881       0.00000000 NULL
26
Lattice="8.262352414374208 0.12328616348743955 0.09884165628746105 1.628072485122769 8.823124436973218 -0.022701087034152023 1.62807248512277 1.8965235756526306 8.616915834372545" Properties=species:S:1:pos:R:3:initial_magmoms:R:1:castep_labels:S:1 n_minim_iter=4 pbc="T T T"
P       10.40367949       9.88898255       5.89820750       0.00000000 NULL
P       10.40367949       7.90752165       8.36970304       0.00000000 NULL
P        4.50389027       2.56460325       0.69653277       0.00000000 NULL
P        4.50389027       1.23756412       2.35176163       0.00000000 NULL
P        5.96421308      10.36348922       6.94800822       0.00000000 NULL
P        5.96421308       9.03538618       8.60456411       0.00000000 NULL
P        6.75254749       3.41723952       1.40249744       0.00000000 NULL
P        6.75254749       2.11204919       3.03047410       0.00000000 NULL
P        6.14943156       5.41576136       0.79339408       0.00000000 NULL
P        6.14943156       1.95212184       5.11362548       0.00000000 NULL
P        3.48774520       7.44972473       4.53434823       0.00000000 NULL
P        3.48774520       6.04585841       6.28540440       0.00000000 NULL
P        6.42425996       2.58596691       7.10376942       0.00000000 NULL
P        6.42425996       7.49611568       0.97929290       0.00000000 NULL
P        4.26284055       7.73092439       8.58317778       0.00000000 NULL
P        4.26284055      10.05894572       5.67941403       0.00000000 NULL
P        4.08310952       4.41090708       8.56195482       0.00000000 NULL
P        4.08310952       9.31625788       2.44346285       0.00000000 NULL
P        9.91634336       6.61654704       3.43256766       0.00000000 NULL
P        9.91634336       4.78926116       5.71175919       0.00000000 NULL
P        6.25641337       5.39202851       5.67819804       0.00000000 NULL
P        6.25641337       6.71486715       4.02820847       0.00000000 NULL
P        1.86938671       4.73058464       2.25083506       0.00000000 NULL
P        1.86938671       3.22568607       4.12790975       0.00000000 NULL
P        8.15819138       2.59484321       4.62719837       0.00000000 NULL
P        8.15819138       5.08074141       1.52651326       0.00000000 NULL
26
Lattice="8.278742243289733 0.1585742401157121 0.12713300579881673 1.669441814012077 8.817906159290093 -0.0031129962328659095 1.669441814012078 1.9145081365843992 8.607562797897199" Properties=species:S:1:pos:R:3:initial_magmoms:R:1:castep_labels:S:1 n_minim_iter=5 pbc="T T T"
P       10.48655983       9.92720354       5.93911402       0.00000000 NULL
P       10.48655983       7.95576080       8.39811382       0.00000000 NULL
P        4.52574443       2.58087247       0.71398792       0.00000000 NULL
P        4.52574443       1.25813948       2.36384571       0.00000000 NULL
P        6.04610197      10.38664545       6.97082870       0.00000000 NULL
P        6.04610197       9.06269611       8.62220364       0.00000000 NULL
P        6.78544935       3.44315093       1.42762372       0.00000000 NULL
P        6.78544935       2.14220887       3.05030145       0.00000000 NULL
P        6.18505705       5.43563795       0.82021004       0.00000000 NULL
P        6.18505705       1.98261845       5.12719500       0.00000000 NULL
P        3.54296861       7.45988053       4.54728209       0.00000000 NULL
P        3.54296861       6.06069124       6.29250455       0.00000000 NULL
P        6.47154561       2.62091834       7.11641236       0.00000000 NULL
P        6.47154561       7.51605662       1.01065856       0.00000000 NULL
P        4.33435856       7.75036031       8.59271352       0.00000000 NULL
P        4.33435856      10.07247980       5.69631119       0.00000000 NULL
P        4.13861821       4.43578006       8.56539102       0.00000000 NULL
P        4.13861821       9.32502074       2.46699335       0.00000000 NULL
P        9.97662415       6.65726782       3.47294123       0.00000000 NULL
P        9.97662415       4.83752372       5.74272582       0.00000000 NULL
P        6.31013980       5.42147525       5.69563961       0.00000000 NULL
P        6.31013980       6.73829483       4.05315768       0.00000000 NULL
P        1.90396213       4.73421643       2.26031940       0.00000000 NULL
P        1.90396213       3.23573321       4.12939216       0.00000000 NULL
P        8.20121494       2.63477038       4.64955159       0.00000000 NULL
P        8.20121494       5.11124229       1.56062399       0.00000000 NULL
26
Lattice="8.285338811489076 0.24086323547546093 0.19310618855924372 1.7601941001742964 8.797462107238413 0.03337359623975032 1.7601941001742973 1.945675797936948 8.579673596037566" Properties=species:S:1:pos:R:3:initial_magmoms:R:1:castep_labels:S:1 n_minim_iter=6 pbc="T T T"
P       10.64103637       9.99969723       6.02268134       0.00000000 NULL
P       10.64103637       8.05309280       8.45070007       0.00000000 NULL
P        4.55943106       2.61579855       0.75096085       0.00000000 NULL
P        4.55943106       1.30182265       2.38989583       0.00000000 NULL
P        6.21575059      10.42450913       7.00992073       0.00000000 NULL
P        6.21575059       9.10908649       8.65066024       0.00000000 NULL
P        6.83708324       3.49910950       1.48166880       0.00000000 NULL
P        6.83708324       2.20712939       3.09316821       0.00000000 NULL
P        6.24362099       5.47621737       0.87609091       0.00000000 NULL
P        6.24362099       2.04598646       5.15465143       0.00000000 NULL
P        3.65910302       7.47107956       4.56653928       0.00000000 NULL
P        3.65910302       6.08192293       6.29924790       0.00000000 NULL
P        6.55725681       2.69254920       7.14037600       0.00000000 NULL
P        6.55725681       7.55502367       1.07536409       0.00000000 NULL
P        4.48547167       7.77870760       8.60316439       0.00000000 NULL
P        4.48547167      10.08884499       5.72170745       0.00000000 NULL
P        4.25256370       4.48075579       8.56511978       0.00000000 NULL
P        4.25256370       9.33453644       2.51095176       0.00000000 NULL
P       10.08044228       6.74364926       3.56065426       0.00000000 NULL
P       10.08044228       4.94192226       5.80796595       0.00000000 NULL
P        6.41131856       5.47945894       5.72790805       0.00000000 NULL
P        6.41131856       6.78240023       4.10273665       0.00000000 NULL
P        1.97922705       4.73547646       2.27641669       0.00000000 NULL
P        1.97922705       3.25171929       4.12712151       0.00000000 NULL
P        8.27069273       2.72184959       4.69653287       0.00000000 NULL
P        8.27069273       5.17603556       1.63540275       0.00000000 NULL
26
Lattice="8.25325448755754 0.2972573307949272 0.238318770640905 1.8157697746955448 8.809189482293332 0.017020878958330182 1.8157697746955457 1.9322646569972852 8.594676395338405" Properties=species:S:1:pos:R:3:initial_magmoms:R:1:castep_labels:S:1 n_minim_iter=7 pbc="T T T"
P       10.70223199      10.04638556       6.06677229       0.00000000 NULL
P       10.70223199       8.10628148       8.48668307       0.00000000 NULL
P        4.56238555       2.64423349       0.76529457       0.00000000 NULL
P        4.56238555       1.32199684       2.41453326       0.00000000 NULL
P        6.30785986      10.45039199       7.02268808       0.00000000 NULL
P        6.30785986       9.12717681       8.67314730       0.00000000 NULL
P        6.84415942       3.54064887       1.50828831       0.00000000 NULL
P        6.84415942       2.24214505       3.12792481       0.00000000 NULL
P        6.25309961       5.51651963       0.89086900       0.00000000 NULL
P        6.25309961       2.06917505       5.19077557       0.00000000 NULL
P        3.72434648       7.47732615       4.56455943       0.00000000 NULL
P        3.72434648       6.08134886       6.30577555       0.00000000 NULL
P        6.58699036       2.71558291       7.18175071       0.00000000 NULL
P        6.58699036       7.60041717       1.08884921       0.00000000 NULL
P        4.57081308       7.77815366       8.61815719       0.00000000 NULL
P        4.57081308      10.10335854       5.71790643       0.00000000 NULL
P        4.31184720       4.48449393       8.58808039       0.00000000 NULL
P        4.31184720       9.35776048       2.50960741       0.00000000 NULL
P       10.10993584       6.80896291       3.61276877       0.00000000 NULL
P       10.10993584       5.00699276       5.86038374       0.00000000 NULL
P        6.45147097       5.50847971       5.75313574       0.00000000 NULL
P        6.45147097       6.81333507       4.12557690       0.00000000 NULL
P        2.02721600       4.73814929       2.27617480       0.00000000 NULL
P        2.02721600       3.25206442       4.12978297       0.00000000 NULL
P        8.28256445       2.77060912       4.73856496       0.00000000 NULL
P        8.28256445       5.22766505       1.67385509       0.00000000 NULL
26
Lattice="8.211119010339216 0.3195609270326501 0.256200131622082 1.83242558764867 8.751205105820151 0.025878105008198222 1.832425587648671 1.9283006079461456 8.536153539261466" Properties=species:S:1:pos:R:3:initial_magmoms:R:1:castep_labels:S:1 n_minim_iter=8 pbc="T T T"
P       10.69008124      10.00310237       6.05728271       0.00000000 NULL
P       10.69008124       8.08760660       8.44649929       0.00000000 NULL
P        4.54745260       2.63797580       0.76930820       0.00000000 NULL
P        4.54745260       1.32455361       2.40755252       0.00000000 NULL
P        6.32452611      10.40028179       6.99190247       0.00000000 NULL
P        6.32452611       9.08623093       8.63093094       0.00000000 NULL
P        6.82425814       3.53509163       1.51381803       0.00000000 NULL
P        6.82425814       2.24633396       3.12129807       0.00000000 NULL
P        6.23241256       5.49607143       0.89832885       0.00000000 NULL
P        6.23241256       2.07200970       5.16919449       0.00000000 NULL
P        3.73868339       7.43282083       4.53921682       0.00000000 NULL
P        3.73868339       6.04693457       6.26784630       0.00000000 NULL
P        6.57533757       2.71847787       7.14823485       0.00000000 NULL
P        6.57533757       7.56833291       1.09896328       0.00000000 NULL
P        4.59034730       7.73633245       8.57107117       0.00000000 NULL
P        4.59034730      10.04830487       5.68732539       0.00000000 NULL
P        4.32011846       4.46966590       8.53834095       0.00000000 NULL
P        4.32011846       9.30598684       2.50595060       0.00000000 NULL
P       10.08801955       6.79657837       3.62254469       0.00000000 NULL
P       10.08801955       5.01384159       5.84616970       0.00000000 NULL
P        6.44364340       5.49248080       5.72756330       0.00000000 NULL
P        6.44364340       6.78489547       4.11552186       0.00000000 NULL
P        2.04339919       4.70856897       2.26643558       0.00000000 NULL
P        2.04339919       3.23612572       4.10302844       0.00000000 NULL
P        8.25869087       2.78146205       4.72363410       0.00000000 NULL
P        8.25869087       5.21545159       1.68769518       0.00000000 NULL
26
Lattice="8.24408334783482 0.33166530439653 0.2659045191472582 1.8515596305010293 8.780571608278164 0.013881160486660063 1.8515596305010305 1.9229768164331478 8.567426137305048" Properties=species:S:1:pos:R:3:initial_magmoms:R:1:castep_labels:S:1 n_minim_iter=9 pbc="T T T"
P       10.75225827      10.03695870       6.07774209       0.00000000 NULL
P       10.75225827       8.11493879       8.47509630       0.00000000 NULL
P        4.56966178       2.65110473       0.77202180       0.00000000 NULL
P        4.56966178       1.33005730       2.41977717       0.00000000 NULL
P        6.37158566      10.43076430       7.00879514       0.00000000 NULL
P        6.37158566       9.10934809       8.65701048       0.00000000 NULL
P        6.85816224       3.55262608       1.52083920       0.00000000 NULL
P        6.85816224       2.25700015       3.13688608       0.00000000 NULL
P        6.26324947       5.52033534       0.89868419       0.00000000 NULL
P        6.26324947       2.07763298       5.19280047       0.00000000 NULL
P        3.76876744       7.45254648       4.54711641       0.00000000 NULL
P        3.76876744       6.05893466       6.28538205       0.00000000 NULL
P        6.61217935       2.72436325       7.17941970       0.00000000 NULL
P        6.61217935       7.60005132       1.09792633       0.00000000 NULL
P        4.62834107       7.75138239       8.59682451       0.00000000 NULL
P        4.62834107      10.07671468       5.69641484       0.00000000 NULL
P        4.35149114       4.47565563       8.56871824       0.00000000 NULL
P        4.35149114       9.33693970       2.50519113       0.00000000 NULL
P       10.14165760       6.82736405       3.63963648       0.00000000 NULL
P       10.14165760       5.03721902       5.87250186       0.00000000 NULL
P        6.48144057       5.50921080       5.74768192       0.00000000 NULL
P        6.48144057       6.80817074       4.12747648       0.00000000 NULL
P        2.06278051       4.72129604       2.26942553       0.00000000 NULL
P        2.06278051       3.24181175       4.11480074       0.00000000 NULL
P        8.30019873       2.79527155       4.74607768       0.00000000 NULL
P        8.30019873       5.24036109       1.69629361       0.00000000 NULL
26
Lattice="8.236519014498276 0.33558165228922243 0.2690443549679346 1.8544543178784587 8.771253448588768 0.012195180284926452 1.8544543178784598 1.9193048511940776 8.55869760360684" Properties=species:S:1:pos:R:3:initial_magmoms:R:1:castep_labels:S:1 n_minim_iter=10 pbc="T T T"
P       10.74995189      10.02762959       6.07441921       0.00000000 NULL
P       10.74995189       8.10966671       8.46671304       0.00000000 NULL
P        4.56689079       2.64994703       0.77165843       0.00000000 NULL
P        4.56689079       1.32945087       2.41872619       0.00000000 NULL
P        6.37445933      10.42070433       7.00146137       0.00000000 NULL
P        6.37445933       9.10000218       8.64878606       0.00000000 NULL
P        6.85475556       3.55134386       1.52075734       0.00000000 NULL
P        6.85475556       2.25664142       3.13565235       0.00000000 NULL
P        6.25892154       5.51704080       0.89788846       0.00000000 NULL
P        6.25892154       2.07613987       5.18975781       0.00000000 NULL
P        3.77130208       7.44353065       4.54069192       0.00000000 NULL
P        3.77130208       6.05070332       6.27797904       0.00000000 NULL
P        6.60988990       2.72247750       7.17476887       0.00000000 NULL
P        6.60988990       7.59510172       1.09709709       0.00000000 NULL
P        4.63167601       7.74130787       8.58817165       0.00000000 NULL
P        4.63167601      10.06607808       5.68846306       0.00000000 NULL
P        4.35263299       4.47036817       8.56076684       0.00000000 NULL
P        4.35263299       9.32802877       2.50175932       0.00000000 NULL
P       10.13785551       6.82500973       3.64074803       0.00000000 NULL
P       10.13785551       5.03779200       5.86996216       0.00000000 NULL
P        6.47955947       5.50483461       5.74273159       0.00000000 NULL
P        6.47955947       6.80238724       4.12428153       0.00000000 NULL
P        2.06628952       4.71553876       2.26642061       0.00000000 NULL
P        2.06628952       3.23762676       4.10983468       0.00000000 NULL
P        8.29588187       2.79607048       4.74371498       0.00000000 NULL
P        8.29588187       5.23822867       1.69758721       0.00000000 NULL
26
Lattice="8.23395508080224 0.3425827693479713 0.2746573287711111 1.8616104355737826 8.764467493693568 0.00787972591227136 1.861610435573784 1.913616992055369 8.553012483669637" Properties=species:S:1:pos:R:3:initial_magmoms:R:1:castep_labels:S:1 n_minim_iter=11 pbc="T T T"
P       10.75931229      10.02139927       6.07363263       0.00000000 NULL
P       10.75931229       8.10754411       8.46080287       0.00000000 NULL
P        4.56789947       2.65067335       0.77156578       0.00000000 NULL
P        4.56789947       1.32951838       2.41945528       0.00000000 NULL
P        6.38703173      10.41309930       6.99496551       0.00000000 NULL
P        6.38703173       9.09200798       8.64277563       0.00000000 NULL
P        6.85739096       3.55263798       1.52177059       0.00000000 NULL
P        6.85739096       2.25791185       3.13669515       0.00000000 NULL
P        6.25959485       5.51698306       0.89679139       0.00000000 NULL
P        6.25959485       2.07505649       5.18994003       0.00000000 NULL
P        3.78019087       7.43537132       4.53374528       0.00000000 NULL
P        3.78019087       6.04214860       6.27152559       0.00000000 NULL
P        6.61430464       2.72096644       7.17427903       0.00000000 NULL
P        6.61430464       7.59429500       1.09572870       0.00000000 NULL
P        4.64302071       7.73092891       8.58159847       0.00000000 NULL
P        4.64302071      10.05740519       5.67976189       0.00000000 NULL
P        4.36000668       4.46456459       8.55590188       0.00000000 NULL
P        4.36000668       9.32201819       2.49715256       0.00000000 NULL
P       10.14386159       6.82727983       3.64515844       0.00000000 NULL
P       10.14386159       5.04259052       5.87121885       0.00000000 NULL
P        6.48454069       5.50203235       5.73985645       0.00000000 NULL
P        6.48454069       6.79897151       4.12217155       0.00000000 NULL
P        2.07446143       4.71035823       2.26302148       0.00000000 NULL
P        2.07446143       3.23318241       4.10551731       0.00000000 NULL
P        8.29885116       2.79938332       4.74456089       0.00000000 NULL
P        8.29885116       5.23977475       1.70063682       0.00000000 NULL
26
Lattice="8.191537482344991 0.4845030024626435 0.3884383931253917 2.0084005152066875 8.605811794079237 -0.08680649879524724 2.008400515206689 1.7866953385549313 8.418744073229242" Properties=species:S:1:pos:R:3:initial_magmoms:R:1:castep_labels:S:1 n_minim_iter=12 pbc="T T T"
P       10.96066199       9.86224941       6.04175913       0.00000000 NULL
P       10.96066199       8.04182456       8.31239283       0.00000000 NULL
P        4.59227595       2.65805647       0.76378167       0.00000000 NULL
P        4.59227595       1.32352609       2.42835445       0.00000000 NULL
P        6.64931949      10.23074550       6.84155854       0.00000000 NULL
P        6.64931949       8.90261741       8.49814567       0.00000000 NULL
P        6.92062572       3.56898492       1.53591200       0.00000000 NULL
P        6.92062572       2.27526964       3.14957569       0.00000000 NULL
P        6.27412016       5.50197085       0.86477231       0.00000000 NULL
P        6.27412016       2.04053909       5.18224995       0.00000000 NULL
P        3.96405133       7.24702754       4.37453564       0.00000000 NULL
P        3.96405133       5.84579164       6.12231087       0.00000000 NULL
P        6.71045827       2.67744067       7.15121584       0.00000000 NULL
P        6.71045827       7.56231859       1.05825988       0.00000000 NULL
P        4.87721821       7.49202163       8.42725557       0.00000000 NULL
P        4.87721821       9.85480294       5.48013536       0.00000000 NULL
P        4.51171879       4.32893599       8.43753680       0.00000000 NULL
P        4.51171879       9.17699182       2.39050940       0.00000000 NULL
P       10.28136389       6.85756646       3.73064516       0.00000000 NULL
P       10.28136389       5.13261762       5.88219071       0.00000000 NULL
P        6.58849070       5.42692630       5.66534614       0.00000000 NULL
P        6.58849070       6.70991170       4.06506591       0.00000000 NULL
P        2.24887062       4.59211283       2.18526797       0.00000000 NULL
P        2.24887062       3.13157590       4.00700994       0.00000000 NULL
P        8.36946155       2.85893874       4.75083312       0.00000000 NULL
P        8.36946155       5.25884783       1.75740307       0.00000000 NULL
26
Lattice="8.566847361042097 0.4470836788845263 0.35843836867013845 2.0355337932135376 8.469065987783393 -0.33944809943352294 2.035533793213539 1.5103628585995579 8.340210294291238" Properties=species:S:1:pos:R:3:initial_magmoms:R:1:castep_labels:S:1 n_minim_iter=13 pbc="T T T"
P       11.36227285       9.46939951       5.73949385       0.00000000 NULL
P       11.36227285       7.66136340       7.99467496       0.00000000 NULL
P        4.76886280       2.57326418       0.64804994       0.00000000 NULL
P        4.76886280       1.19212495       2.37075839       0.00000000 NULL
P        6.81814311       9.87992208       6.52328106       0.00000000 NULL
P        6.81814311       8.51566635       8.22493056       0.00000000 NULL
P        7.23295515       3.43610973       1.39296455       0.00000000 NULL
P        7.23295515       2.10684795       3.05096575       0.00000000 NULL
P        6.46880064       5.37214847       0.66378272       0.00000000 NULL
P        6.46880064       1.81612811       5.09924165       0.00000000 NULL
P        4.08282896       6.98822752       4.11273096       0.00000000 NULL
P        4.08282896       5.53397339       5.92663635       0.00000000 NULL
P        6.96276522       2.41033029       7.08959612       0.00000000 NULL
P        6.96276522       7.44408752       0.81094155       0.00000000 NULL
P        4.99419132       7.09201736       8.19900384       0.00000000 NULL
P        4.99419132       9.54502833       5.13933929       0.00000000 NULL
P        4.62024943       4.00720545       8.29922875       0.00000000 NULL
P        4.62024943       8.97202991       2.10655470       0.00000000 NULL
P       10.69360840       6.64487016       3.59560218       0.00000000 NULL
P       10.69360840       4.95455328       5.70395093       0.00000000 NULL
P        6.77382989       5.14667138       5.49781385       0.00000000 NULL
P        6.77382989       6.48544422       3.82794941       0.00000000 NULL
P        2.37246889       4.44225084       2.00094881       0.00000000 NULL
P        2.37246889       2.91907859       3.90081643       0.00000000 NULL
P        8.71156986       2.66868349       4.66239190       0.00000000 NULL
P        8.71156986       5.13115008       1.59093327       0.00000000 NULL
26
Lattice="8.287058962164567 0.4171519584894709 0.3344413463304673 1.952369698534844 8.265049721209765 -0.2599055309313618 1.9523696985348449 1.5436364153682318 8.12377894801597" Properties=species:S:1:pos:R:3:initial_magmoms:R:1:castep_labels:S:1 n_minim_iter=14 pbc="T T T"
P       10.96512272       9.27099559       5.64321594       0.00000000 NULL
P       10.96512272       7.52424448       7.82195566       0.00000000 NULL
P        4.60562243       2.50571988       0.64247171       0.00000000 NULL
P        4.60562243       1.17199199       2.30604354       0.00000000 NULL
P        6.56582205       9.69205044       6.42023191       0.00000000 NULL