11
Lattice="6.354713606359553 0.6611980278948983 0.619992836047097 -2.4391666486488845 5.943040274755978 -1.3742261630711092 -0.5984056281534305 -3.2498808457650092 6.458323988789325" Properties=species:S:1:pos:R:3:initial_magmoms:R:1:castep_labels:S:1:forces:R:3 n_minim_iter=1 energy=-55.934856993832405 stress="0.0023980918278064976 -0.0006750237278427629 0.000998370095670746 -0.0006750237278427629 0.0016491389979220214 -0.0018768412566568468 0.000998370095670746 -0.0018768412566568468 0.0031955852253435025" free_energy=-55.934856993832405 pbc="T T T"
P        4.19131243      -1.26838630       6.35882191       0.00000000 NULL       0.05424946       0.07944286       0.26172538
P        2.03354250      -1.70979576       6.56178168       0.00000000 NULL       0.12267856      -0.36798980       0.15362299
P        3.32717128       0.24534677       3.66879060       0.00000000 NULL       0.01539889       0.26208329       0.20702284
P        3.45981494       4.80308064       0.70772261       0.00000000 NULL      -0.18281531      -0.19926183       0.34732034
P       -0.48041218      -3.25140866       6.40847282       0.00000000 NULL      -0.10867583      -0.11180452      -0.32440761
P        0.23304191      -2.00252327       4.51979889       0.00000000 NULL       0.04754391       0.03113853      -0.44768477
P       -1.19683356       2.90702751       0.84614782       0.00000000 NULL      -0.02665525       0.24659815       0.03088822
P        3.25036452      -0.13752222       1.53409774       0.00000000 NULL      -0.42436994      -0.42217303       0.08812788
P        1.87647947       1.56514569       2.28593845       0.00000000 NULL       0.12689381       0.43791095       0.01798810
P        2.09016285       4.36854845       2.78667505       0.00000000 NULL       0.18473415       0.02572984      -0.37162923
P       -0.18506875       0.88648370       1.99363567       0.00000000 NULL       0.19101756       0.01832556       0.03702584
11
Lattice="6.325639942594487 0.6693968769224325 0.6066719053235728 -2.4180119648824343 5.916618475775147 -1.3403779379073257 -0.6119416517345471 -3.2177198206710793 6.40908861671072" Properties=species:S:1:pos:R:3:initial_magmoms:R:1:castep_labels:S:1:forces:R:3 n_minim_iter=2 energy=-55.949566691752196 stress="-0.0037330014259202206 0.001162328084856361 -0.0007919983894321686 0.001162328084856361 -0.003642770636784857 -0.00017295867322050744 -0.0007919983894321686 -0.00017295867322050744 -0.0029738989291915583" free_energy=-55.949566691752196 pbc="T T T"
P        4.15924255      -1.23600852       6.31030679       0.00000000 NULL       0.00716178       0.13417377       0.22088441
P        2.01084228      -1.68168156       6.51365039       0.00000000 NULL       0.06942826      -0.29575186       0.01175112
P        3.30566912       0.26389108       3.64300356       0.00000000 NULL      -0.01175266       0.32459303       0.29762383
P        3.44744763       4.79344244       0.71673384       0.00000000 NULL      -0.28844790      -0.16519012       0.30621762
P       -0.49526277      -3.22018236       6.35669770       0.00000000 NULL      -0.03365809      -0.17438678      -0.30376624
P        0.22135532      -1.97979452       4.48147573       0.00000000 NULL       0.21250251       0.03360265      -0.43611319
P       -1.18953110       2.90145499       0.85382813       0.00000000 NULL       0.07788422       0.17207480       0.09554213
P        3.22917933      -0.13096028       1.51898165       0.00000000 NULL      -0.39204221      -0.51831432      -0.00250249
P        1.86671357       1.57427646       2.27434267       0.00000000 NULL       0.04999422       0.50443002       0.07861740
P        2.08251567       4.36766824       2.77842050       0.00000000 NULL       0.17569131      -0.04282543      -0.38451480
P       -0.18530828       0.89068885       1.98541038       0.00000000 NULL       0.13323855       0.02759423       0.11626021
11
Lattice="6.354559193520633 0.6728365130667775 0.5949030292891254 -2.4394767342986574 5.9638507266064185 -1.2254593321567588 -0.6269390978768956 -3.1442128662895756 6.315879083624589" Properties=species:S:1:pos:R:3:initial_magmoms:R:1:castep_labels:S:1:forces:R:3 n_minim_iter=3 energy=-56.017948795229785 stress="0.0016957634351323343 -6.216822562786076e-05 -0.004159126904749326 -6.216822562786076e-05 0.002689719321101892 0.007089830024840235 -0.004159126904749326 0.007089830024840235 0.001468251233849968" free_energy=-56.017948795229785 pbc="T T T"
P        4.16647150      -1.14608080       6.25208779       0.00000000 NULL       0.00962552       0.24261747       0.17968199
P        2.01181085      -1.61715973       6.44277530       0.00000000 NULL       0.21674902      -0.20498266       0.00504650
P        3.31120771       0.33949887       3.63014709       0.00000000 NULL       0.02254610       0.09895219      -0.05655881
P        3.43731712       4.83843472       0.80263924       0.00000000 NULL      -0.35155368      -0.29534108       0.26528303
P       -0.51421135      -3.15733878       6.24326912       0.00000000 NULL      -0.13579486       0.10477156       0.05622404
P        0.22155124      -1.92542317       4.39079411       0.00000000 NULL       0.23535027      -0.01628601      -0.40644369
P       -1.20329010       2.96378302       0.90455991       0.00000000 NULL       0.02616658      -0.22203918       0.01761427
P        3.21504474      -0.14421298       1.49979263       0.00000000 NULL      -0.50998710      -0.25049341       0.24098048
P        1.87188391       1.65564945       2.28392833       0.00000000 NULL       0.05998672       0.40712276       0.01811471
P        2.08693055       4.45610598       2.80335444       0.00000000 NULL       0.13910697       0.03013883      -0.25663597
P       -0.18353674       0.93551896       1.99268402       0.00000000 NULL       0.28780447       0.10553954      -0.06330656
11
Lattice="6.356465067333722 0.6537361018041028 0.6705446980876868 -2.4745773054117923 6.0026820550510775 -1.265351951922142 -0.5243342718030854 -3.19009408242359 6.199368486633609" Properties=species:S:1:pos:R:3:initial_magmoms:R:1:castep_labels:S:1:forces:R:3 n_minim_iter=4 energy=-56.15916035688781 stress="0.0016791999066653799 -0.0023058890454039863 0.0005484371839950386 -0.0023058890454039863 0.00186197930039949 0.0038208414701484043 0.0005484371839950386 0.0038208414701484043 -0.007186922651043998" free_energy=-56.15916035688781 pbc="T T T"
P        4.26237509      -1.18008363       6.22532554       0.00000000 NULL       0.09546183      -0.00872238       0.15646999
P        2.12515056      -1.70685361       6.36314968       0.00000000 NULL       0.28069566      -0.33073877      -0.10204637
P        3.36162891       0.34615846       3.63084131       0.00000000 NULL       0.12084182      -0.13604983      -0.20221267
P        3.39898392       4.81829020       0.85203443       0.00000000 NULL      -0.04981164      -0.33154807      -0.12747906
P       -0.42411897      -3.21703255       6.09704888       0.00000000 NULL      -0.17265913       0.35013187       0.00547687
P        0.30922250      -1.95606823       4.26279921       0.00000000 NULL       0.27744730      -0.01621192      -0.53107956
P       -1.19599073       2.99405538       0.86233131       0.00000000 NULL      -0.06048901      -0.24694179       0.26399659
P        3.17952832      -0.21915121       1.52555175       0.00000000 NULL      -0.40696205       0.00664751       0.35635856
P        1.90989466       1.70539701       2.26446494       0.00000000 NULL       0.04186506       0.11759464       0.18798456
P        2.13452272       4.45247364       2.71173138       0.00000000 NULL      -0.23272877       0.30598363       0.06275910
P       -0.13305868       0.93380246       1.95347314       0.00000000 NULL       0.10633893       0.28985513      -0.07022801
11
Lattice="6.3117067959113315 0.6963615840157538 0.664561788089415 -2.4084100135848305 5.966137511876692 -1.3066287158349803 -0.5556807307957776 -3.211106167788493 6.300510318298743" Properties=species:S:1:pos:R:3:initial_magmoms:R:1:castep_labels:S:1:forces:R:3 n_minim_iter=5 energy=-56.21739198709681 stress="-0.0022574016605417246 0.0025510632849603853 -0.000300070463813231 0.0025510632849603853 0.0003216337906194818 0.003426631877120082 -0.000300070463813231 0.003426631877120082 0.0004662135452224766" free_energy=-56.21739198709681 pbc="T T T"
P        4.21309430      -1.16627034       6.32396358       0.00000000 NULL       0.00860133       0.11323697      -0.06967358
P        2.09477371      -1.73832064       6.45784956       0.00000000 NULL       0.21351753      -0.32341603       0.13245711
P        3.33417489       0.36666048       3.68215992       0.00000000 NULL       0.05934458      -0.06863326      -0.47987603
P        3.39382157       4.80497328       0.85025600       0.00000000 NULL      -0.21227183      -0.10571078      -0.31530924
P       -0.46367495      -3.23831992       6.18060877       0.00000000 NULL       0.04467203       0.29419538       0.08367791
P        0.29498625      -1.96545200       4.29791495       0.00000000 NULL       0.20236833      -0.14824743      -0.42467400
P       -1.16597222       2.97601391       0.86889613       0.00000000 NULL       0.10134213      -0.40524789       0.39752545
P        3.12118066      -0.22664419       1.54967576       0.00000000 NULL      -0.30934002       0.10579698       0.66074317
P        1.91006565       1.73064370       2.28908844       0.00000000 NULL       0.10927637      -0.02980373      -0.02322540
P        2.15304793       4.44274850       2.70412944       0.00000000 NULL      -0.19748502       0.29445851       0.25001378
P       -0.11708678       0.92587023       1.97852733       0.00000000 NULL      -0.02002543       0.27337128      -0.21165917
11
Lattice="6.333269596659621 0.5956048377529952 0.5401939249617619 -2.481118660224975 5.958456940656103 -1.3281871736895288 -0.6353217585109832 -3.241662619011364 6.361214168583233" Properties=species:S:1:pos:R:3:initial_magmoms:R:1:castep_labels:S:1:forces:R:3 n_minim_iter=6 energy=-56.29924332939418 stress="0.0012323269438293677 0.00030004312662911523 -0.007254508098988134 0.00030004312662911523 -0.0011630662929370027 -0.0013857274575076349 -0.007254508098988134 -0.0013857274575076349 -0.003047867980804977" free_energy=-56.29924332939418 pbc="T T T"
P        4.14413628      -1.26970562       6.29511999       0.00000000 NULL      -0.12138387      -0.31544013      -0.32234332
P        2.03534114      -1.87503685       6.46764510       0.00000000 NULL       0.19859956      -0.30894064       0.22420199
P        3.28806612       0.29680981       3.62085860       0.00000000 NULL       0.08336774       0.14322383      -0.16195630
P        3.30768757       4.67697035       0.74945418       0.00000000 NULL       0.03567631       0.04015772      -0.41570848
P       -0.54838279      -3.25997876       6.21345608       0.00000000 NULL      -0.09831151       0.28209242       0.07740359
P        0.26541726      -2.00254513       4.25530431       0.00000000 NULL       0.17573742      -0.27839998      -0.21518562
P       -1.22726708       2.95404325       0.88955188       0.00000000 NULL      -0.08418115      -0.00528815       0.65936289
P        3.05823700      -0.31881500       1.53955953       0.00000000 NULL      -0.20828807       0.13781098       0.20506565
P        1.87153696       1.70457109       2.24643848       0.00000000 NULL       0.31257082      -0.09123136      -0.03580868
P        2.05833231       4.36425455       2.60328955       0.00000000 NULL      -0.23399183       0.18391211       0.22775290
P       -0.15282210       0.91798365       1.97090929       0.00000000 NULL      -0.05979543       0.21210321      -0.24278463
11
Lattice="6.294648531680233 0.5137484034298795 0.6125749032568899 -2.5562273089049192 5.936191160217396 -1.327743079109114 -0.5269512874792754 -3.169438542197058 6.393757778753532" Properties=species:S:1:pos:R:3:initial_magmoms:R:1:castep_labels:S:1:forces:R:3 n_minim_iter=7 energy=-56.39825236616041 stress="-0.0029300945295038885 -0.003327930701362131 -0.00288790256389452 -0.003327930701362131 -0.0032587443761402666 0.00156996868289938 -0.00288790256389452 0.00156996868289938 -0.004289738100809308" free_energy=-56.39825236616041 pbc="T T T"
P        4.20296001      -1.27005983       6.40178678       0.00000000 NULL       0.16532971      -0.04236844      -0.33768071
P        2.14048558      -1.90548116       6.55605254       0.00000000 NULL      -0.16561205      -0.24357485       0.21581232
P        3.30825909       0.29577982       3.68203723       0.00000000 NULL       0.05833049       0.23366339      -0.15550202
P        3.21225627       4.57922445       0.82111695       0.00000000 NULL       0.34279365      -0.11669334      -0.58955575
P       -0.45222848      -3.17555343       6.22085705       0.00000000 NULL      -0.00336929       0.36037053       0.18683264
P        0.35551209      -1.97556358       4.21459077       0.00000000 NULL       0.07644653      -0.20909928      -0.11394017
P       -1.24805722       2.95295115       0.94533413       0.00000000 NULL      -0.24006371      -0.10246798       0.49349579
P        3.00199978      -0.37354687       1.62723622       0.00000000 NULL       0.02823529       0.14469614       0.25350670
P        1.88244438       1.71664855       2.30175142       0.00000000 NULL       0.28532604      -0.30427741      -0.18510675
P        2.01230668       4.34552348       2.66240768       0.00000000 NULL      -0.29012729       0.01068276       0.50627001
P       -0.13206064       0.94845562       1.98374843       0.00000000 NULL      -0.25728937       0.26906848      -0.27413207
11
Lattice="6.355486340722792 0.5785413758874697 0.6379521567874524 -2.5248139402960215 5.9445054145526655 -1.3330991493776478 -0.5343098865009233 -3.1935807213126948 6.360925057971536" Properties=species:S:1:pos:R:3:initial_magmoms:R:1:castep_labels:S:1:forces:R:3 n_minim_iter=8 energy=-56.43142682623377 stress="0.004748510002921795 0.001681712877053151 -0.0012578349334590071 0.001681712877053151 -0.0038394416482324845 0.001294255128292632 -0.0012578349334590071 0.001294255128292632 -0.008456939445922716" free_energy=-56.43142682623377 pbc="T T T"
P        4.26079318      -1.23236488       6.39344506       0.00000000 NULL      -0.25300258      -0.11366575      -0.29234190
P        2.17646941      -1.92803961       6.54916182       0.00000000 NULL       0.16663703       0.01462529       0.01326704
P        3.35855481       0.34639207       3.67604869       0.00000000 NULL       0.06842785       0.24702292       0.06238807
P        3.28262500       4.62152147       0.82680307       0.00000000 NULL       0.38065451      -0.06520500      -0.62436924
P       -0.46413669      -3.18965095       6.17861195       0.00000000 NULL       0.06261919       0.21890291       0.34777890
P        0.36736669      -1.99120633       4.16136333       0.00000000 NULL      -0.14362975      -0.16460057      -0.00843466
P       -1.22904832       2.95857123       0.95825364       0.00000000 NULL      -0.15892981      -0.28754171       0.38940741
P        3.00385469      -0.36138840       1.65730581       0.00000000 NULL       0.14875375       0.01366318       0.01371968
P        1.94090855       1.75803306       2.29605074       0.00000000 NULL      -0.01974000      -0.33438022      -0.19750356
P        2.08129526       4.39819473       2.65786495       0.00000000 NULL      -0.19737856       0.05600514       0.54294463
P       -0.11313314       0.96589508       1.96517549       0.00000000 NULL      -0.05441161       0.41517380      -0.24685637
11
Lattice="6.2582785469938145 0.5957551195023099 0.6326699004476922 -2.482169039300296 6.083742205168317 -1.359538534020255 -0.5294654068551905 -3.298306987875572 6.371525297512321" Properties=species:S:1:pos:R:3:initial_magmoms:R:1:castep_labels:S:1:forces:R:3 n_minim_iter=9 energy=-56.45431174147163 stress="-0.003498402870184397 0.0005989830487377099 -0.0012801315476011588 0.0005989830487377099 0.0035717495372645613 -0.0011108090899032285 -0.0012801315476011588 -0.0011108090899032285 -0.009776421362342564" free_energy=-56.45431174147163 pbc="T T T"
P        4.19569893      -1.27901400       6.39313025       0.00000000 NULL      -0.31617428      -0.02987312      -0.20727169
P        2.14754290      -2.03331782       6.57071526       0.00000000 NULL       0.16887567      -0.11024113       0.06891468
P        3.30902318       0.36870987       3.67349335       0.00000000 NULL       0.10525092       0.03703730       0.00754511
P        3.23622146       4.70881764       0.79239778       0.00000000 NULL       0.25495034      -0.13835434      -0.49681772
P       -0.46170147      -3.28494597       6.18339674       0.00000000 NULL       0.12370251       0.21110064       0.39691085
P        0.36218109      -2.06543713       4.13350954       0.00000000 NULL       0.07443818      -0.10119880       0.22103952
P       -1.21591685       3.01906004       0.96871277       0.00000000 NULL       0.06309244      -0.47398737       0.16101585
P        2.93408040      -0.39674570       1.67960848       0.00000000 NULL       0.16917755       0.25583773      -0.22683772
P        1.92635828       1.79983438       2.27434291       0.00000000 NULL       0.09412131      -0.24532245      -0.02760490
P        2.05117615       4.49274913       2.64018746       0.00000000 NULL      -0.55541702       0.20521842       0.31213538
P       -0.10946607       0.99821646       1.94652000       0.00000000 NULL      -0.18201760       0.38978312      -0.20902937
11
Lattice="6.264123753370458 0.5655220773585034 0.6464101480414911 -2.508025263665205 6.025497352611201 -1.3756605668247204 -0.5103469530791459 -3.2598782342840513 6.430547973688243" Properties=species:S:1:pos:R:3:initial_magmoms:R:1:castep_labels:S:1:forces:R:3 n_minim_iter=10 energy=-56.49454192292036 stress="-0.001825780374167704 -5.535563790589925e-05 -0.0007830110515085992 -5.535563790589925e-05 0.0011673797717743687 -0.0008519930180607956 -0.0007830110515085992 -0.0008519930180607956 -0.0050313429350971346" free_energy=-56.49454192292036 pbc="T T T"
P        4.20659052      -1.26477143       6.45553010       0.00000000 NULL      -0.18107484      -0.22717182      -0.24517951
P        2.17175969      -2.04965167       6.65862484       0.00000000 NULL       0.16223998      -0.09351669      -0.13393516
P        3.31874210       0.39028003       3.72393182       0.00000000 NULL       0.07570484      -0.11586467      -0.38472458
P        3.23226284       4.62141343       0.78932612       0.00000000 NULL       0.07339818      -0.06284986      -0.31150977
P       -0.43836145      -3.24160997       6.24530440       0.00000000 NULL      -0.00973475       0.29145170       0.34883320
P        0.37312420      -2.05268068       4.14974448       0.00000000 NULL       0.01013419      -0.01790098       0.37702280
P       -1.23229311       2.97922039       0.99390579       0.00000000 NULL       0.15465154      -0.45901443       0.11398753
P        2.92465876      -0.42740921       1.70894456       0.00000000 NULL       0.32453956       0.39401240       0.20571730
P        1.94174321       1.78111710       2.27985270       0.00000000 NULL      -0.05808984      -0.22156810       0.02829324
P        2.03515870       4.43675058       2.67476361       0.00000000 NULL      -0.41224503       0.23286108       0.13220625
P       -0.11160447       1.01423240       1.94689292       0.00000000 NULL      -0.13952383       0.27956136      -0.13071131
11
Lattice="6.2595672908999855 0.6266638737389711 0.6996269864354671 -2.4635104217258728 6.023867297442918 -1.3441297581021179 -0.49594978964710185 -3.2137107766893873 6.471998390690295" Properties=species:S:1:pos:R:3:initial_magmoms:R:1:castep_labels:S:1:forces:R:3 n_minim_iter=11 energy=-56.56987571258355 stress="0.0005443339807912695 0.00032164834292149747 -0.001509877124344687 0.00032164834292149747 0.0054127865656058705 0.001670308691052859 -0.001509877124344687 0.001670308691052859 0.002572706159739935" free_energy=-56.56987571258355 pbc="T T T"
P        4.20061301      -1.16688720       6.52562987       0.00000000 NULL       0.00625643      -0.04020266      -0.13377142
P        2.21741298      -2.04012189       6.73958061       0.00000000 NULL       0.03458296      -0.06775735       0.03847965
P        3.34394461       0.53511265       3.76958491       0.00000000 NULL       0.04905821      -0.26297611      -0.44075341
P        3.26478030       4.62423197       0.85822979       0.00000000 NULL      -0.04103597       0.01227982      -0.25912443
P       -0.43079585      -3.16732417       6.32638284       0.00000000 NULL       0.02786286       0.20812074       0.17086470
P        0.36310358      -2.01475114       4.20373343       0.00000000 NULL      -0.00728302      -0.25374788       0.01331307
P       -1.18010028       2.92978779       1.04427721       0.00000000 NULL      -0.13388198      -0.07745731       0.19356661
P        2.94401926      -0.41326795       1.80681358       0.00000000 NULL       0.24472012       0.42723394       0.11878923
P        1.96920736       1.85623134       2.30525044       0.00000000 NULL      -0.07323992      -0.05745639      -0.09888673
P        2.06093201       4.51922857       2.74489761       0.00000000 NULL      -0.04493129       0.30364125       0.31199912
P       -0.09144865       1.10985034       1.94818491       0.00000000 NULL      -0.06210840      -0.19167805       0.08552360
11
Lattice="6.2829646916980515 0.600261860487858 0.7476453215085369 -2.4931992763244795 5.912098880693134 -1.3721965584256188 -0.45317737333916913 -3.139724599271593 6.570699943498485" Properties=species:S:1:pos:R:3:initial_magmoms:R:1:castep_labels:S:1:forces:R:3 n_minim_iter=12 energy=-56.625580578373594 stress="0.0008841034655258666 -0.000808459128611354 -0.00017270629581132824 -0.000808459128611354 -0.00014109501135788503 -0.0004069475689459166 -0.00017270629581132824 -0.0004069475689459166 0.008337430111093178" free_energy=-56.625580578373594 pbc="T T T"
P        4.24483857      -1.15156705       6.63072510       0.00000000 NULL       0.04717469       0.18845464      -0.08362724
P        2.27080855      -2.04544300       6.85160235       0.00000000 NULL      -0.03381791      -0.03125037       0.16240675
P        3.38007757       0.56220913       3.80884797       0.00000000 NULL       0.05119418      -0.07076602      -0.14620990
P        3.26696134       4.49144380       0.87131219       0.00000000 NULL      -0.14643874       0.12697813      -0.18866420
P       -0.38772371      -3.07354519       6.44812898       0.00000000 NULL       0.05753874      -0.03589763       0.19791040
P        0.36903929      -2.00188058       4.28097161       0.00000000 NULL       0.21660960      -0.07220373       0.14726217
P       -1.20420441       2.87388012       1.09393777       0.00000000 NULL      -0.19524965      -0.05603773       0.01920124
P        3.03358387      -0.40497127       1.88354954       0.00000000 NULL       0.12122251       0.10119890      -0.10949692
P        1.95367057       1.85667241       2.31415916       0.00000000 NULL       0.05960369      -0.08660188      -0.20633634
P        2.08923225       4.46866621       2.82439352       0.00000000 NULL      -0.03554941       0.18905000       0.24091740
P       -0.08886270       1.08577292       2.00608084       0.00000000 NULL      -0.14228770      -0.25292431      -0.03336337
11
Lattice="6.265378881263365 0.660346778275955 0.7685957749662816 -2.4391954471807433 5.924891467251383 -1.3406577319168203 -0.45759007150007347 -3.1300598162814004 6.525877713061984" Properties=species:S:1:pos:R:3:initial_magmoms:R:1:castep_labels:S:1:forces:R:3 n_minim_iter=13 energy=-56.6998902281185 stress="0.0062769637929131 -9.022023858893192e-05 0.001054785565658508 -9.022023858893192e-05 0.00044334777007480625 -0.0002077398803273464 0.001054785565658508 -0.0002077398803273464 0.006806226553488263" free_energy=-56.6998902281185 pbc="T T T"
P        4.21564115      -1.06944042       6.59878003       0.00000000 NULL       0.26638863       0.07386815      -0.13370862
P        2.28776811      -2.05084377       6.81040360       0.00000000 NULL      -0.15634510       0.27809531      -0.00067784
P        3.40066943       0.63071104       3.77906604       0.00000000 NULL      -0.08625539       0.02618024      -0.16491511
P        3.26173643       4.52572313       0.85938991       0.00000000 NULL      -0.32919724       0.22724578      -0.15072629
P       -0.38478538      -3.05376713       6.46050311       0.00000000 NULL      -0.11143858      -0.16449462       0.06747609
P        0.39753040      -2.01668354       4.27943063       0.00000000 NULL      -0.02305268       0.04194048       0.03822384
P       -1.20686344       2.86008130       1.12641313       0.00000000 NULL      -0.13992829       0.02155333       0.02368091
P        3.08696020      -0.36921883       1.85753977       0.00000000 NULL       0.21356397      -0.37750768       0.26612666
P        1.93430149       1.93431290       2.27948643       0.00000000 NULL       0.11033347      -0.03740158      -0.19363261
P        2.11871978       4.60463118       2.88188692       0.00000000 NULL       0.29167643       0.06084348       0.31946844
P       -0.08887540       1.07622963       2.03163986       0.00000000 NULL      -0.03574523      -0.15032288      -0.07131546
11
Lattice="6.205294216592181 0.7420269446661933 0.8134077017861819 -2.3463754163277275 5.844301886647065 -1.2860695766898704 -0.45725570656599057 -3.037219414136144 6.520076760607097" Properties=species:S:1:pos:R:3:initial_magmoms:R:1:castep_labels:S:1:forces:R:3 n_minim_iter=14 energy=-56.810760218322926 stress="0.005087072739703483 0.004209543938052289 0.0020272375642860466 0.004209543938052289 -0.005114381242429731 0.001469202415275235 0.0020272375642860466 0.001469202415275235 0.009620336445761378" free_energy=-56.810760218322926 pbc="T T T"
P        4.18791266      -0.89901381       6.61193706       0.00000000 NULL       0.01225695      -0.01039826      -0.06753409
P        2.27643857      -1.95608350       6.80882913       0.00000000 NULL       0.04777150       0.31123516       0.32676061
P        3.39915909       0.74006142       3.77646521       0.00000000 NULL      -0.41329594       0.23485125      -0.31933938
P        3.19713610       4.53017660       0.86220222       0.00000000 NULL      -0.66668009       0.50812353      -0.28440645
P       -0.38720792      -2.96763611       6.53216518       0.00000000 NULL       0.00337118      -0.58651221       0.15869600
P        0.44561547      -1.96975116       4.31884590       0.00000000 NULL      -0.06070073       0.18306736      -0.30458902
P       -1.19322101       2.79504074       1.19461090       0.00000000 NULL      -0.00937598       0.31422670       0.11491730
P        3.15822966      -0.35224390       1.86973502       0.00000000 NULL       0.25722113      -0.39270708       0.40506292
P        1.92279353       2.02502921       2.26659700       0.00000000 NULL      -0.11261193      -0.03208441      -0.28115442
P        2.17428238       4.73837048       3.04105527       0.00000000 NULL       0.65296748      -0.43623933       0.35971189
P       -0.09493301       1.05629523       2.08358445       0.00000000 NULL       0.28907643      -0.09356270      -0.10812538
11
Lattice="6.17249534525632 0.8337951105928515 0.8319422357495654 -2.2481568204934224 5.767986963473406 -1.2437764960982336 -0.4899787533611602 -2.970909803503196 6.528456303809744" Properties=species:S:1:pos:R:3:initial_magmoms:R:1:castep_labels:S:1:forces:R:3 n_minim_iter=15 energy=-56.905501144471145 stress="-0.0015329203836446682 0.010179642524376037 0.0015151827772132427 0.010179642524376037 -0.009028244522497711 0.003932994462972588 0.0015151827772132427 0.003932994462972588 0.006773456215371025" free_energy=-56.905501144471145 pbc="T T T"
P        4.14016390      -0.76377700       6.62202061       0.00000000 NULL       0.07725908      -0.09230888       0.10525411
P        2.26118950      -1.87731997       6.83402058       0.00000000 NULL      -0.06588960       0.48533515       0.25710995
P        3.38135865       0.84093705       3.75230514       0.00000000 NULL      -0.61925864       0.37510873      -0.34114280
P        3.14719934       4.55182671       0.83107535       0.00000000 NULL      -0.56737777       0.85600306      -0.55199534
P       -0.42484081      -2.92638686       6.62231737       0.00000000 NULL       0.01448394      -0.92950542       0.17987220
P        0.47398336      -1.92109872       4.34699390       0.00000000 NULL      -0.13342219       0.28529711      -0.67221754
P       -1.17552607       2.74957716       1.25567194       0.00000000 NULL       0.18666545       0.39465039       0.29163316
P        3.22721412      -0.31638206       1.86761505       0.00000000 NULL       0.00747526      -0.63024319       0.71610306
P        1.91368810       2.10086814       2.24788908       0.00000000 NULL      -0.25254780       0.08174902      -0.25901340
P        2.24441401       4.83318968       3.17107941       0.00000000 NULL       0.84278389      -0.71382915       0.39094374
P       -0.08594178       1.04047659       2.12466316       0.00000000 NULL       0.50982837      -0.11225684      -0.11654714
11
Lattice="6.182863072343415 0.8653215656371073 0.8451422879026521 -2.2223564446957385 5.709629715181435 -1.2138306351683354 -0.4976133592695106 -2.9162924717463516 6.510700851631531" Properties=species:S:1:pos:R:3:initial_magmoms:R:1:castep_labels:S:1:forces:R:3 n_minim_iter=16 energy=-56.9778672236941 stress="-0.004729315013461303 0.011461368768726603 0.002799651531877614 0.011461368768726603 -0.010671554849168116 0.004562332646584899 0.002799651531877614 0.004562332646584899 0.0021713679140345477" free_energy=-56.9778672236941 pbc="T T T"
P        4.15509038      -0.70347354       6.62830793       0.00000000 NULL      -0.02091699      -0.09119916       0.11340004