42
Lattice="9.54342 5.069353397259122e-16 0.0 -4.77171 8.264844158984486 0.0 0.0 0.0 11.897529999999998" Properties=species:S:1:pos:R:3:initial_magmoms:R:1:castep_labels:S:1 n_minim_iter=1 pbc="T T T"
P       -2.85993107       5.13144008       0.96102180       0.00000000 NULL
P        1.10221395       8.17589709       8.89270847       0.00000000 NULL
P        1.75771855       3.22235034       4.92686513       0.00000000 NULL
P        4.00003956       0.90236064       4.08192714       0.00000000 NULL
P        3.55315841       4.34952797       0.11608381       0.00000000 NULL
P        6.76193346       3.01295474       8.04777047       0.00000000 NULL
P        6.14704232       0.32532989       2.56428773       0.00000000 NULL
P        1.97993374       2.77868441      10.49597440       0.00000000 NULL
P        6.18815537       5.16082904       6.53013106       0.00000000 NULL
P       -2.46229541       6.94276250       6.97612028       0.00000000 NULL
P        2.47204735       6.92587329       3.01027695       0.00000000 NULL
P       -0.00975051       2.66105171      10.94196361       0.00000000 NULL
P        0.44488179       3.42806561       7.24594913       0.00000000 NULL
P       -2.02535804       6.16553243       3.28010580       0.00000000 NULL
P        1.58047768       6.93608947      11.21179246       0.00000000 NULL
P        2.44657167       6.49574022       9.00495492       0.00000000 NULL
P       -0.36951884       2.89818084       5.03911159       0.00000000 NULL
P       -2.07705140       7.13576645       1.07326825       0.00000000 NULL
P        1.69426864       5.25088278       5.22422446       0.00000000 NULL
P       -1.07144549       4.17212309       1.25838113       0.00000000 NULL
P       -0.62282172       7.10668163       9.19006779       0.00000000 NULL
P       -1.03024034       4.19651016       3.66446304       0.00000000 NULL
P       -0.62230447       7.05880339      11.59614971       0.00000000 NULL
P        1.65254625       5.27437395       7.63030637       0.00000000 NULL
P        2.12383038       3.29277921       2.92074843       0.00000000 NULL
P        6.56142621       4.77916350      10.85243510       0.00000000 NULL
P        5.62987485       0.19290064       6.88659176       0.00000000 NULL
P        7.41421619       0.97684673       8.09611807       0.00000000 NULL
P        1.91057694       1.35552123       4.13027474       0.00000000 NULL
P        4.99033830       5.93247539       0.16443140       0.00000000 NULL
P        2.33029512       2.77241057       6.79798452       0.00000000 NULL
P        6.00754137       4.86054411       2.83214119       0.00000000 NULL
P        5.97729494       0.63188867      10.76382785       0.00000000 NULL
P        7.44270569       2.31896568       9.86345689       0.00000000 NULL
P        3.05864130       0.65978913       5.89761356       0.00000000 NULL
P        3.81378445       5.28608854       1.93177022       0.00000000 NULL
P        3.08255806       7.54942602       4.83717520       0.00000000 NULL
P        0.22500664       1.82055757       0.87133187       0.00000000 NULL
P       -3.30756327       7.15970392       8.80301853       0.00000000 NULL
P        4.20391993       7.43460668       8.68169070       0.00000000 NULL
P       -0.43511076       0.90683937       4.71584737       0.00000000 NULL
P       -3.76880773       8.18824145       0.75000403       0.00000000 NULL
42
Lattice="9.601902727608866 1.0543605670138038e-16 0.0 -4.800951363804433 8.31549168677637 0.0 0.0 0.0 11.983300331046296" Properties=species:S:1:pos:R:3:initial_magmoms:R:1:castep_labels:S:1 n_minim_iter=2 pbc="T T T"
P       -2.87727487       5.16275390       0.96782695       0.00000000 NULL
P        1.10876306       8.22590788       8.95669384       0.00000000 NULL
P        1.76851325       3.24232078       4.96226040       0.00000000 NULL
P        4.02473023       0.90788926       4.11119749       0.00000000 NULL
P        3.57484237       4.37602844       0.11676404       0.00000000 NULL
P        6.80328294       3.03157317       8.10563093       0.00000000 NULL
P        6.18472827       0.32739842       2.58274221       0.00000000 NULL
P        1.99212353       2.79566069      10.57160909       0.00000000 NULL
P        6.22600373       5.19243177       6.57717565       0.00000000 NULL
P       -2.47724043       6.98524990       7.02628366       0.00000000 NULL
P        2.48707367       6.96821989       3.03185022       0.00000000 NULL
P       -0.00983180       2.67751277      11.02071710       0.00000000 NULL
P        0.44730306       3.44910009       7.29843732       0.00000000 NULL
P       -2.03759364       6.20356583       3.30400387       0.00000000 NULL
P        1.59029202       6.97831663      11.29287076       0.00000000 NULL
P        2.46160530       6.53540039       9.07011477       0.00000000 NULL
P       -0.37193029       2.91597877       5.07568133       0.00000000 NULL
P       -2.08967357       7.17960339       1.08124789       0.00000000 NULL
P        1.70468980       5.28337212       5.26198877       0.00000000 NULL
P       -1.07776083       4.19750096       1.26755533       0.00000000 NULL
P       -0.62692753       7.15010948       9.25642222       0.00000000 NULL
P       -1.03667601       4.22237113       3.69051834       0.00000000 NULL
P       -0.62593174       7.10209389      11.67938523       0.00000000 NULL
P        1.66260920       5.30651754       7.68495179       0.00000000 NULL
P        2.13687625       3.31300786       2.94158055       0.00000000 NULL
P        6.60166316       4.80839865      10.93044744       0.00000000 NULL
P        5.66431612       0.19408436       6.93601399       0.00000000 NULL
P        7.45994676       0.98294549       8.15423977       0.00000000 NULL
P        1.92223470       1.36351555       4.15980632       0.00000000 NULL
P        5.02067407       5.96902984       0.16537288       0.00000000 NULL
P        2.34488456       2.78924753       6.84723512       0.00000000 NULL
P        6.04406926       4.89013833       2.85280168       0.00000000 NULL
P        6.01390171       0.63610501      10.84166857       0.00000000 NULL
P        7.48833396       2.33322393       9.93481732       0.00000000 NULL
P        3.07741654       0.66379228       5.94038387       0.00000000 NULL
P        3.83710503       5.31847465       1.94595043       0.00000000 NULL
P        3.10139782       7.59558604       4.87228771       0.00000000 NULL
P        0.22632115       1.83180937       0.87785427       0.00000000 NULL
P       -3.32771753       7.20358714       8.86672116       0.00000000 NULL
P        4.22974281       7.48030876       8.74421254       0.00000000 NULL
P       -0.43768440       0.91227259       4.74977910       0.00000000 NULL
P       -3.79205697       8.23840121       0.75534565       0.00000000 NULL
42
Lattice="9.970841441085735 6.110419929531563e-16 0.0 -4.9854207205428684 8.635001985086886 0.0 0.0 0.0 12.521991641350258" Properties=species:S:1:pos:R:3:initial_magmoms:R:1:castep_labels:S:1 n_minim_iter=3 pbc="T T T"
P       -2.98650795       5.36020902       1.01044351       0.00000000 NULL
P        1.14991143       8.54128924       9.35843794       0.00000000 NULL
P        1.83659802       3.36850486       5.18444073       0.00000000 NULL
P        4.18046048       0.94275480       4.29503850       0.00000000 NULL
P        3.71164109       4.54323962       0.12104129       0.00000000 NULL
P        7.06416210       3.14900671       8.46903572       0.00000000 NULL
P        6.42259822       0.34033847       2.69862816       0.00000000 NULL
P        2.06886437       2.90269954      11.04662259       0.00000000 NULL
P        6.46480107       5.39196313       6.87262538       0.00000000 NULL
P       -2.57156694       7.25311189       7.34132657       0.00000000 NULL
P        2.58174290       7.23548834       3.16732935       0.00000000 NULL
P       -0.01017446       2.78140289      11.51532378       0.00000000 NULL
P        0.46245836       3.58179966       7.62829367       0.00000000 NULL
P       -2.11471941       6.44360147       3.45429646       0.00000000 NULL
P        1.65226254       7.24460199      11.80229089       0.00000000 NULL
P        2.55649436       6.78553192       9.47952603       0.00000000 NULL
P       -0.38722388       3.02824697       5.30552882       0.00000000 NULL
P       -2.16926898       7.45622423       1.13153160       0.00000000 NULL
P        1.77045705       5.48850328       5.49929911       0.00000000 NULL
P       -1.11746498       4.35748957       1.32530189       0.00000000 NULL
P       -0.65299057       7.42401027       9.67329632       0.00000000 NULL
P       -1.07734827       4.38560290       3.85380427       0.00000000 NULL
P       -0.64870207       7.37521151      12.20179870       0.00000000 NULL
P        1.72605184       5.50918871       8.02780149       0.00000000 NULL
P        2.21917483       3.44063402       3.07235715       0.00000000 NULL
P        6.85551076       4.99282320      11.42035157       0.00000000 NULL
P        5.88157806       0.20154391       7.24635436       0.00000000 NULL
P        7.74858997       1.02158645       8.51910877       0.00000000 NULL
P        1.99584655       1.41373301       4.34511155       0.00000000 NULL
P        5.21182714       6.19968167       0.17111434       0.00000000 NULL
P        2.43700428       2.89537586       7.15666299       0.00000000 NULL
P        6.27438862       5.07680645       2.98266578       0.00000000 NULL
P        6.24487076       0.66281883      11.33066020       0.00000000 NULL
P        7.77614875       2.42322096      10.38309888       0.00000000 NULL
P        3.19591825       0.68904915       6.20910167       0.00000000 NULL
P        3.98419666       5.52273102       2.03510445       0.00000000 NULL
P        3.22023364       7.88668813       5.09292901       0.00000000 NULL
P        0.23453572       1.90285379       0.91893179       0.00000000 NULL
P       -3.45476787       7.48046121       9.26692622       0.00000000 NULL
P        4.39266728       7.76871427       9.13683283       0.00000000 NULL
P       -0.45384945       0.94648340       4.96283562       0.00000000 NULL
P       -3.93881633       8.55480544       0.78883841       0.00000000 NULL
42
Lattice="9.988795977361185 -3.1420136583039318e-15 0.0 -4.99439798868059 8.650551069614597 0.0 0.0 0.0 12.560141986510772" Properties=species:S:1:pos:R:3:initial_magmoms:R:1:castep_labels:S:1 n_minim_iter=4 pbc="T T T"
P       -2.99064152       5.36939705       1.01290791       0.00000000 NULL
P        1.15095801       8.55582409       9.38633590       0.00000000 NULL
P        1.83968501       3.37588016       5.19962191       0.00000000 NULL
P        4.18785664       0.94443406       4.30829466       0.00000000 NULL
P        3.71837455       4.55154381       0.12158067       0.00000000 NULL
P        7.07696428       3.15457235       8.49500866       0.00000000 NULL
P        6.43494795       0.34017546       2.70677168       0.00000000 NULL
P        2.07152560       2.90763495      11.08019967       0.00000000 NULL
P        6.47672192       5.40273980       6.89348567       0.00000000 NULL
P       -2.57644392       7.26513841       7.36366083       0.00000000 NULL
P        2.58561939       7.24924776       3.17694683       0.00000000 NULL
P       -0.00917397       2.78671512      11.55037482       0.00000000 NULL
P        0.46264270       3.58828530       7.65271195       0.00000000 NULL
P       -2.11817212       6.45574810       3.46599795       0.00000000 NULL
P        1.65553092       7.25706790      11.83942594       0.00000000 NULL
P        2.56139090       6.79727064       9.50935123       0.00000000 NULL
P       -0.38848340       3.03368617       5.32263724       0.00000000 NULL
P       -2.17290601       7.47014449       1.13592324       0.00000000 NULL
P        1.77383419       5.49952260       5.51692766       0.00000000 NULL
P       -1.11858781       4.36460431       1.33021366       0.00000000 NULL
P       -0.65524488       7.43697438       9.70364165       0.00000000 NULL
P       -1.07975438       4.39420217       3.86318586       0.00000000 NULL
P       -0.64902910       7.38854472      12.23661385       0.00000000 NULL
P        1.72878498       5.51835441       8.04989985       0.00000000 NULL
P        2.22324784       3.44683555       3.08111637       0.00000000 NULL
P        6.86782221       5.00174420      11.45454436       0.00000000 NULL
P        5.89212541       0.20197048       7.26783036       0.00000000 NULL
P        7.76357570       1.02462214       8.54390045       0.00000000 NULL
P        1.99995993       1.41478623       4.35718646       0.00000000 NULL
P        5.21965983       6.21114186       0.17047246       0.00000000 NULL
P        2.44209300       2.89987748       7.17924252       0.00000000 NULL
P        6.28472005       5.08569776       2.99252852       0.00000000 NULL
P        6.25638242       0.66497498      11.36595651       0.00000000 NULL
P        7.78996578       2.42781126      10.41529253       0.00000000 NULL
P        3.20196232       0.69033718       6.22857853       0.00000000 NULL
P        3.99126736       5.53240177       2.04186454       0.00000000 NULL
P        3.22590554       7.90028523       5.10908986       0.00000000 NULL
P        0.23449794       1.90669231       0.92237586       0.00000000 NULL
P       -3.46040199       7.49412374       9.29580385       0.00000000 NULL
P        4.40065779       7.78333150       9.16437255       0.00000000 NULL
P       -0.45416309       0.94780389       4.97765855       0.00000000 NULL
P       -3.94649321       8.56996591       0.79094456       0.00000000 NULL
42
Lattice="9.985444685531082 3.8915921039950316e-16 2.4779498461250978e-60 -4.992722342765541 8.64764876575423 -2.1818558565911255e-44 8.497208281564512e-60 3.93027820467657e-44 12.566479661633387" Properties=species:S:1:pos:R:3:initial_magmoms:R:1:castep_labels:S:1 n_minim_iter=5 pbc="T T T"
P       -2.98831460       5.36712768       1.01278440       0.00000000 NULL
P        1.14950487       8.55204129       9.39043751       0.00000000 NULL
P        1.83881123       3.37612771       5.20161096       0.00000000 NULL
P        4.18625104       0.94410049       4.31072908       0.00000000 NULL
P        3.71721282       4.55019878       0.12190253       0.00000000 NULL
P        7.07470466       3.15334865       8.49955564       0.00000000 NULL
P        6.43366799       0.33916391       2.70806332       0.00000000 NULL
P        2.06961390       2.90634690      11.08571643       0.00000000 NULL
P        6.47488664       5.40213711       6.89688987       0.00000000 NULL
P       -2.57590506       7.26155756       7.36738964       0.00000000 NULL
P        2.58392450       7.24766921       3.17856309       0.00000000 NULL
P       -0.00801794       2.78606991      11.55621619       0.00000000 NULL
P        0.46187698       3.58711022       7.65781328       0.00000000 NULL
P       -2.11713126       6.45409647       3.46898673       0.00000000 NULL
P        1.65525578       7.25408999      11.84663984       0.00000000 NULL
P        2.56083064       6.79447490       9.51512993       0.00000000 NULL
P       -0.38894880       3.03266694       5.32630338       0.00000000 NULL
P       -2.17188034       7.46815485       1.13747683       0.00000000 NULL
P        1.77344601       5.49887902       5.52068659       0.00000000 NULL
P       -1.11727543       4.36235997       1.33186003       0.00000000 NULL
P       -0.65616908       7.43405770       9.70951314       0.00000000 NULL
P       -1.07987577       4.39346872       3.86256713       0.00000000 NULL
P       -0.64792794       7.38611426      12.24022024       0.00000000 NULL
P        1.72780521       5.51571370       8.05139369       0.00000000 NULL
P        2.22257452       3.44565609       3.08206597       0.00000000 NULL
P        6.86546178       5.00001474      11.45971908       0.00000000 NULL
P        5.89013223       0.20197709       7.27089252       0.00000000 NULL
P        7.76202880       1.02559445       8.54696357       0.00000000 NULL
P        1.99989978       1.41273743       4.35813702       0.00000000 NULL
P        5.21623994       6.20931604       0.16931047       0.00000000 NULL
P        2.44195472       2.89815222       7.18365569       0.00000000 NULL
P        6.28161943       5.08377784       2.99482913       0.00000000 NULL
P        6.25459438       0.66571785      11.37248224       0.00000000 NULL
P        7.78713845       2.42723530      10.42109404       0.00000000 NULL
P        3.20120154       0.69017141       6.23226748       0.00000000 NULL
P        3.98982854       5.53024121       2.04344093       0.00000000 NULL
P        3.22468505       7.89697757       5.11231581       0.00000000 NULL
P        0.23391931       1.90650082       0.92348926       0.00000000 NULL
P       -3.45860286       7.49181830       9.30114236       0.00000000 NULL
P        4.39925680       7.78138319       9.16867280       0.00000000 NULL
P       -0.45347423       0.94708903       4.97984624       0.00000000 NULL
P       -3.94578107       8.56682446       0.79101969       0.00000000 NULL
42
Lattice="9.959933028556879 -3.513334456561692e-16 6.547282608947399e-48 -4.979966514278439 8.625555022721937 -8.457646511501922e-44 8.239622403927474e-48 1.9494997128625846e-44 12.581385632094806" Properties=species:S:1:pos:R:3:initial_magmoms:R:1:castep_labels:S:1 n_minim_iter=6 pbc="T T T"
P       -2.97215122       5.35038784       1.00987524       0.00000000 NULL
P        1.13968188       8.52431958       9.39746566       0.00000000 NULL
P        1.83247084       3.37640179       5.20367045       0.00000000 NULL
P        4.17428906       0.94157209       4.31760353       0.00000000 NULL
P        3.70824833       4.53972861       0.12380832       0.00000000 NULL
P        7.05736365       3.14425347       8.51139875       0.00000000 NULL
P        6.42300703       0.33245076       2.71074374       0.00000000 NULL
P        2.05637480       2.89684240      11.09833416       0.00000000 NULL
P        6.46051921       5.39626102       6.90453895       0.00000000 NULL
P       -2.57145133       7.23552509       7.37629042       0.00000000 NULL
P        2.57190868       7.23473466       3.18249521       0.00000000 NULL
P       -0.00045585       2.78084945      11.57008563       0.00000000 NULL
P        0.45676766       3.57810372       7.67508462       0.00000000 NULL
P       -2.10962063       6.44093078       3.48128941       0.00000000 NULL
P        1.65285447       7.23207470      11.86887983       0.00000000 NULL
P        2.55618340       6.77362917       9.53283169       0.00000000 NULL
P       -0.39192228       3.02502068       5.33903648       0.00000000 NULL
P       -2.16425963       7.45245935       1.14524127       0.00000000 NULL
P        1.77027466       5.49284957       5.53375931       0.00000000 NULL
P       -1.10815559       4.34602742       1.33996410       0.00000000 NULL
P       -0.66211758       7.41223221       9.72755452       0.00000000 NULL
P       -1.08028475       4.38704901       3.85013942       0.00000000 NULL
P       -0.64052726       7.36758456      12.23772984       0.00000000 NULL
P        1.72081350       5.49647563       8.04393463       0.00000000 NULL
P        2.21733810       3.43667500       3.08176372       0.00000000 NULL
P        6.84754631       4.98694641      11.46935414       0.00000000 NULL
P        5.87501663       0.20193277       7.27555893       0.00000000 NULL
P        7.74906563       1.03153169       8.54885766       0.00000000 NULL
P        1.99876734       1.39890149       4.35506245       0.00000000 NULL
P        5.19206807       6.19512099       0.16126724       0.00000000 NULL
P        2.44010059       2.88582989       7.19727842       0.00000000 NULL
P        6.25911921       5.06945099       3.00348321       0.00000000 NULL
P        6.24068124       0.67027330      11.39107363       0.00000000 NULL
P        7.76581139       2.42260899      10.43705244       0.00000000 NULL
P        3.19510274       0.68886059       6.24325723       0.00000000 NULL
P        3.97898690       5.51408460       2.04946201       0.00000000 NULL
P        3.21550560       7.87243511       5.12265619       0.00000000 NULL
P        0.23001047       1.90462794       0.92886098       0.00000000 NULL
P       -3.44551457       7.47404615       9.31645140       0.00000000 NULL
P        4.38850694       7.76586791       9.17737664       0.00000000 NULL
P       -0.44878010       0.94206258       4.98358143       0.00000000 NULL
P       -3.93972535       8.54317870       0.78978622       0.00000000 NULL
42
Lattice="9.991115627055802 7.578972038423265e-16 7.298447644667712e-46 -4.995557813527901 8.652559945178016 -1.418220180904002e-43 9.220136196684837e-46 8.902974732945411e-44 12.461284328269123" Properties=species:S:1:pos:R:3:initial_magmoms:R:1:castep_labels:S:1 n_minim_iter=7 pbc="T T T"
P       -2.96339568       5.36052631       0.99148948       0.00000000 NULL
P        1.12849298       8.53867274       9.29901237       0.00000000 NULL
P        1.83490419       3.40591999       5.14525092       0.00000000 NULL
P        4.18561541       0.94409061       4.28061637       0.00000000 NULL
P        3.72035756       4.55566537       0.12685492       0.00000000 NULL
P        7.08070197       3.15280311       8.43437781       0.00000000 NULL
P        6.45672550       0.32080506       2.68275981       0.00000000 NULL
P        2.04502139       2.90046912      10.99028269       0.00000000 NULL
P        6.48492805       5.43128492       6.83652125       0.00000000 NULL
P       -2.58392745       7.24108407       7.30704345       0.00000000 NULL
P        2.56736966       7.26976473       3.15328201       0.00000000 NULL
P        0.01655929       2.79427024      11.46080490       0.00000000 NULL
P        0.44953775       3.58914678       7.62164435       0.00000000 NULL
P       -2.11203340       6.46867545       3.46788291       0.00000000 NULL
P        1.66249715       7.24729681      11.77540580       0.00000000 NULL
P        2.56780471       6.78500465       9.45655684       0.00000000 NULL
P       -0.40347278       3.03627352       5.30279540       0.00000000 NULL
P       -2.16433043       7.48384088       1.14903396       0.00000000 NULL
P        1.77908679       5.53157891       5.49778875       0.00000000 NULL
P       -1.09461235       4.34603614       1.34402731       0.00000000 NULL
P       -0.68447293       7.42750399       9.65155019       0.00000000 NULL
P       -1.09135947       4.41158853       3.77180819       0.00000000 NULL
P       -0.62932935       7.39191072      12.07933108       0.00000000 NULL
P        1.72069032       5.50161980       7.92556964       0.00000000 NULL
P        2.22490654       3.44676800       3.04297624       0.00000000 NULL
P        6.86809419       5.00235036      11.35049912       0.00000000 NULL
P        5.89367421       0.20344073       7.19673768       0.00000000 NULL
P        7.78897502       1.05364183       8.44738505       0.00000000 NULL
P        2.01355189       1.38028880       4.29362360       0.00000000 NULL
P        5.18414803       6.21862846       0.13986216       0.00000000 NULL
P        2.45730933       2.88330427       7.13937916       0.00000000 NULL
P        6.26391889       5.08281551       2.98561771       0.00000000 NULL
P        6.26544672       0.68643931      11.29314060       0.00000000 NULL
P        7.78629307       2.43410417      10.34643495       0.00000000 NULL
P        3.21040832       0.69238026       6.19267351       0.00000000 NULL
P        3.98997355       5.52607466       2.03891206       0.00000000 NULL
P        3.22285913       7.88591410       5.08444243       0.00000000 NULL
P        0.22241556       1.91852503       0.93068098       0.00000000 NULL
P       -3.44527319       7.50067992       9.23820387       0.00000000 NULL
P        4.40334566       7.80096979       9.08412834       0.00000000 NULL
P       -0.44139164       0.93866585       4.93036690       0.00000000 NULL
P       -3.96195253       8.56548340       0.77660546       0.00000000 NULL
42
Lattice="9.745001866209261 -4.3147243522438837e-16 3.736380201405834e-46 -4.87250093310463 8.439419176063984 -1.5901462189688475e-43 4.51017069365674e-46 1.4425922995947492e-43 12.516182624161964" Properties=species:S:1:pos:R:3:initial_magmoms:R:1:castep_labels:S:1 n_minim_iter=8 pbc="T T T"
P       -2.87775267       5.22576116       0.99148173       0.00000000 NULL
P        1.09201829       8.31874553       9.33560348       0.00000000 NULL
P        1.78573584       3.33433084       5.16354261       0.00000000 NULL
P        4.08222599       0.92024046       4.30156707       0.00000000 NULL
P        3.62834052       4.44398754       0.12950619       0.00000000 NULL
P        6.90693775       3.07519035       8.47362794       0.00000000 NULL
P        6.30787601       0.30452346       2.69161032       0.00000000 NULL
P        1.98228895       2.82437659      11.03573207       0.00000000 NULL
P        6.32733930       5.31051830       6.86367120       0.00000000 NULL
P       -2.52308549       7.05071877       7.33905566       0.00000000 NULL
P        2.49514435       7.09911592       3.16699479       0.00000000 NULL
P        0.02794260       2.72900283      11.51111654       0.00000000 NULL
P        0.43432655       3.49920365       7.67160633       0.00000000 NULL
P       -2.05926399       6.31367953       3.49954545       0.00000000 NULL
P        1.62493890       7.06595434      11.84366720       0.00000000 NULL
P        2.50691261       6.61095047       9.50865153       0.00000000 NULL
P       -0.40070522       2.96289395       5.33659066       0.00000000 NULL
P       -2.10620592       7.30499311       1.16452978       0.00000000 NULL
P        1.73811321       5.41439318       5.53761691       0.00000000 NULL
P       -1.05255453       4.22697240       1.36555604       0.00000000 NULL
P       -0.68555722       7.23747194       9.70967779       0.00000000 NULL
P       -1.07155819       4.31181513       3.75290949       0.00000000 NULL
P       -0.60257943       7.21150823      12.09703124       0.00000000 NULL
P        1.67413908       5.35551416       7.92497037       0.00000000 NULL
P        2.17098786       3.36060468       3.04677780       0.00000000 NULL
P        6.69737699       4.87898620      11.39089955       0.00000000 NULL
P        5.74913940       0.19982747       7.21883868       0.00000000 NULL
P        7.60786051       1.04002314       8.46866868       0.00000000 NULL
P        1.96925811       1.33080714       4.29660781       0.00000000 NULL
P        5.04038564       6.06858806       0.12454693       0.00000000 NULL
P        2.40187963       2.80368088       7.17915701       0.00000000 NULL
P        6.09962095       4.95748997       3.00709614       0.00000000 NULL
P        6.11600368       0.67824750      11.35121789       0.00000000 NULL
P        7.59075744       2.37651250      10.40124988       0.00000000 NULL
P        3.13524338       0.67737416       6.22918901       0.00000000 NULL
P        3.89150344       5.38553170       2.05712813       0.00000000 NULL
P        3.14181104       7.68331278       5.11776728       0.00000000 NULL
P        0.21053858       1.87687462       0.94570640       0.00000000 NULL
P       -3.35234815       7.31865012       9.28982815       0.00000000 NULL
P        4.29479726       7.61751195       9.11972017       0.00000000 NULL
P       -0.42293973       0.91125967       4.94765929       0.00000000 NULL
P       -3.87185607       8.35006590       0.77559842       0.00000000 NULL
42
Lattice="9.932889904446444 1.6241583069278414e-15 -3.858129323372958e-46 -4.966444952223223 8.602134990244606 -2.311364922378551e-43 -5.2093417185549866e-46 2.0415671438433486e-43 12.652626331399295" Properties=species:S:1:pos:R:3:initial_magmoms:R:1:castep_labels:S:1 n_minim_iter=9 pbc="T T T"
P       -2.93264848       5.32599703       1.00177619       0.00000000 NULL
P        1.11232900       8.47888457       9.43686041       0.00000000 NULL
P        1.82032097       3.39938754       5.21931830       0.00000000 NULL
P        4.16182829       0.93787485       4.34841627       0.00000000 NULL
P        3.69775524       4.52894855       0.13087416       0.00000000 NULL
P        7.03975282       3.13531075       8.56595838       0.00000000 NULL
P        6.42978290       0.31086656       2.72028596       0.00000000 NULL
P        2.02077283       2.87834639      11.15537018       0.00000000 NULL
P        6.44878062       5.41292120       6.93782807       0.00000000 NULL
P       -2.57118623       7.18642128       7.41939859       0.00000000 NULL
P        2.54277255       7.23563696       3.20185648       0.00000000 NULL
P        0.02841518       2.78221090      11.63694070       0.00000000 NULL
P        0.44173047       3.56644541       7.75695231       0.00000000 NULL
P       -2.09867687       6.43636248       3.53941020       0.00000000 NULL
P        1.65694789       7.20146124      11.97449442       0.00000000 NULL
P        2.55512109       6.73706619       9.61352306       0.00000000 NULL
P       -0.40953404       3.02080213       5.39598095       0.00000000 NULL
P       -2.14558555       7.44640082       1.17843884       0.00000000 NULL
P        1.77181377       5.52118695       5.59939450       0.00000000 NULL
P       -1.07086269       4.30710579       1.38185239       0.00000000 NULL
P       -0.70094959       7.37597639       9.81693661       0.00000000 NULL
P       -1.09279370       4.39543803       3.79066655       0.00000000 NULL
P       -0.61348611       7.35080309      12.22575077       0.00000000 NULL
P        1.70628131       5.45802801       8.00820866       0.00000000 NULL
P        2.21275296       3.42537015       3.07918006       0.00000000 NULL
P        6.82652702       4.97314965      11.51426428       0.00000000 NULL
P        5.86005636       0.20361435       7.29672217       0.00000000 NULL