14
Lattice="4.694217411410961 0.0 0.0 0.0 5.641294392614619 -1.8166205007870304 0.0 -2.14627443151157 11.349311731570662" Properties=species:S:1:pos:R:3:initial_magmoms:R:1:castep_labels:S:1:forces:R:3 n_minim_iter=1 energy=-73.70987540111133 stress="0.00020583039909422015 -2.1572097913165747e-12 7.316391337665192e-12 -2.1572097913165747e-12 0.008713561953125231 0.0016720283236021402 7.316391337665192e-12 0.0016720283236021402 -0.0006882194567228307" free_energy=-73.70987540111133 pbc="T T T"
P        1.05847995       3.64759764       6.20395624       0.00000000 NULL      -0.34895640      -0.25160820      -0.53246008
P        3.40558865      -0.15257768       3.32873499       0.00000000 NULL      -0.34895640       0.25160820       0.53246008
P        1.83705766      -0.00859601       5.97203567       0.00000000 NULL      -0.31726528      -0.36400663       0.19851597
P        4.18416637       3.50361597       3.56065555       0.00000000 NULL      -0.31726528       0.36400663      -0.19851597
P        4.39754934      -0.28507680       6.68991523       0.00000000 NULL       0.34339280      -0.65963378      -0.18739744
P        2.05044063       3.78009676       2.84277600       0.00000000 NULL       0.34339280       0.65963378       0.18739744
P        1.71355574       1.89730127       4.84713434       0.00000000 NULL      -0.04707732      -0.03480006      -0.14447270
P        4.06066445       1.59771869       4.68555688       0.00000000 NULL      -0.04707732       0.03480006       0.14447270
P        2.33356624       0.33433072       0.03572719       0.00000000 NULL      -0.12062606       0.05946455      -0.09251276
P        4.68067495       3.16068924       9.49696404       0.00000000 NULL      -0.12062606      -0.05946455       0.09251276
P        1.76023352       0.79406168       2.20393220       0.00000000 NULL       0.05674862      -0.00236699      -0.06562890
P        4.10734223       2.70095828       7.32875902       0.00000000 NULL       0.05674862       0.00236699       0.06562890
P        2.73295855      -1.12449978       8.99678613       0.00000000 NULL       0.43378364       0.19153862       0.52949243
P        0.38584984       4.61951974       0.53590509       0.00000000 NULL       0.43378364      -0.19153862      -0.52949243
14
Lattice="4.69205675485306 0.0 0.0 0.0 5.539183189068148 -1.8403413578493657 0.0 -2.146930253359167 11.374830023292198" Properties=species:S:1:pos:R:3:initial_magmoms:R:1:castep_labels:S:1:forces:R:3 n_minim_iter=2 energy=-73.75218927195081 stress="-0.004737645141106995 5.120728192108984e-13 -1.929188388468844e-11 5.120728192108984e-13 -0.004584629158313129 -0.0005427570079772347 -1.929188388468844e-11 -0.0005427570079772347 -0.007593248469097825" free_energy=-73.75218927195081 pbc="T T T"
P        1.05522861       3.55228497       6.19581814       0.00000000 NULL      -0.33496663      -0.10363261      -0.34211789
P        3.40125699      -0.16003204       3.33867052       0.00000000 NULL      -0.33496663       0.10363261       0.34211789
P        1.83369899      -0.03340055       5.98289559       0.00000000 NULL      -0.28918505      -0.28383007       0.49205094
P        4.17972737       3.42565349       3.55159307       0.00000000 NULL      -0.28918505       0.28383007      -0.49205094
P        4.39824530      -0.30949395       6.69985650       0.00000000 NULL       0.34158292      -0.44128955      -0.01865801
P        2.05221692       3.70174688       2.83463215       0.00000000 NULL       0.34158292       0.44128955       0.01865801
P        1.71239412       1.84246198       4.84645721       0.00000000 NULL      -0.04539998       0.02865036      -0.30758592
P        4.05842250       1.54979096       4.68803145       0.00000000 NULL      -0.04539998      -0.02865036       0.30758592
P        2.33153665       0.32821250       0.03380724       0.00000000 NULL      -0.12312710       0.04259758      -0.08568895
P        4.67756502       3.06404043       9.50068142       0.00000000 NULL      -0.12312710      -0.04259758       0.08568895
P        1.75987284       0.77055544       2.20387874       0.00000000 NULL       0.06114146       0.15971646      -0.11842463
P        4.10590121       2.62169749       7.33060992       0.00000000 NULL       0.06114146      -0.15971646       0.11842463
P        2.73513669      -1.13467721       9.01907364       0.00000000 NULL       0.38995437       0.40691443       0.58599869
P        0.38910831       4.52693014       0.51541501       0.00000000 NULL       0.38995437      -0.40691443      -0.58599869
14
Lattice="4.728797235618887 0.0 0.0 0.0 5.493816277195659 -1.8799233745076216 0.0 -2.154273413757887 11.545715397157746" Properties=species:S:1:pos:R:3:initial_magmoms:R:1:castep_labels:S:1:forces:R:3 n_minim_iter=3 energy=-73.78826785112477 stress="0.005860558670873219 3.090335438645924e-13 1.1610619867726645e-11 3.090335438645924e-13 -0.0018775710789708283 -0.0022737402579187838 1.1610619867726645e-11 -0.0022737402579187838 0.0030992450801240337" free_energy=-73.78826785112477 pbc="T T T"
P        1.05896256       3.50368645       6.27215859       0.00000000 NULL      -0.14803559      -0.02105040      -0.07878758
P        3.42336118      -0.16414359       3.39363343       0.00000000 NULL      -0.14803559       0.02105040       0.07878758
P        1.84403656      -0.05125458       6.07480863       0.00000000 NULL      -0.33029406      -0.15291197       0.47309167
P        4.20843518       3.39079745       3.59098339       0.00000000 NULL      -0.33029406       0.15291197      -0.47309167
P        4.43721699      -0.32941907       6.79693712       0.00000000 NULL       0.42803506      -0.39080788      -0.00567602
P        2.07281837       3.66896193       2.86885490       0.00000000 NULL       0.42803506       0.39080788       0.00567602
P        1.72519047       1.81457158       4.90996091       0.00000000 NULL      -0.09902921      -0.03561762      -0.30539242
P        4.08958909       1.52497129       4.75583111       0.00000000 NULL      -0.09902921       0.03561762       0.30539242
P        2.34818174       0.32585122       0.03234848       0.00000000 NULL      -0.12700924       0.01968648      -0.02507633
P        4.71258036       3.01369164       9.63344353       0.00000000 NULL      -0.12700924      -0.01968648       0.02507633
P        1.77443171       0.75943812       2.23303850       0.00000000 NULL       0.15271831       0.06393511      -0.14246984
P        4.13883033       2.58010474       7.43275351       0.00000000 NULL       0.15271831      -0.06393511       0.14246984
P        2.76201727      -1.14194113       9.16066362       0.00000000 NULL       0.12361473       0.27167657       0.46512521
P        0.39761866       4.48148399       0.50512839       0.00000000 NULL       0.12361473      -0.27167657      -0.46512521
14
Lattice="4.677905056667038 0.0 0.0 0.0 5.471572388974828 -1.8617272423976305 0.0 -2.0860267730809308 11.617686580538152" Properties=species:S:1:pos:R:3:initial_magmoms:R:1:castep_labels:S:1:forces:R:3 n_minim_iter=4 energy=-73.8332980083214 stress="-0.007406449463457431 -1.1851683308254274e-11 3.2049776703906013e-12 -1.1851683308254274e-11 -0.00047284974165341193 0.0006115047338102266 3.2049776703906013e-12 0.0006115047338102266 0.007400320567953311" free_energy=-73.8332980083214 pbc="T T T"
P        1.04032986       3.52773887       6.33039678       0.00000000 NULL       0.09484971       0.03489862      -0.05791113
P        3.37928239      -0.14219325       3.42556255       0.00000000 NULL       0.09484971      -0.03489862       0.05791113
P        1.81524427      -0.02445369       6.13083005       0.00000000 NULL      -0.03156007      -0.01345938       0.17239836
P        4.15419680       3.40999930       3.62512928       0.00000000 NULL      -0.03156007       0.01345938      -0.17239837
P        4.40027087      -0.30423763       6.84310601       0.00000000 NULL       0.20857243      -0.43980022       0.09200639
P        2.06131834       3.68978325       2.91285332       0.00000000 NULL       0.20857243       0.43980022      -0.09200639
P        1.70463998       1.83724969       4.94876593       0.00000000 NULL      -0.15168210      -0.03707370      -0.15388491
P        4.04359251       1.54829592       4.80719340       0.00000000 NULL      -0.15168210       0.03707370       0.15388491
P        2.31938569       0.32633357       0.03271326       0.00000000 NULL      -0.10584346       0.11675448      -0.01686171
P        4.65833822       3.05921204       9.72324607       0.00000000 NULL      -0.10584346      -0.11675448       0.01686171
P        1.75820140       0.77206646       2.25042164       0.00000000 NULL       0.10749837       0.13633305      -0.26327916
P        4.09715393       2.61347916       7.50553769       0.00000000 NULL       0.10749837      -0.13633305       0.26327916
P        2.74030803      -1.08130575       9.23614866       0.00000000 NULL      -0.12183488       0.16542881       0.41988810
P        0.40135550       4.46685137       0.51981067       0.00000000 NULL      -0.12183488      -0.16542881      -0.41988810
14
Lattice="4.73673796680201 0.0 0.0 0.0 5.462964024089415 -1.7757085297687438 0.0 -1.9923041601625067 11.361159558573677" Properties=species:S:1:pos:R:3:initial_magmoms:R:1:castep_labels:S:1:forces:R:3 n_minim_iter=5 energy=-73.8748314279861 stress="0.003209253400358113 2.070743866307406e-12 9.110498185469263e-13 2.070743866307406e-12 0.0002816855781937264 0.0046863473016592145 9.110498185469263e-13 0.0046863473016592145 -0.006033810513624199" free_energy=-73.8748314279861 pbc="T T T"
P        1.04172892       3.57992424       6.21638908       0.00000000 NULL       0.52991328       0.15299923       0.34623937
P        3.41009790      -0.10926438       3.36906194       0.00000000 NULL       0.52991328      -0.15299923      -0.34623937
P        1.82098135       0.01414545       6.02915026       0.00000000 NULL       0.13095454       0.11889080       0.11040775
P        4.18935034       3.45651441       3.55630076       0.00000000 NULL       0.13095454      -0.11889080      -0.11040775
P        4.47909841      -0.27806992       6.69856198       0.00000000 NULL       0.15890297      -0.32774676       0.21044074
P        2.11072943       3.74872978       2.88688904       0.00000000 NULL       0.15890297       0.32774676      -0.21044074
P        1.71989206       1.87908673       4.84682387       0.00000000 NULL      -0.23098742      -0.00634778      -0.08075363
P        4.08826104       1.59157313       4.73862715       0.00000000 NULL      -0.23098742       0.00634778       0.08075363
P        2.34029966       0.33057539       0.03153685       0.00000000 NULL      -0.00905129      -0.07449268      -0.25368688
P        4.70866864       3.14008447       9.55391418       0.00000000 NULL      -0.00905129       0.07449268       0.25368688
P        1.78745598       0.79737199       2.20056344       0.00000000 NULL      -0.14469309       0.15260635      -0.05536160
P        4.15582496       2.67328787       7.38488758       0.00000000 NULL      -0.14469309      -0.15260635       0.05536160
P        2.78736469      -0.98905912       9.07134584       0.00000000 NULL      -0.43503898      -0.16029029       0.04368559
P        0.41899570       4.45971898       0.51410518       0.00000000 NULL      -0.43503898       0.16029029      -0.04368559
14
Lattice="4.729392407921982 0.0 0.0 0.0 5.491646988969368 -1.8150837266239874 0.0 -2.0848241441523174 11.35373391896607" Properties=species:S:1:pos:R:3:initial_magmoms:R:1:castep_labels:S:1:forces:R:3 n_minim_iter=6 energy=-73.89413679522366 stress="0.0006778075698053411 -1.962288128707719e-12 6.6549342576099035e-12 -1.962288128707719e-12 0.0022024072702696985 -0.0011886698952683393 6.6549342576099035e-12 -0.0011886698952683393 -0.006664264307541081" free_energy=-73.89413679522366 pbc="T T T"
P        1.04259808       3.54278128       6.17551116       0.00000000 NULL       0.45204439       0.18263527       0.41153833
P        3.40729429      -0.13595844       3.36313903       0.00000000 NULL       0.45204439      -0.18263527      -0.41153834
P        1.81510372      -0.03366355       6.02433163       0.00000000 NULL       0.21167475       0.45759900       0.02817092
P        4.17979992       3.44048640       3.51431855       0.00000000 NULL       0.21167475      -0.45759900      -0.02817092
P        4.47990710      -0.34091991       6.68911284       0.00000000 NULL       0.06568016      -0.22912191       0.32857516
P        2.11521089       3.74774276       2.84953735       0.00000000 NULL       0.06568016       0.22912190      -0.32857516
P        1.71317543       1.84659985       4.81691317       0.00000000 NULL      -0.22717953      -0.17273353       0.00433515
P        4.07787164       1.56022300       4.72173701       0.00000000 NULL      -0.22717953       0.17273353      -0.00433515
P        2.33427532       0.33181213       0.02602130       0.00000000 NULL      -0.00450644      -0.09701922      -0.22718501
P        4.69897152       3.07501071       9.51262888       0.00000000 NULL      -0.00450644       0.09701922       0.22718501
P        1.78570079       0.78571366       2.18584544       0.00000000 NULL      -0.12395397       0.06066454       0.08215916
P        4.15039700       2.62110918       7.35280475       0.00000000 NULL      -0.12395397      -0.06066454      -0.08215916
P        2.78128437      -1.05808760       9.07032480       0.00000000 NULL      -0.37375936      -0.19158616       0.04791396
P        0.41658816       4.46491045       0.46832538       0.00000000 NULL      -0.37375935       0.19158616      -0.04791396
14
Lattice="4.753202138459171 0.0 0.0 0.0 5.384146971636669 -1.8120731047750098 0.0 -2.006033641150091 11.452591879801412" Properties=species:S:1:pos:R:3:initial_magmoms:R:1:castep_labels:S:1:forces:R:3 n_minim_iter=7 energy=-74.0090647219122 stress="0.0007330368182650906 -1.1174246130591692e-11 1.8430266527801812e-11 -1.1174246130591692e-11 -0.00037366191641960406 0.0015426857823059525 1.8430266527801812e-11 0.0015426857823059525 -0.004291124821769875" free_energy=-74.0090647219122 pbc="T T T"
P        1.07708953       3.50983087       6.26281925       0.00000000 NULL      -0.08947031      -0.22000295       0.38110082
P        3.45369059      -0.13171754       3.37769951       0.00000000 NULL      -0.08947031       0.22000296      -0.38110082
P        1.81773799       0.00162534       6.11924250       0.00000000 NULL       0.59666856       0.42521230      -0.22487301
P        4.19433906       3.37648799       3.52127627       0.00000000 NULL       0.59666856      -0.42521230       0.22487301
P        4.54389874      -0.37213622       6.77500391       0.00000000 NULL      -0.09234865      -0.19094814       0.33898033
P        2.16729767       3.75024955       2.86551485       0.00000000 NULL      -0.09234865       0.19094814      -0.33898033
P        1.69192052       1.81804824       4.84271558       0.00000000 NULL      -0.34009291      -0.08279778       0.05716738
P        4.06852159       1.56006509       4.79780319       0.00000000 NULL      -0.34009291       0.08279778      -0.05716738
P        2.33297437       0.32618598       0.00642649       0.00000000 NULL      -0.01325227      -0.23323054      -0.01635249
P        4.70957544       3.05192735       9.63409228       0.00000000 NULL      -0.01325227       0.23323054       0.01635249
P        1.79767328       0.79469108       2.19148581       0.00000000 NULL      -0.02785432      -0.03211716       0.09590534
P        4.17427435       2.58342225       7.44903296       0.00000000 NULL      -0.02785432       0.03211715      -0.09590534
P        2.77105961      -0.99666373       9.20484880       0.00000000 NULL      -0.03365010      -0.17739325       0.01764639
P        0.39445854       4.37477706       0.43566997       0.00000000 NULL      -0.03365010       0.17739325      -0.01764639
14
Lattice="4.743019420936275 0.0 0.0 0.0 5.335752198013976 -1.8549494818910126 0.0 -2.0411155308923705 11.554342155436336" Properties=species:S:1:pos:R:3:initial_magmoms:R:1:castep_labels:S:1:forces:R:3 n_minim_iter=8 energy=-74.18214075437362 stress="-2.5162482641189614e-06 -7.280207065034277e-12 9.831225791302351e-12 -7.280207065034277e-12 -0.00465563913984236 0.0037528461746870827 9.831225791302351e-12 0.0037528461746870827 -0.005370124624827004" free_energy=-74.18214075437362 pbc="T T T"
P        1.07154332       3.42362776       6.33044990       0.00000000 NULL       0.07455021      -0.31070177       0.27848312
P        3.44305303      -0.12899110       3.36894277       0.00000000 NULL       0.07455021       0.31070177      -0.27848312
P        1.85312483       0.01010731       6.19787445       0.00000000 NULL       0.27585983       0.32309616      -0.15327335
P        4.22463454       3.28452936       3.50151821       0.00000000 NULL       0.27585983      -0.32309616       0.15327335
P        4.58021381      -0.49454749       6.88351372       0.00000000 NULL       0.23715765       0.09163517       0.18702334
P        2.20870410       3.78918416       2.81587894       0.00000000 NULL       0.23715765      -0.09163517      -0.18702334
P        1.62386926       1.75548250       4.84064691       0.00000000 NULL      -0.40012608       0.02348747       0.21898389
P        3.99537897       1.53915417       4.85874576       0.00000000 NULL      -0.40012608      -0.02348747      -0.21898389
P        2.30712353       0.30678977      -0.01165312       0.00000000 NULL       0.00798489      -0.23682047       0.15900175
P        4.67863324       2.98784690       9.71104578       0.00000000 NULL       0.00798489       0.23682047      -0.15900175
P        1.80548568       0.78789758       2.18760439       0.00000000 NULL      -0.16335991       0.02052177       0.01219100
P        4.17699539       2.50673909       7.51178828       0.00000000 NULL      -0.16335991      -0.02052177      -0.01219100
P        2.75664772      -1.02269868       9.36357817       0.00000000 NULL      -0.03206659      -0.27267215      -0.19562059
P        0.38513801       4.31733535       0.33581450       0.00000000 NULL      -0.03206659       0.27267215       0.19562059
14
Lattice="4.757137996623601 0.0 0.0 0.0 5.328787555312099 -1.9046811508308494 0.0 -2.1064960937188397 11.653780192514786" Properties=species:S:1:pos:R:3:initial_magmoms:R:1:castep_labels:S:1:forces:R:3 n_minim_iter=9 energy=-74.30600230681922 stress="-0.001687827889071705 -5.691035165698777e-12 2.710788568162785e-11 -5.691035165698777e-12 -0.00866262549632442 0.0062077275370624515 2.710788568162785e-11 0.0062077275370624515 -0.005321869743698123" free_energy=-74.30600230681922 pbc="T T T"
P        1.08173394       3.33416014       6.38208726       0.00000000 NULL       0.14613823      -0.32912666       0.33267951
P        3.46030294      -0.11186868       3.36701178       0.00000000 NULL       0.14613823       0.32912666      -0.33267951
P        1.86942245       0.02036316       6.26728519       0.00000000 NULL       0.57225063      -0.01039580      -0.25622123
P        4.24799145       3.20192830       3.48181385       0.00000000 NULL       0.57225063       0.01039580       0.25622123
P        4.68096869      -0.60518528       6.98029746       0.00000000 NULL      -0.22727789       0.18587615      -0.01137868
P        2.30239969       3.82747674       2.76880157       0.00000000 NULL      -0.22727789      -0.18587615       0.01137868
P        1.54730082       1.69891185       4.86479352       0.00000000 NULL      -0.34912636       0.06095799       0.07915053
P        3.92586982       1.52337961       4.88430551       0.00000000 NULL      -0.34912637      -0.06095799      -0.07915053
P        2.29442035       0.28441950      -0.00423838       0.00000000 NULL       0.00488080      -0.17717476       0.11270946
P        4.67298935       2.93787196       9.75333742       0.00000000 NULL       0.00488080       0.17717476      -0.11270946
P        1.80712813       0.77960670       2.18095768       0.00000000 NULL      -0.09144022       0.08324069       0.05281631
P        4.18569712       2.44268476       7.56814135       0.00000000 NULL      -0.09144022      -0.08324069      -0.05281631
P        2.76465515      -1.08900124       9.49635752       0.00000000 NULL      -0.05542518      -0.20060293      -0.34840553
P        0.38608615       4.31129270       0.25274152       0.00000000 NULL      -0.05542518       0.20060293       0.34840553
14
Lattice="4.759664767366136 0.0 0.0 0.0 5.349577996357866 -1.9045176719977033 0.0 -2.105936575757214 11.679059564467845" Properties=species:S:1:pos:R:3:initial_magmoms:R:1:castep_labels:S:1:forces:R:3 n_minim_iter=10 energy=-74.35346267547226 stress="-0.0007168093153954342 3.788403391049634e-12 -1.8999396801344445e-12 3.788403391049634e-12 -0.006923441570821649 0.005273416268711864 -1.8999396801344445e-12 0.005273416268711864 -0.0029174865178749694" free_energy=-74.35346267547226 pbc="T T T"
P        1.10015862       3.32983490       6.41109139       0.00000000 NULL      -0.00811103      -0.21236208       0.10418950
P        3.47999100      -0.08619348       3.36345050       0.00000000 NULL      -0.00811103       0.21236208      -0.10418950
P        1.88426676       0.02716194       6.28333482       0.00000000 NULL       0.41944119      -0.00825647      -0.14674387
P        4.26409914       3.21647948       3.49120707       0.00000000 NULL       0.41944119       0.00825647       0.14674387
P        4.69511631      -0.62384391       6.98729652       0.00000000 NULL      -0.07025951       0.20602908       0.18111074
P        2.31528393       3.86748533       2.78724536       0.00000000 NULL      -0.07025951      -0.20602908      -0.18111074
P        1.51141278       1.69420087       4.87420074       0.00000000 NULL      -0.23708385       0.10569614       0.10199987
P        3.89124517       1.54944054       4.90034115       0.00000000 NULL      -0.23708385      -0.10569614      -0.10199987
P        2.28513306       0.28087918       0.00032124       0.00000000 NULL       0.02426107      -0.11670071       0.07939981
P        4.66496544       2.96276224       9.77422065       0.00000000 NULL       0.02426107       0.11670071      -0.07939981
P        1.80886000       0.78800050       2.18979483       0.00000000 NULL      -0.05544518       0.06272727      -0.00602247
P        4.18869239       2.45564092       7.58474706       0.00000000 NULL      -0.05544518      -0.06272727       0.00602247
P        2.76920468      -1.09256397       9.52396932       0.00000000 NULL      -0.07280270      -0.20829255      -0.35953921
P        0.38937230       4.33620539       0.25057256       0.00000000 NULL      -0.07280270       0.20829255       0.35953921
14
Lattice="4.754098908546331 0.0 0.0 0.0 5.384933026594006 -1.904569686085329 0.0 -2.117805850967595 11.684296676909966" Properties=species:S:1:pos:R:3:initial_magmoms:R:1:castep_labels:S:1:forces:R:3 n_minim_iter=11 energy=-74.40152015635259 stress="0.00048063605892191324 1.077439060668132e-11 -4.034742374766605e-12 1.077439060668132e-11 -0.004940607162711073 0.005158725696258633 -4.034742374766605e-12 0.005158725696258633 -0.0006961408339968907" free_energy=-74.40152015635259 pbc="T T T"
P        1.10536244       3.33466278       6.39800688       0.00000000 NULL       0.00379667      -0.24068644       0.27451985
P        3.48241190      -0.06753561       3.38172010       0.00000000 NULL       0.00379667       0.24068644      -0.27451985
P        1.90571964       0.02589729       6.29484046       0.00000000 NULL       0.20089654      -0.03433710      -0.25341270
P        4.28276909       3.24122989       3.48488652       0.00000000 NULL       0.20089654       0.03433710       0.25341270
P        4.70423000      -0.64174607       7.01339243       0.00000000 NULL       0.00970958       0.22930826      -0.06838445
P        2.32718054       3.90887325       2.76633456       0.00000000 NULL       0.00970958      -0.22930826       0.06838446
P        1.47289104       1.69040292       4.87701406       0.00000000 NULL      -0.12854135       0.02888122       0.07179066
P        3.84994050       1.57672426       4.90271293       0.00000000 NULL      -0.12854135      -0.02888122      -0.07179066
P        2.27324317       0.28334122      -0.00391765       0.00000000 NULL       0.04066409      -0.07264537       0.13250264
P        4.65029262       2.98378596       9.78364463       0.00000000 NULL       0.04066409       0.07264537      -0.13250264
P        1.81154275       0.79833789       2.19484431       0.00000000 NULL      -0.08561768       0.01952877      -0.03623016
P        4.18859221       2.46878929       7.58488267       0.00000000 NULL      -0.08561768      -0.01952877       0.03623016
P        2.76238977      -1.11621227       9.51033450       0.00000000 NULL      -0.04090785      -0.22036503      -0.27172247
P        0.38534031       4.38333945       0.26939249       0.00000000 NULL      -0.04090785       0.22036503       0.27172247
14
Lattice="4.760449369017328 0.0 0.0 0.0 5.438666779488087 -1.93025660677082 0.0 -2.1851979658242997 11.698981907298117" Properties=species:S:1:pos:R:3:initial_magmoms:R:1:castep_labels:S:1:forces:R:3 n_minim_iter=12 energy=-74.44402642212562 stress="-0.00011517171618370464 -1.5156114243028952e-11 1.5512502996860443e-11 -1.5156114243028952e-11 -0.0022782601194049393 0.0038208118528292355 1.5512502996860443e-11 0.0038208118528292355 0.0004442696042324608" free_energy=-74.44402642212562 pbc="T T T"
P        1.09093219       3.31582099       6.39926651       0.00000000 NULL       0.21771990      -0.18139773      -0.01588800
P        3.47115688      -0.06235218       3.36945878       0.00000000 NULL       0.21771990       0.18139773       0.01588799
P        1.91640351      -0.00096577       6.28390076       0.00000000 NULL       0.23015932      -0.10839975      -0.19662325
P        4.29662819       3.25443459       3.48482454       0.00000000 NULL       0.23015932       0.10839975       0.19662325
P        4.73580684      -0.67609687       7.03525604       0.00000000 NULL      -0.05019900       0.15718340      -0.06094277
P        2.35558216       3.92956568       2.73346925       0.00000000 NULL      -0.05019900      -0.15718340       0.06094277
P        1.46175437       1.65045280       4.86076218       0.00000000 NULL      -0.15252550       0.23776638       0.19857980
P        3.84197905       1.60301601       4.90796311       0.00000000 NULL      -0.15252550      -0.23776638      -0.19857980
P        2.27413571       0.29680842      -0.01198918       0.00000000 NULL       0.05168413      -0.10375267       0.15416942
P        4.65436039       2.95666039       9.78071447       0.00000000 NULL       0.05168413       0.10375267      -0.15416942
P        1.81513821       0.79751384       2.19155787       0.00000000 NULL      -0.21646369       0.12339822      -0.02537138
P        4.19536289       2.45595497       7.57716742       0.00000000 NULL      -0.21646369      -0.12339822       0.02537138
P        2.76262782      -1.19861404       9.49892901       0.00000000 NULL      -0.08037516      -0.10609016      -0.15324584
P        0.38240313       4.45208286       0.26979629       0.00000000 NULL      -0.08037516       0.10609016       0.15324584
14
Lattice="4.741797031516032 0.0 0.0 0.0 5.482793815459139 -1.917631695437952 0.0 -2.183841900232002 11.676453613679536" Properties=species:S:1:pos:R:3:initial_magmoms:R:1:castep_labels:S:1:forces:R:3 n_minim_iter=13 energy=-74.48441563578724 stress="-0.0018597985690420918 -6.015332001275963e-12 -5.923891368009434e-12 -6.015332001275963e-12 0.0005210580364029634 0.0030354062147587516 -5.923891368009434e-12 0.0030354062147587516 0.00024356022231519168" free_energy=-74.48441563578724 pbc="T T T"
P        1.08496164       3.33193571       6.39337617       0.00000000 NULL       0.06128268      -0.09564718       0.06269851
P        3.45586016      -0.03298380       3.36544574       0.00000000 NULL       0.06128268       0.09564718      -0.06269851
P        1.93087248       0.00017459       6.24516309       0.00000000 NULL       0.10218189      -0.19641072      -0.04342349
P        4.30177100       3.29877733       3.51365882       0.00000000 NULL       0.10218189       0.19641072       0.04342349
P        4.73533620      -0.65684486       7.03671081       0.00000000 NULL      -0.00786400      -0.01772053      -0.02168942
P        2.36443769       3.95579677       2.72211110       0.00000000 NULL      -0.00786400       0.01772053       0.02168942
P        1.44890489       1.67305293       4.86340798       0.00000000 NULL      -0.10526002       0.19207068       0.06148412
P        3.81980340       1.62589898       4.89541393       0.00000000 NULL      -0.10526002      -0.19207068      -0.06148412
P        2.27375782       0.30134993      -0.00464151       0.00000000 NULL       0.02072399      -0.04813453       0.07638474
P        4.64465634       2.99760199       9.76346342       0.00000000 NULL       0.02072398       0.04813453      -0.07638474
P        1.77430987       0.82954640       2.18662715       0.00000000 NULL       0.05187491       0.03109541       0.05588722
P        4.14520839       2.46940551       7.57219476       0.00000000 NULL       0.05187491      -0.03109541      -0.05588722
P        2.74574218      -1.21759678       9.47895309       0.00000000 NULL      -0.12293944      -0.03745882      -0.15828509
P        0.37484366       4.51654869       0.27986882       0.00000000 NULL      -0.12293944       0.03745883       0.15828509
14