45
Lattice="9.468344610365119 8.88799222894332e-17 6.629812357404625e-45 -4.734172305182558 8.199826964361662 5.873854202049747e-44 -9.53035749237642e-45 -1.0300142727427526e-43 13.610748560178004" Properties=species:S:1:pos:R:3:initial_magmoms:R:1:castep_labels:S:1:forces:R:3 n_minim_iter=1 energy=-222.41745400571213 stress="-0.0004960297443540359 -1.6756799025423714e-12 -4.662917616855161e-12 -1.6756799025423714e-12 -0.0004960297294368703 1.4492424097564747e-12 -4.662917616855161e-12 1.4492424097564747e-12 -0.0008008344240640924" free_energy=-222.41745400571213 pbc="T T T"
P       -4.28896198       7.42051485       5.70574507       0.00000000 NULL       0.24826416       0.02896332       0.39529992
P        3.83666306       8.20391956      10.24266126       0.00000000 NULL      -0.09904911      -0.22948473       0.39529992
P        0.45229892       0.77521951       1.16882889       0.00000000 NULL      -0.14921505       0.20052141       0.39529992
P        2.61738723       0.54120132       0.62573393       0.00000000 NULL      -0.60238694      -0.17392392       0.18781211
P        3.89417278       5.66250247       5.16265011       0.00000000 NULL       0.15057093       0.60864435       0.18781211
P        7.69095690       1.99612317       9.69956630       0.00000000 NULL       0.45181600      -0.43472043       0.18781211
P        3.94168221       7.02516747       3.46913586       0.00000000 NULL      -0.22496636       0.42046066       0.07658586
P        8.84730469       1.27364630       8.00605205       0.00000000 NULL       0.47661279      -0.01540375       0.07658586
P        1.41353001      -0.09898681      12.54296823       0.00000000 NULL      -0.25164644      -0.40505691       0.07658586
P        1.92198790       1.82102413      11.14271335       0.00000000 NULL      -0.29017613      -0.27708137      -0.50969487
P        5.35023151       5.62482455       2.06888098       0.00000000 NULL      -0.09487144       0.38984059      -0.50969487
P        6.93029751       0.75397828       6.60579717       0.00000000 NULL       0.38504757      -0.11275921      -0.50969487
P       -0.38339581       5.04846823       7.07094545       0.00000000 NULL       0.07049077       0.17641192       0.16345970
P       -0.17037266       6.00762335      11.60786163       0.00000000 NULL       0.11753182      -0.14925276       0.16345970
P        0.55376847       5.34356233       2.53402926       0.00000000 NULL      -0.18802259      -0.02715916       0.16345970
P       -1.52414801       4.05810546      11.40765121       0.00000000 NULL       0.15633870      -0.05897202       0.06453860
P       -0.45767588       7.49072513       2.33381883       0.00000000 NULL      -0.12924062      -0.10590728       0.06453860
P        1.98182389       4.85082333       6.87073502       0.00000000 NULL      -0.02709809       0.16487930       0.06453860
P       -1.47518733       8.22475394      10.52874625       0.00000000 NULL       0.41572593       0.53544328       0.02117831
P        3.12626722       5.36499969       1.45491388       0.00000000 NULL       0.25584452      -0.62775086       0.02117831
P       -1.65107988       2.80990029       5.99183006       0.00000000 NULL      -0.67157045       0.09230758       0.02117831
P        5.85965150       3.51343985      10.61388585       0.00000000 NULL      -0.43272100      -0.50420221       0.71878363
P        4.84707473       1.36849998       1.54005348       0.00000000 NULL      -0.22029142       0.62684848       0.71878363
P        3.49579069       3.31788712       6.07696966       0.00000000 NULL       0.65301242      -0.12264627       0.71878363
P       -0.31303637       4.83039010       9.77666182       0.00000000 NULL       0.23635817      -0.14826038      -0.08596513
P       -0.39441358       6.05572936       0.70282944       0.00000000 NULL      -0.24657634      -0.13056199      -0.08596513
P        0.70744995       5.51353446       5.23974563       0.00000000 NULL       0.01021816       0.27882237      -0.08596513
P        1.07303928       0.41795541       9.43125641       0.00000000 NULL      -0.62699534      -0.07724155      -0.37249789
P        4.55961268       7.06156998       0.35742403       0.00000000 NULL       0.24660453       0.58161466      -0.37249789
P        8.56986497       0.72030156       4.89434022       0.00000000 NULL       0.38039081      -0.50437312      -0.37249789
P        4.23245665       1.46860752      12.83611347       0.00000000 NULL      -0.00526472      -0.03212081       0.78790370
P        3.88979541       3.80010822       3.76228110       0.00000000 NULL      -0.02518508       0.02061979       0.78790369
P        6.08026486       2.93111122       8.29919728       0.00000000 NULL       0.03044980       0.01150102       0.78790369
P        3.11364845       1.97392735       2.98227478       0.00000000 NULL       0.74872215      -0.29283757      -0.31001613
P        4.88681932       4.51636463       7.51919097       0.00000000 NULL      -0.62796585      -0.50199362      -0.31001613
P        6.20204915       1.70953498      12.05610716       0.00000000 NULL      -0.12075630       0.79483119      -0.31001613
P        6.21716665       2.18744753       4.41853897       0.00000000 NULL      -0.20634358       0.11735164      -0.12765658
P        3.51997411       1.72187893       8.95545515       0.00000000 NULL       0.20480129       0.12002296      -0.12765657
P        4.46537615       4.29050049      13.49237134       0.00000000 NULL       0.00154229      -0.23737460      -0.12765657
P        1.87863726       7.15410010       2.38503007       0.00000000 NULL       0.08836564      -0.28180843      -0.23256003
P        0.52214149       2.99582932       6.92194626       0.00000000 NULL      -0.28823607       0.06437733      -0.23256003
P       -2.40077875       6.24972451      11.45886244       0.00000000 NULL       0.19987044       0.21743110      -0.23256003
P        6.05518130       4.34421772       4.18189227       0.00000000 NULL       0.04062998       0.02957353      -0.77717120
P        5.46878457       0.78377726       8.71880846       0.00000000 NULL       0.00529644      -0.04997336      -0.77717120
P        2.67855105       3.07183197      13.25572465       0.00000000 NULL      -0.04592642       0.02039983      -0.77717120
45
Lattice="9.532904146284922 5.265629818378547e-16 6.738296422318263e-45 -4.76645207314246 8.255737162524744 5.926560636209296e-44 -9.544957530167235e-45 -1.0387632823944587e-43 13.76089375837248" Properties=species:S:1:pos:R:3:initial_magmoms:R:1:castep_labels:S:1:forces:R:3 n_minim_iter=2 energy=-222.53351547473133 stress="0.007508060000851929 -3.792308378969056e-12 -1.7599203689314973e-12 -3.792308378969056e-12 0.00750806001285549 1.3654084181675316e-12 -1.7599203689314973e-12 1.3654084181675316e-12 0.008616688011709487" free_energy=-222.53351547473133 pbc="T T T"
P       -4.31496564       7.47148938       5.77386848       0.00000000 NULL       0.01126575       0.08743217       0.27689297
P        3.86153036       8.25686233      10.36083307       0.00000000 NULL       0.07008561      -0.05347251       0.27689297
P        0.45343528       0.78312261       1.18690390       0.00000000 NULL      -0.08135136      -0.03395966       0.27689297
P        2.62737115       0.54262134       0.63509830       0.00000000 NULL      -0.74665741      -0.18123876       0.03512174
P        3.92269037       5.70905633       5.22206288       0.00000000 NULL       0.21637133       0.73724367       0.03512174
P        7.74929470       2.00405948       9.80902747       0.00000000 NULL       0.53028608      -0.55600491       0.03512174
P        3.96562205       7.07855634       3.50840900       0.00000000 NULL      -0.28379062       0.21342971       0.16138771
P        8.91385067       1.28212955       8.09537358       0.00000000 NULL       0.32673087       0.13905503       0.16138771
P        1.41988350      -0.10494874      12.68233817       0.00000000 NULL      -0.04294024      -0.35248475       0.16138771
P        1.93130538       1.82982411      11.25895213       0.00000000 NULL      -0.17044008      -0.51253566      -0.54793171
P        5.38547355       5.66826558       2.08502296       0.00000000 NULL      -0.35864886       0.40387327      -0.54793171
P        6.98257729       0.75764746       6.67198754       0.00000000 NULL       0.52908894       0.10866239      -0.54793171
P       -0.38508990       5.08519363       7.15109014       0.00000000 NULL       0.31862527       0.05643195      -0.01234992
P       -0.17000026       6.04663798      11.73805473       0.00000000 NULL      -0.11044114      -0.30415355      -0.01234992
P        0.55509016       5.37964271       2.56412555       0.00000000 NULL      -0.20818413       0.24772160      -0.01234992
P       -1.53249975       4.08500576      11.53433914       0.00000000 NULL       0.21591988       0.07518457      -0.11163325
P       -0.46248343       7.54041799       2.36040996       0.00000000 NULL      -0.04284819      -0.22458439      -0.11163325
P        1.99498318       4.88605056       6.94737455       0.00000000 NULL      -0.17307169       0.14939982      -0.11163325
P       -1.47981959       8.28782296      10.64517033       0.00000000 NULL       0.29948445       0.67794655       0.07224934
P        3.15092295       5.39338704       1.47124115       0.00000000 NULL       0.43737671      -0.59833441       0.07224934
P       -1.67110336       2.83026432       6.05820574       0.00000000 NULL      -0.73686116      -0.07961214       0.07224934
P        5.89395722       3.53081502      10.74039270       0.00000000 NULL      -0.24902343      -0.54180198       0.68113535
P        4.87724897       1.38601297       1.56646353       0.00000000 NULL      -0.34470256       0.48656161       0.68113535
P        3.52815003       3.33890917       6.15342812       0.00000000 NULL       0.59372599       0.05524037       0.68113535
P       -0.31208574       4.86139076       9.88338503       0.00000000 NULL       0.07840582      -0.09387307       0.17133737
P       -0.40032130       6.09531595       0.70945586       0.00000000 NULL      -0.12049937      -0.02096490       0.17133737
P        0.71240704       5.55476760       5.29642045       0.00000000 NULL       0.04209355       0.11483796       0.17133737
P        1.07217192       0.41979703       9.53041372       0.00000000 NULL      -0.72250256      -0.05256889      -0.15334762
P        4.59392101       7.11731053       0.35648455       0.00000000 NULL       0.31572528       0.65199001      -0.15334762
P        8.63326329       0.71862959       4.94344913       0.00000000 NULL       0.40677727      -0.59942113      -0.15334762
P        4.26124678       1.47820191      12.98804050       0.00000000 NULL       0.01350429       0.09344497       0.83152653
P        3.91598910       3.82628824       3.81411133       0.00000000 NULL       0.07417357      -0.05841754       0.83152653
P        6.12212035       2.95124700       8.40107592       0.00000000 NULL      -0.08767786      -0.03502743       0.83152653
P        3.14465141       1.98356425       3.01110995       0.00000000 NULL       0.86960812      -0.14556122      -0.39942817
P        4.91194340       4.54060703       7.59807454       0.00000000 NULL      -0.56086378      -0.68032212      -0.39942818
P        6.24276141       1.73156588      12.18503912       0.00000000 NULL      -0.30874435       0.82588334      -0.39942818
P        6.25686487       2.20389428       4.46560830       0.00000000 NULL      -0.11493899       0.27299155      -0.03928935
P        3.54664808       1.73518609       9.05257288       0.00000000 NULL       0.29388711      -0.03695569      -0.03928935
P        4.49584327       4.31665678      13.63953747       0.00000000 NULL      -0.17894812      -0.23603586      -0.03928935
P        1.89260007       7.19920175       2.40829203       0.00000000 NULL       0.15120695      -0.43602904      -0.19411261
P        0.52193950       3.01709654       6.99525662       0.00000000 NULL      -0.45321570       0.08706546      -0.19411261
P       -2.41453957       6.29517602      11.58222121       0.00000000 NULL       0.30200875       0.34896358      -0.19411261
P        6.09699864       4.37422461       4.21783782       0.00000000 NULL      -0.14947918      -0.12009558      -0.77155838
P        5.50614239       0.78846914       8.80480241       0.00000000 NULL      -0.02926624       0.18950056      -0.77155838
P        2.69621519       3.09304340      13.39176700       0.00000000 NULL       0.17874542      -0.06940498      -0.77155838
45
Lattice="9.43569435066001 8.730526055196333e-16 6.818482864019799e-45 -4.717847175330004 8.171551010016874 5.895838742404376e-44 -9.491433382608876e-45 -1.049754450882207e-43 13.986922908504923" Properties=species:S:1:pos:R:3:initial_magmoms:R:1:castep_labels:S:1:forces:R:3 n_minim_iter=3 energy=-224.0162645076817 stress="-0.0014784430434124298 4.479001971105508e-12 -2.2260481179693977e-12 4.479001971105508e-12 -0.0014784430411671822 -3.277902042530338e-12 -2.2260481179693977e-12 -3.277902042530338e-12 0.009999260951263361" free_energy=-224.0162645076817 pbc="T T T"
P       -4.24250087       7.39936865       5.91777072       0.00000000 NULL       0.40930480      -0.00828719       0.64899800
P        3.81144449       8.14598021      10.58007835       0.00000000 NULL      -0.21182932      -0.35032477       0.64899800
P        0.43105639       0.79775315       1.25546308       0.00000000 NULL      -0.19747549       0.35861195       0.64899800
P        2.52527065       0.51564276       0.66797409       0.00000000 NULL      -0.49173788      -0.24306230      -0.35470413
P        3.90177159       5.72678110       5.33028173       0.00000000 NULL       0.03537081       0.54738865      -0.35470413
P        7.72649930       1.92912715       9.99258937       0.00000000 NULL       0.45636707      -0.30432635      -0.35470413
P        3.89701597       7.05626764       3.57651038       0.00000000 NULL      -0.42908646      -0.12074918      -0.11781628
P        8.88024623       1.26850236       8.23881802       0.00000000 NULL       0.10997137       0.43197436      -0.11781628
P        1.37627933      -0.15321900      12.90112565       0.00000000 NULL       0.31911509      -0.31122518      -0.11781628
P        1.87697705       1.77505726      11.37890753       0.00000000 NULL      -0.08378218      -0.46556353      -0.47444994
P        5.31660334       5.65851257       2.05429226       0.00000000 NULL      -0.36129875       0.30533926      -0.47444994
P        6.95996115       0.73798117       6.71659990       0.00000000 NULL       0.44508093       0.16022427      -0.47444994
P       -0.37034314       5.05398465       7.28769822       0.00000000 NULL       0.28763545       0.31696817      -0.25371209
P       -0.15579651       5.96528525      11.95000586       0.00000000 NULL       0.13068476      -0.40758369      -0.25371209
P        0.52613965       5.32383211       2.62539058       0.00000000 NULL      -0.41832021       0.09061552      -0.25371209
P       -1.49713528       4.03726441      11.73039669       0.00000000 NULL       0.30491401       0.03126333      -0.17788563
P       -0.47290599       7.44947599       2.40578142       0.00000000 NULL      -0.12538216      -0.27969494      -0.17788563
P        1.97004127       4.85636161       7.06808905       0.00000000 NULL      -0.17953185       0.24843161      -0.17788563
P       -1.41463003       8.27037281      10.82316694       0.00000000 NULL       0.18066060       0.66910254       0.11369252
P        3.15182080       5.26147015       1.49855166       0.00000000 NULL       0.48912950      -0.49100794       0.11369252
P       -1.73719076       2.81125905       6.16085930       0.00000000 NULL      -0.66979010      -0.17809460       0.11369252
P        5.78225163       3.43249839      11.00761936       0.00000000 NULL      -0.50191836       0.53653092      -0.27981726
P        4.79935217       1.44772501       1.68300409       0.00000000 NULL       0.71560859       0.16640859      -0.27981726
P        3.57193773       3.29132760       6.34531172       0.00000000 NULL      -0.21369023      -0.70293951      -0.27981726
P       -0.28121704       4.79406305      10.03713582       0.00000000 NULL      -0.06085780      -0.00613448       0.56254307
P       -0.42545826       6.01806059       0.71252055       0.00000000 NULL       0.02511628       0.05577164       0.56254307
P        0.70667531       5.53097838       5.37482819       0.00000000 NULL       0.03574152      -0.04963716       0.56254307
P        0.98332821       0.40623450       9.64168859       0.00000000 NULL      -0.10463880      -0.24040899       0.14125988
P        4.57799247       7.11684654       0.31707332       0.00000000 NULL      -0.15588090       0.21082436       0.14125988
P        8.59222084       0.64846995       4.97938095       0.00000000 NULL       0.26051970       0.02958464       0.14125988
P        4.21730929       1.46026935      13.30168147       0.00000000 NULL       0.06419041       0.12228718       0.63927107
P        3.87382289       3.78911935       3.97706620       0.00000000 NULL       0.07380859      -0.11673412       0.63927107
P        6.06240935       2.92216230       8.63937383       0.00000000 NULL      -0.13799901      -0.00555306       0.63927107
P        3.20568007       1.92861488       3.02045196       0.00000000 NULL      -0.18988119       0.19592186       0.37015138
P        4.78523663       4.43104319       7.68275960       0.00000000 NULL       0.26461390       0.06648100       0.37015138
P        6.16262484       1.81189293      12.34506724       0.00000000 NULL      -0.07473271      -0.26240286       0.37015138
P        6.16848780       2.19719850       4.52356416       0.00000000 NULL      -0.05007542       0.04390281       0.09609757
P        3.53643300       1.73088462       9.18587180       0.00000000 NULL       0.06305866       0.02141518       0.09609757
P        4.44862073       4.24346789      13.84817943       0.00000000 NULL      -0.01298324      -0.06531799       0.09609757
P        1.88470964       7.08980580       2.41870398       0.00000000 NULL       0.40896283      -0.24744675      -0.12330439
P        0.47974994       2.99444168       7.08101161       0.00000000 NULL      -0.41877659      -0.23044882      -0.12330439
P       -2.36445958       6.25885453      11.74331925       0.00000000 NULL       0.00981376       0.47789557      -0.12330439
P        6.03817051       4.33195589       4.18861505       0.00000000 NULL      -0.24243887       0.13435707      -0.79032377
P        5.45034577       0.77636401       8.85092268       0.00000000 NULL       0.23757607       0.14277969      -0.79032377
P        2.66502525       3.06323111      13.51323032       0.00000000 NULL       0.00486280      -0.27713676      -0.79032377
45
Lattice="9.60051305585034 2.0365941132158982e-15 6.624930305537744e-45 -4.80025652792517 8.31428819573056 5.936289557372425e-44 -9.650703454029736e-45 -1.0318308270894885e-43 13.580857979277093" Properties=species:S:1:pos:R:3:initial_magmoms:R:1:castep_labels:S:1:forces:R:3 n_minim_iter=4 energy=-224.42763213991378 stress="0.0021482217278518973 3.1423171589104334e-12 -5.813501127671986e-12 3.1423171589104334e-12 0.002148221722971912 4.3545411374238795e-13 -5.813501127671986e-12 4.3545411374238795e-13 0.0004031226568594003" free_energy=-224.42763213991378 pbc="T T T"
P       -4.30439938       7.52990019       5.76554751       0.00000000 NULL       0.13999015      -0.00077797       0.38507730
P        3.87302802       8.27705731      10.29250017       0.00000000 NULL      -0.07066882      -0.12084604       0.38507730
P        0.43137137       0.82161888       1.23859485       0.00000000 NULL      -0.06932133       0.12162401       0.38507730
P        2.54110204       0.51605443       0.65455050       0.00000000 NULL      -0.59509761      -0.14148597       0.01316702
P        3.97662176       5.85560206       5.18150316       0.00000000 NULL       0.17501836       0.58611263       0.01316702
P        7.88304579       1.94263170       9.70845582       0.00000000 NULL       0.42007925      -0.44462666       0.01316702
P        3.95335334       7.19661310       3.47545140       0.00000000 NULL      -0.57047963      -0.14795677      -0.32338547
P        9.05602963       1.29227722       8.00240406       0.00000000 NULL       0.15710550       0.56802824      -0.32338547
P        1.39138662      -0.17460214      12.52935672       0.00000000 NULL       0.41337413      -0.42007147      -0.32338547
P        1.89714182       1.79167411      11.02478550       0.00000000 NULL       0.01200011      -0.50763857      -0.60080162
P        5.40332091       5.77547813       1.97088018       0.00000000 NULL      -0.44562795       0.24342689      -0.60080162
P        7.10030685       0.74713595       6.49783284       0.00000000 NULL       0.43362784       0.26421168      -0.60080162
P       -0.37207564       5.15113417       7.08152226       0.00000000 NULL       0.30231988      -0.20964781      -0.26374269
P       -0.15320565       6.06094806      11.60847492       0.00000000 NULL      -0.33272027      -0.15699279      -0.26374269
P        0.52528130       5.41649415       2.55456960       0.00000000 NULL       0.03040039       0.36664060      -0.26374269
P       -1.51507314       4.10560876      11.39144712       0.00000000 NULL       0.27324617       0.25830238      -0.01635209
P       -0.48715847       7.57357563       2.33754180       0.00000000 NULL       0.08707334      -0.36578932      -0.01635209
P        2.00223161       4.94939198       6.86449446       0.00000000 NULL      -0.36031951       0.10748693      -0.01635209
P       -1.42088988       8.44109519      10.51046286       0.00000000 NULL       0.14430788       0.70971387       0.23443502
P        3.22039129       5.32426733       1.45655754       0.00000000 NULL       0.54247630      -0.47983122       0.23443502
P       -1.79950140       2.86321386       5.98351020       0.00000000 NULL      -0.68678418      -0.22988265       0.23443502
P        5.86264870       3.47341007      10.71686841       0.00000000 NULL      -0.73128145       1.42880373      -0.82829452
P        4.87699354       1.50038046       1.66296309       0.00000000 NULL       1.60302106      -0.08109355      -0.82829452
P        3.66112735       3.34049767       6.18991575       0.00000000 NULL      -0.87173960      -1.34771018      -0.82829452
P       -0.27654923       4.87151938       9.74520487       0.00000000 NULL       0.03644691      -0.30234584       0.36459944
P       -0.44312237       6.11802716       0.69129955       0.00000000 NULL      -0.28006263       0.11960897       0.36459944
P        0.71967161       5.63902984       5.21825221       0.00000000 NULL       0.24361572       0.18273687       0.36459944
P        0.97308360       0.40892429       9.34710532       0.00000000 NULL      -0.07905169      -0.41898535       0.25942858
P        4.66785356       7.26711093       0.29320000       0.00000000 NULL      -0.32332611       0.27795344       0.25942858
P        8.75983243       0.63825296       4.82015266       0.00000000 NULL       0.40237780       0.14103191       0.25942858
P        4.29108260       1.48516691      12.95178249       0.00000000 NULL      -0.01342140       0.20108401       0.48792917
P        3.94090751       3.85551820       3.89787717       0.00000000 NULL       0.18085456      -0.08891873       0.48792917
P        6.16877948       2.97360308       8.42482983       0.00000000 NULL      -0.16743316      -0.11216528       0.48792917
P        3.29293446       1.95093640       2.92138442       0.00000000 NULL      -0.83481898       0.47280879       1.06994139
P        4.84334979       4.48705510       7.44833708       0.00000000 NULL       0.82687391       0.48657005       1.06994139
P        6.26448534       1.87629669      11.97528974       0.00000000 NULL       0.00794507      -0.95937884       1.06994139
P        6.26731542       2.24102517       4.38745914       0.00000000 NULL       0.03550432       0.23554910       0.03105989
P        3.60738355       1.76612124       8.91441180       0.00000000 NULL       0.18623934      -0.14852219       0.03105989
P        4.52607061       4.30714178      13.44136446       0.00000000 NULL      -0.22174366      -0.08702691       0.03105989
P        1.92343950       7.20021001       2.33816705       0.00000000 NULL       0.04739907      -0.41698035      -0.17241766
P        0.47358851       3.04843571       6.86511971       0.00000000 NULL      -0.38481511       0.16744138      -0.17241766
P       -2.39702801       6.37993066      11.39207237       0.00000000 NULL       0.33741604       0.24953898      -0.17241766
P        6.14395198       4.40930989       4.03053350       0.00000000 NULL      -0.38892021      -0.21640152      -0.64064376
P        5.54685492       0.78881475       8.55748616       0.00000000 NULL       0.00705089       0.44501555      -0.64064376
P        2.70996269       3.11616354      13.08443882       0.00000000 NULL       0.38186932      -0.22861402      -0.64064376
45
Lattice="9.684395927674364 1.1489247926926269e-15 6.64787128809993e-45 -4.842197963837182 8.386932893672558 5.981190125466236e-44 -9.647630214804352e-45 -1.0273245394555625e-43 13.50120829817864" Properties=species:S:1:pos:R:3:initial_magmoms:R:1:castep_labels:S:1:forces:R:3 n_minim_iter=5 energy=-226.08902386394922 stress="-0.00011874514205922 2.845639635624222e-12 -2.1634524625401896e-12 2.845639635624222e-12 -0.00011874512736087165 -1.2634654638256113e-12 -2.1634524625401896e-12 -1.2634654638256113e-12 -0.00396062121476433" free_energy=-226.08902386394922 pbc="T T T"
P       -4.29020969       7.59882646       5.82053760       0.00000000 NULL       0.15173681       0.00054674       0.27387889
P        3.88368364       8.30295024      10.32094036       0.00000000 NULL      -0.07539491      -0.13168130       0.27387889
P        0.40652606       0.87208908       1.32013483       0.00000000 NULL      -0.07634189       0.13113456       0.27387889
P        2.43406897       0.48344408       0.67129262       0.00000000 NULL      -0.12839994       0.01735049       0.17538339
P        4.04383834       6.03724528       5.17169538       0.00000000 NULL       0.07922594       0.10252236       0.17538339
P        8.04868658       1.86624352       9.67209815       0.00000000 NULL       0.04917400      -0.11987285       0.17538339
P        3.91082256       7.30466598       3.44026480       0.00000000 NULL      -0.46124333      -0.67703273      -0.69792195
P        9.21281299       1.34772821       7.94066756       0.00000000 NULL      -0.35570588       0.73796480      -0.69792195
P        1.40295834      -0.26546131      12.44107033       0.00000000 NULL       0.81694921      -0.06093207      -0.69792195
P        1.87357898       1.72878566      10.84614420       0.00000000 NULL       0.12498977      -0.18381813      -0.35672876
P        5.40258078       5.89997307       1.84533867       0.00000000 NULL      -0.22168605      -0.01633525      -0.35672876
P        7.25043414       0.75817416       6.34574144       0.00000000 NULL       0.09669628       0.20015338      -0.35672876
P       -0.34189953       5.21091578       7.04046095       0.00000000 NULL      -0.01973619      -0.16136706      -0.06284658
P       -0.15846275       6.07756868      11.54086372       0.00000000 NULL      -0.12987988       0.09777557      -0.06284659
P        0.50036228       5.48538132       2.54005818       0.00000000 NULL       0.14961607       0.06359149      -0.06284659
P       -1.48358654       4.15137344      11.33044348       0.00000000 NULL      -0.05233530       0.20395889       0.38863483
P       -0.50520983       7.59606981       2.32963795       0.00000000 NULL       0.20280123      -0.05665575       0.38863483
P        1.98879637       5.02642253       6.83004071       0.00000000 NULL      -0.15046593      -0.14730314       0.38863483
P       -1.36378556       8.64628958      10.46891952       0.00000000 NULL       0.07577463       0.36655402       0.21131999
P        3.32760124       5.24486104       1.46811398       0.00000000 NULL       0.27955778      -0.24889976       0.21131999
P       -1.96381568       2.88271516       5.96851675       0.00000000 NULL      -0.35533240      -0.11765426       0.21131998
P        5.79438139       3.54775778      10.68598753       0.00000000 NULL      -0.38922026       0.71439262      -0.40041637
P        5.01745564       1.59497252       1.68518200       0.00000000 NULL       0.81329229      -0.02012167      -0.40041637
P        3.71475687       3.24420259       6.18558477       0.00000000 NULL      -0.42407203      -0.69427095      -0.40041637
P       -0.24456062       4.87225398       9.70879097       0.00000000 NULL       0.15471719      -0.42890240      -0.09009966
P       -0.50042193       6.16260161       0.70798544       0.00000000 NULL      -0.44879897       0.08046219      -0.09009966
P        0.74498256       5.73901019       5.20838820       0.00000000 NULL       0.29408178       0.34844022      -0.09009966
P        0.89178698       0.36820381       9.26237204       0.00000000 NULL       0.64700703      -0.94265620       0.71332955
P        4.71517833       7.43052081       0.26156651       0.00000000 NULL      -1.13986773      -0.08899643       0.71332955
P        8.91962859       0.58820827       4.76196928       0.00000000 NULL       0.49286070       1.03165263       0.71332955
P        4.32780713       1.50909800      13.02062487       0.00000000 NULL       0.02417705       0.22273358      -0.05580985
P        3.98521161       3.88439297       4.01981934       0.00000000 NULL       0.18080441      -0.13230473      -0.05580985
P        6.21357515       2.99344191       8.52022211       0.00000000 NULL      -0.20498146      -0.09042885      -0.05580985