32
Lattice="5.516671414980059 -0.007853470464404632 0.0 -1.9610052294472835 10.583666238118044 0.0 0.0 0.0 11.735576518075192" Properties=species:S:1:pos:R:3:initial_magmoms:R:1:castep_labels:S:1:forces:R:3 n_minim_iter=1 energy=-171.0612843228053 stress="-0.004007791697193755 0.0035861401931898034 -1.0740527731442089e-11 0.0035861401931898034 -0.005564092304550698 6.827310250907308e-13 -1.0740527731442089e-11 6.827310250907308e-13 0.010763636595672138" free_energy=-171.0612843228053 pbc="T T T"
P       -0.59817030       8.30998762       1.44286237       0.00000000 NULL      -0.20876979      -0.65098714      -0.70917420
P        0.41499816       7.56158501       7.31065063       0.00000000 NULL       0.20876979       0.65098714      -0.70917420
P        4.15383649       2.26582515      10.29271415       0.00000000 NULL       0.20876979       0.65098714       0.70917420
P        3.14066803       3.01422777       4.42492589       0.00000000 NULL      -0.20876979      -0.65098714       0.70917420
P        6.02028679       2.56043863       6.10804743       0.00000000 NULL       0.49877348       0.61663140      -0.31269948
P        1.27421773       2.71961429       0.24025917       0.00000000 NULL      -0.49877348      -0.61663140      -0.31269948
P       -2.46462059       8.01537415       5.62752909       0.00000000 NULL      -0.49877348      -0.61663140       0.31269948
P        2.28144846       7.85619848      11.49531735       0.00000000 NULL       0.49877348       0.61663140       0.31269948
P        0.07685501       7.80618780      11.05796775       0.00000000 NULL      -0.49099272       0.47711224       0.41474563
P       -0.26002714       8.06538483       5.19017950       0.00000000 NULL       0.49099272      -0.47711224       0.41474564
P        3.47881118       2.76962497       0.67760876       0.00000000 NULL       0.49099272      -0.47711224      -0.41474563
P        3.81569333       2.51042795       6.54539702       0.00000000 NULL      -0.49099272       0.47711224      -0.41474563
P        0.09170249       2.55758798       2.16911201       0.00000000 NULL       0.52687187      -1.23455680      -0.50558176
P        1.68613061       2.73031841       8.03690027       0.00000000 NULL      -0.52687187       1.23455680      -0.50558176
P        3.46396370       8.01822479       9.56646451       0.00000000 NULL      -0.52687187       1.23455680       0.50558176
P        1.86953558       7.84549437       3.69867625       0.00000000 NULL       0.52687187      -1.23455680       0.50558176
P        2.39601640      -0.35698614       1.58993918       0.00000000 NULL       0.06705998       0.21788653      -0.26213032
P       -0.61818330       5.64489253       7.45772744       0.00000000 NULL      -0.06705998      -0.21788653      -0.26213032
P        1.15964979      10.93279891      10.14563734       0.00000000 NULL      -0.06705997      -0.21788653       0.26213032
P        4.17384949       4.93092025       4.27784908       0.00000000 NULL       0.06705997       0.21788653       0.26213032
P        3.87063344       4.96766271       0.88415537       0.00000000 NULL      -0.52244736       1.09663675      -0.40592282
P        3.42387107       0.31239021       6.75194362       0.00000000 NULL       0.52244736      -1.09663675      -0.40592282
P       -0.31496725       5.60815006      10.85142115       0.00000000 NULL       0.52244736      -1.09663675       0.40592282
P        0.13179512      10.26342257       4.98363289       0.00000000 NULL      -0.52244736       1.09663675       0.40592282
P        1.22397065       0.50886188      11.35750384       0.00000000 NULL       0.17185598       0.99854439       0.15870338
P        0.55386245       4.77904452       5.48971558       0.00000000 NULL      -0.17185598      -0.99854439       0.15870339
P        2.33169554      10.06695090       0.37807268       0.00000000 NULL      -0.17185598      -0.99854439      -0.15870338
P        3.00180375       5.79676826       6.24586094       0.00000000 NULL       0.17185598       0.99854439      -0.15870338
P        1.88106962       0.61930661       8.26989186       0.00000000 NULL      -0.68622416      -1.17584210      -0.24760681
P       -0.10323652       4.66859979       2.40210360       0.00000000 NULL       0.68622416       1.17584209      -0.24760681
P        1.67459657       9.95650617       3.46568466       0.00000000 NULL       0.68622415       1.17584209       0.24760681
P        3.65890271       5.90721299       9.33347291       0.00000000 NULL      -0.68622415      -1.17584209       0.24760681
32
Lattice="5.560841228106327 -0.04750511929252887 0.0 -2.052590030743552 10.715301820015553 0.0 0.0 0.0 11.487993679692952" Properties=species:S:1:pos:R:3:initial_magmoms:R:1:castep_labels:S:1:forces:R:3 n_minim_iter=2 energy=-171.24124196215325 stress="-0.0018108487477167057 0.0007693905113395103 -1.5449713623914439e-12 0.0007693905113395103 0.005047397775503288 -4.547490256684388e-12 -1.5449713623914439e-12 -4.547490256684388e-12 -0.004370663755347206" free_energy=-171.24124196215325 pbc="T T T"
P       -0.66314604       8.40469229       1.41041507       0.00000000 NULL      -0.25082895      -0.49028032      -0.42848612
P        0.36468161       7.64450789       7.15441191       0.00000000 NULL       0.25082895       0.49028032      -0.42848612
P        4.17139724       2.26310442      10.07757861       0.00000000 NULL       0.25082895       0.49028032       0.42848612
P        3.14356959       3.02328882       4.33358177       0.00000000 NULL      -0.25082895      -0.49028032       0.42848612
P        6.05150558       2.54749843       5.97830212       0.00000000 NULL       0.27903773       0.69337074      -0.47439698
P        1.26346125       2.73889481       0.23430528       0.00000000 NULL      -0.27903773      -0.69337074      -0.47439698
P       -2.54325438       8.12029828       5.50969156       0.00000000 NULL      -0.27903773      -0.69337074       0.47439698
P        2.24478995       7.92890190      11.25368840       0.00000000 NULL       0.27903773       0.69337074       0.47439698
P        0.02004411       7.89375912      10.82585436       0.00000000 NULL      -0.35393038       0.29460761       0.15359385
P       -0.31850854       8.15544106       5.08185752       0.00000000 NULL       0.35393038      -0.29460761       0.15359385
P        3.48820709       2.77403759       0.66213932       0.00000000 NULL       0.35393038      -0.29460761      -0.15359385
P        3.82675974       2.51235565       6.40613616       0.00000000 NULL      -0.35393038       0.29460761      -0.15359385
P        0.07565472       2.58172126       2.12191952       0.00000000 NULL       0.33052333      -0.77244393      -0.26950056
P        1.67847088       2.75217710       7.86591636       0.00000000 NULL      -0.33052333       0.77244393      -0.26950056
P        3.43259648       8.08607545       9.36607416       0.00000000 NULL      -0.33052333       0.77244393       0.26950056
P        1.82978032       7.91561961       3.62207732       0.00000000 NULL       0.33052333      -0.77244393       0.26950056
P        2.41792708      -0.37749984       1.55565454       0.00000000 NULL       0.06369620       0.03802652      -0.23482785
P       -0.66380148       5.71139820       7.29965138       0.00000000 NULL      -0.06369620      -0.03802652      -0.23482785
P        1.09032412      11.04529655       9.93233914       0.00000000 NULL      -0.06369620      -0.03802652       0.23482785
P        4.17205268       4.95639851       4.18834230       0.00000000 NULL       0.06369620       0.03802652       0.23482785
P        3.86441186       4.99830541       0.86435343       0.00000000 NULL      -0.46509782       0.89766103      -0.27857965
P        3.45055497       0.28808783       6.60835027       0.00000000 NULL       0.46509782      -0.89766103      -0.27857965
P       -0.35616066       5.66949130      10.62364025       0.00000000 NULL       0.46509782      -0.89766103       0.27857965
P        0.05769623      10.37970888       4.87964341       0.00000000 NULL      -0.46509782       0.89766103       0.27857965
P        1.23058880       0.50865281      11.11834638       0.00000000 NULL       0.19929982       0.98856770       0.17941815
P        0.52353680       4.82524555       5.37434954       0.00000000 NULL      -0.19929982      -0.98856770       0.17941815
P        2.27766240      10.15914390       0.36964730       0.00000000 NULL      -0.19929982      -0.98856770      -0.17941815
P        2.98471440       5.84255116       6.11364414       0.00000000 NULL       0.19929982       0.98856770      -0.17941815
P        1.88969392       0.60927181       8.09472286       0.00000000 NULL      -0.78265751      -0.89302795      -0.35495920
P       -0.13556832       4.72462655       2.35072602       0.00000000 NULL       0.78265751       0.89302795      -0.35495920
P        1.61855728      10.05852490       3.39327082       0.00000000 NULL       0.78265751       0.89302795       0.35495920
P        3.64381952       5.94317016       9.13726766       0.00000000 NULL      -0.78265751      -0.89302795       0.35495920
32
Lattice="5.651267770954049 -0.10448243205847342 0.0 -2.194225639890499 10.58780004052022 0.0 0.0 0.0 11.502948915146126" Properties=species:S:1:pos:R:3:initial_magmoms:R:1:castep_labels:S:1:forces:R:3 n_minim_iter=3 energy=-171.4099815132161 stress="0.008191632367376021 -0.004968167375910993 4.633254016503969e-12 -0.004968167375910993 -0.0044815747032482525 4.154864735658957e-12 4.633254016503969e-12 4.154864735658957e-12 -0.0008773410489365082" free_energy=-171.4099815132161 pbc="T T T"
P       -0.76119463       8.28972806       1.40751618       0.00000000 NULL      -0.30377399      -0.71215766      -0.39308683
P        0.29549006       7.53973079       7.15899064       0.00000000 NULL       0.30377399       0.71215766      -0.39308683
P        4.21823677       2.19358955      10.09543273       0.00000000 NULL       0.30377399       0.71215766       0.39308683
P        3.16155207       2.94358683       4.34395828       0.00000000 NULL      -0.30377399      -0.71215766       0.39308683
P        6.12683928       2.45587431       5.98207624       0.00000000 NULL      -0.02104152       0.39075370      -0.35272618
P        1.25294956       2.68130207       0.23060179       0.00000000 NULL       0.02104152      -0.39075370      -0.35272618
P       -2.66979715       8.02744331       5.52087267       0.00000000 NULL       0.02104152      -0.39075370       0.35272618
P        2.20409258       7.80201555      11.27234713       0.00000000 NULL      -0.02104152       0.39075370       0.35272618
P       -0.06349096       7.78738577      10.84206413       0.00000000 NULL      -0.14897731       0.38473159       0.12268889
P       -0.40221361       8.04207309       5.09058968       0.00000000 NULL       0.14897731      -0.38473159       0.12268889
P        3.52053310       2.69593185       0.66088478       0.00000000 NULL       0.14897731      -0.38473159      -0.12268889
P        3.85925574       2.44124453       6.41235924       0.00000000 NULL      -0.14897731       0.38473159      -0.12268889
P        0.05477710       2.53626748       2.12154826       0.00000000 NULL       0.27768520      -0.78521854      -0.33741287
P        1.67374397       2.70539133       7.87302272       0.00000000 NULL      -0.27768520       0.78521854      -0.33741287
P        3.40226503       7.94705013       9.38140065       0.00000000 NULL      -0.27768520       0.78521854       0.33741287
P        1.78329817       7.77792629       3.62992619       0.00000000 NULL       0.27768520      -0.78521854       0.33741287
P        2.46148431      -0.39648621       1.55541517       0.00000000 NULL       0.44102067       0.22016484      -0.15737766
P       -0.73296324       5.63814502       7.30688962       0.00000000 NULL      -0.44102067      -0.22016484      -0.15737766
P        0.99555783      10.87980383       9.94753375       0.00000000 NULL      -0.44102067      -0.22016484       0.15737766
P        4.19000537       4.84517259       4.19605929       0.00000000 NULL       0.44102067       0.22016484       0.15737766
P        3.87133414       4.89821871       0.86254423       0.00000000 NULL      -0.10653425       0.86308399      -0.07180988
P        3.50845471       0.23895767       6.61401869       0.00000000 NULL       0.10653425      -0.86308399      -0.07180988
P       -0.41429200       5.58509890      10.64040469       0.00000000 NULL       0.10653425      -0.86308399       0.07180988
P       -0.05141257      10.24435995       4.88893023       0.00000000 NULL      -0.10653425       0.86308399       0.07180988
P        1.24703795       0.49843580      11.13444204       0.00000000 NULL       0.26109220       0.59542997       0.12488551
P        0.48148313       4.74322301       5.38296758       0.00000000 NULL      -0.26109220      -0.59542997       0.12488551
P        2.21000419       9.98488182       0.36850688       0.00000000 NULL      -0.26109220      -0.59542997      -0.12488551
P        2.97555901       5.74009460       6.11998133       0.00000000 NULL       0.26109220       0.59542997      -0.12488551
P        1.90676511       0.57195601       8.10222578       0.00000000 NULL      -0.38775499      -1.04672929      -0.38434973
P       -0.17824404       4.66970280       2.35075133       0.00000000 NULL       0.38775499       1.04672929      -0.38434973
P        1.55027703       9.91136161       3.40072313       0.00000000 NULL       0.38775499       1.04672929       0.38434973
P        3.63528617       5.81361481       9.15219759       0.00000000 NULL      -0.38775499      -1.04672929       0.38434973
32
Lattice="5.570096647954851 -0.06275146202106573 0.0 -2.0853995581134654 10.525926654868728 0.0 0.0 0.0 11.59805148108997" Properties=species:S:1:pos:R:3:initial_magmoms:R:1:castep_labels:S:1:forces:R:3 n_minim_iter=4 energy=-171.98276436564865 stress="0.005213648762014183 -0.002146157645589399 1.1179668868970693e-12 -0.002146157645589399 -0.0007022063335646068 8.129292241593464e-12 1.1179668868970693e-12 8.129292241593464e-12 0.0013375131736607286" free_energy=-171.98276436564865 pbc="T T T"
P       -0.69779254       8.22947048       1.40417082       0.00000000 NULL      -0.13766785      -0.38114016      -0.22746881
P        0.35474153       7.52804378       7.20319656       0.00000000 NULL       0.13766785       0.38114016      -0.22746881
P        4.18248963       2.23370472      10.19388066       0.00000000 NULL       0.13766785       0.38114016       0.22746881
P        3.12995557       2.93513142       4.39485492       0.00000000 NULL      -0.13766785      -0.38114016       0.22746881
P        6.06509462       2.50905593       6.01868872       0.00000000 NULL       0.00054396      -0.06151240      -0.21763266
P        1.24735058       2.65978021       0.21966298       0.00000000 NULL      -0.00054396       0.06151240      -0.21763266
P       -2.58039752       7.95411927       5.57936276       0.00000000 NULL      -0.00054396       0.06151240       0.21763266
P        2.23734651       7.80339499      11.37838851       0.00000000 NULL       0.00054396      -0.06151240       0.21763266
P       -0.01635931       7.76491610      10.93792509       0.00000000 NULL      -0.22507738       0.10941067      -0.06470487
P       -0.32669169       7.99259816       5.13889935       0.00000000 NULL       0.22507738      -0.10941067      -0.06470487
P        3.50105641       2.69825910       0.66012639       0.00000000 NULL       0.22507738      -0.10941067       0.06470487
P        3.81138879       2.47057704       6.45915213       0.00000000 NULL      -0.22507738       0.10941067       0.06470487
P        0.08481236       2.49739825       2.12846960       0.00000000 NULL       0.16421757      -0.21109881      -0.29057735
P        1.65753619       2.73418936       7.92749535       0.00000000 NULL      -0.16421757       0.21109881      -0.29057736
P        3.39988473       7.96577695       9.46958188       0.00000000 NULL      -0.16421757       0.21109881       0.29057736
P        1.82716091       7.72898585       3.67055614       0.00000000 NULL       0.16421757      -0.21109881       0.29057736
P        2.42926556      -0.37286025       1.56139250       0.00000000 NULL       0.16767170       0.04149797      -0.00747232
P       -0.68691701       5.60444786       7.36041824       0.00000000 NULL      -0.16767169      -0.04149797      -0.00747232
P        1.05543153      10.83603545      10.03665898       0.00000000 NULL      -0.16767169      -0.04149797       0.00747232
P        4.17161411       4.85872734       4.23763324       0.00000000 NULL       0.16767170       0.04149797       0.00747232
P        3.83928548       4.93551056       0.86195193       0.00000000 NULL      -0.06595092       0.56974394      -0.02274651
P        3.47315971       0.23332558       6.66097767       0.00000000 NULL       0.06595092      -0.56974394      -0.02274651
P       -0.35458839       5.52766464      10.73609955       0.00000000 NULL       0.06595092      -0.56974394       0.02274651
P        0.01153738      10.22984962       4.93707381       0.00000000 NULL      -0.06595092       0.56974394       0.02274651
P        1.23947497       0.53369723      11.23153500       0.00000000 NULL       0.08110735       0.10475787       0.03275318
P        0.50287358       4.69789038       5.43250926       0.00000000 NULL      -0.08110735      -0.10475787       0.03275318
P        2.24522213       9.92947797       0.36651648       0.00000000 NULL      -0.08110735      -0.10475787      -0.03275318
P        2.98182351       5.76528482       6.16554223       0.00000000 NULL       0.08110735       0.10475787      -0.03275318
P        1.86293187       0.55161537       8.15842161       0.00000000 NULL      -0.24398435      -0.38370911      -0.34292412
P       -0.12058332       4.67997223       2.35939587       0.00000000 NULL       0.24398435       0.38370911      -0.34292412
P        1.62176522       9.91155983       3.43962987       0.00000000 NULL       0.24398435       0.38370911       0.34292412
P        3.60528042       5.78320297       9.23865561       0.00000000 NULL      -0.24398435      -0.38370911       0.34292412
32
Lattice="5.551008197052928 -0.06324065806376575 0.0 -2.0796116592511376 10.484527353166119 0.0 0.0 0.0 11.5659647302863" Properties=species:S:1:pos:R:3:initial_magmoms:R:1:castep_labels:S:1:forces:R:3 n_minim_iter=5 energy=-171.99629687878812 stress="0.0022342176030438767 -0.0025542059830064 -4.221336972418165e-12 -0.0025542059830064 -0.004730060604253625 5.605764582740048e-13 -4.221336972418165e-12 5.605764582740048e-13 -0.0018130832271104384" free_energy=-171.99629687878812 pbc="T T T"
P       -0.69673217       8.19619690       1.39964786       0.00000000 NULL      -0.19837701      -0.44561655      -0.17650293
P        0.35281878       7.49897381       7.18263023       0.00000000 NULL       0.19837702       0.44561655      -0.17650293
P        4.16812871       2.22508980      10.16631687       0.00000000 NULL       0.19837701       0.44561655       0.17650293
P        3.11857776       2.92231290       4.38333450       0.00000000 NULL      -0.19837701      -0.44561655       0.17650293
P        6.04427667       2.49820011       6.00141037       0.00000000 NULL       0.00649681      -0.13782624      -0.24824855
P        1.24242980       2.64920258       0.21842800       0.00000000 NULL      -0.00649681       0.13782624      -0.24824855
P       -2.57288012       7.92308659       5.56455436       0.00000000 NULL      -0.00649681       0.13782624       0.24824855
P        2.22896674       7.77208412      11.34753673       0.00000000 NULL       0.00649681      -0.13782624       0.24824855
P       -0.01817787       7.73434198      10.90747324       0.00000000 NULL      -0.22045707       0.13897981      -0.11471679
P       -0.32573552       7.96082873       5.12449088       0.00000000 NULL       0.22045707      -0.13897981      -0.11471679
P        3.48957441       2.68694473       0.65849149       0.00000000 NULL       0.22045707      -0.13897981       0.11471679
P        3.79713206       2.46045797       6.44147385       0.00000000 NULL      -0.22045707       0.13897981       0.11471679
P        0.08469347       2.48706719       2.12180882       0.00000000 NULL       0.15095363      -0.28503948      -0.24018681
P        1.65100480       2.72357616       7.90479118       0.00000000 NULL      -0.15095363       0.28503948      -0.24018681
P        3.38670307       7.93421951       9.44415591       0.00000000 NULL      -0.15095363       0.28503948       0.24018681
P        1.82039174       7.69771054       3.66117355       0.00000000 NULL       0.15095363      -0.28503948       0.24018681
P        2.42104188      -0.37177834       1.55704514       0.00000000 NULL       0.14546348       0.12134131       0.01460343
P       -0.68534360       5.58242170       7.34002750       0.00000000 NULL      -0.14546348      -0.12134131       0.01460343
P        1.05035466      10.79306505      10.00891959       0.00000000 NULL      -0.14546348      -0.12134131      -0.01460343
P        4.15674015       4.83886500       4.22593723       0.00000000 NULL       0.14546348       0.12134131      -0.01460343
P        3.82498609       4.91701277       0.85934075       0.00000000 NULL      -0.14199760       0.59818028      -0.00993903
P        3.46172038       0.23038992       6.64232311       0.00000000 NULL       0.14199760      -0.59818028      -0.00993903
P       -0.35358955       5.50427393      10.70662398       0.00000000 NULL       0.14199760      -0.59818028       0.00993903
P        0.00967617      10.19089678       4.92364162       0.00000000 NULL      -0.14199760       0.59818028       0.00993903
P        1.23525735       0.53184639      11.20055785       0.00000000 NULL       0.02646829       0.02761462       0.02491755
P        0.50044093       4.67879696       5.41757549       0.00000000 NULL      -0.02646829      -0.02761462       0.02491755
P        2.23613919       9.88944031       0.36540688       0.00000000 NULL      -0.02646829      -0.02761462      -0.02491755
P        2.97095562       5.74248974       6.14838924       0.00000000 NULL       0.02646829       0.02761462      -0.02491755
P        1.85552125       0.54846186       8.13494951       0.00000000 NULL      -0.31195170      -0.45622207      -0.32399996
P       -0.11982298       4.66218150       2.35196714       0.00000000 NULL       0.31195170       0.45622207      -0.32399996
P        1.61587529       9.87282484       3.43101522       0.00000000 NULL       0.31195170       0.45622207       0.32399996
P        3.59121952       5.75910521       9.21399759       0.00000000 NULL      -0.31195170      -0.45622207       0.32399996
32
Lattice="5.505653691468102 -0.057136997083180034 0.0 -2.0518598233911987 10.428275320362518 0.0 0.0 0.0 11.567242453338405" Properties=species:S:1:pos:R:3:initial_magmoms:R:1:castep_labels:S:1:forces:R:3 n_minim_iter=6 energy=-172.18872199537128 stress="0.0017289259660696818 -0.0018370763660296528 5.7295888002921855e-12 -0.0018370763660296528 -0.0032864561596496356 -1.105327760479962e-12 5.7295888002921855e-12 -1.105327760479962e-12 -0.002336155308776153" free_energy=-172.18872199537128 pbc="T T T"
P       -0.68949756       8.13489126       1.39001215       0.00000000 NULL      -0.15735388      -0.37804761      -0.14255501
P        0.36453468       7.47895323       7.17363338       0.00000000 NULL       0.15735388       0.37804761      -0.14255501
P        4.14329144       2.23624707      10.17723030       0.00000000 NULL       0.15735388       0.37804761       0.14255501
P        3.08925919       2.89218510       4.39360907       0.00000000 NULL      -0.15735388      -0.37804761       0.14255501
P        6.00361029       2.46620652       5.98643064       0.00000000 NULL      -0.16795959       0.17849602      -0.36583983
P        1.22894034       2.66222565       0.20280941       0.00000000 NULL       0.16795959      -0.17849602      -0.36583983
P       -2.54981642       7.90493181       5.58081182       0.00000000 NULL       0.16795959      -0.17849602       0.36583983
P        2.22485354       7.70891268      11.36443304       0.00000000 NULL      -0.16795959       0.17849602       0.36583983
P       -0.03519336       7.69248762      10.89285649       0.00000000 NULL       0.07865587       0.03089386      -0.04615899
P       -0.28976953       7.92135687       5.10923526       0.00000000 NULL      -0.07865587      -0.03089386      -0.04615899
P        3.48898723       2.67865071       0.67438597       0.00000000 NULL      -0.07865587      -0.03089386       0.04615899
P        3.74356340       2.44978146       6.45800719       0.00000000 NULL       0.07865587       0.03089386       0.04615899
P        0.09504365       2.47762142       2.10306127       0.00000000 NULL       0.08433254      -0.35952094      -0.18026562
P        1.63185329       2.70794775       7.88668250       0.00000000 NULL      -0.08433254       0.35952094      -0.18026562
P        3.35875022       7.89351691       9.46418118       0.00000000 NULL      -0.08433254       0.35952094       0.18026562
P        1.82194059       7.66319058       3.68055996       0.00000000 NULL       0.08433254      -0.35952094       0.18026562
P        2.39668784      -0.36932362       1.56330802       0.00000000 NULL       0.12461607       0.15672881       0.06149256
P       -0.66979090       5.55489279       7.34692925       0.00000000 NULL      -0.12461607      -0.15672881       0.06149256
P        1.05710604      10.74046195      10.00393443       0.00000000 NULL      -0.12461607      -0.15672881      -0.06149256
P        4.12358477       4.81624554       4.22031320       0.00000000 NULL       0.12461607       0.15672881      -0.06149256
P        3.78571897       4.93297806       0.85769629       0.00000000 NULL      -0.03131321       0.21918224       0.04508438
P        3.44683166       0.19545411       6.64131752       0.00000000 NULL       0.03131321      -0.21918224       0.04508438
P       -0.33192509       5.43816027      10.70954616       0.00000000 NULL       0.03131321      -0.21918224      -0.04508438
P        0.00696221      10.17568422       4.92592494       0.00000000 NULL      -0.03131321       0.21918224      -0.04508438
P        1.22103036       0.51877386      11.20081300       0.00000000 NULL       0.08013621       0.24216511       0.06664092
P        0.50586658       4.66679531       5.41719178       0.00000000 NULL      -0.08013621      -0.24216511       0.06664092
P        2.23276351       9.85236447       0.36642945       0.00000000 NULL      -0.08013621      -0.24216511      -0.06664092
P        2.94792730       5.70434302       6.15005068       0.00000000 NULL       0.08013621       0.24216511      -0.06664092
P        1.81723731       0.54248523       8.11015195       0.00000000 NULL      -0.16109843      -0.66170001      -0.01593895
P       -0.09034037       4.64308394       2.32653072       0.00000000 NULL       0.16109843       0.66170000      -0.01593895
P        1.63655656       9.82865310       3.45709050       0.00000000 NULL       0.16109843       0.66170000       0.01593895
P        3.54413424       5.72805439       9.24071173       0.00000000 NULL      -0.16109843      -0.66170000       0.01593895
32
Lattice="5.462270489841947 -0.10492219032448041 0.0 -2.128087922776325 10.44641688405947 0.0 0.0 0.0 11.600426065436833" Properties=species:S:1:pos:R:3:initial_magmoms:R:1:castep_labels:S:1:forces:R:3 n_minim_iter=7 energy=-172.23526799798535 stress="-0.002382304290177387 -0.0059501204090556615 -5.564655710961205e-12 -0.0059501204090556615 -0.0010749842614751956 -2.0805600929580914e-13 -5.564655710961205e-12 -2.0805600929580914e-13 0.00031230841439078755" free_energy=-172.23526799798535 pbc="T T T"
P       -0.75915509       8.12999939       1.38938848       0.00000000 NULL      -0.22035713      -0.47714167      -0.23439237
P        0.29815845       7.48716484       7.18960151       0.00000000 NULL       0.22035713       0.47714167      -0.23439237
P        4.09333766       2.21149531      10.21103759       0.00000000 NULL       0.22035713       0.47714167       0.23439236
P        3.03602412       2.85432986       4.41082455       0.00000000 NULL      -0.22035713      -0.47714167       0.23439236
P        5.92642777       2.40679096       5.98575608       0.00000000 NULL      -0.01505436       0.23976807      -0.31111443
P        1.20293401       2.65903420       0.18554305       0.00000000 NULL       0.01505436      -0.23976807      -0.31111443
P       -2.59224519       7.93470374       5.61466998       0.00000000 NULL       0.01505436      -0.23976807       0.31111443
P        2.13124856       7.68246050      11.41488302       0.00000000 NULL      -0.01505436       0.23976807       0.31111443
P       -0.10440923       7.68450077      10.91391936       0.00000000 NULL       0.06551781       0.11486038       0.11670876
P       -0.35658740       7.93266347       5.11370633       0.00000000 NULL      -0.06551781      -0.11486038       0.11670876
P        3.43859180       2.65699394       0.68650670       0.00000000 NULL      -0.06551781      -0.11486038      -0.11670876
P        3.69076998       2.40883123       6.48671973       0.00000000 NULL       0.06551781       0.11486038      -0.11670876
P        0.07415071       2.47754608       2.09724415       0.00000000 NULL       0.09389362      -0.15803498      -0.17732332
P        1.59294058       2.69320127       7.89745719       0.00000000 NULL      -0.09389362       0.15803498      -0.17732332
P        3.26003187       7.86394862       9.50318191       0.00000000 NULL      -0.09389362       0.15803498       0.17732332
P        1.74124199       7.64829343       3.70296888       0.00000000 NULL       0.09389362      -0.15803498       0.17732332