11
Lattice="3.75007 -5.950449046720893e-16 -5.612948904296096e-16 0.9394190283815842 7.253782054812138 -1.762835018795275e-15 1.5611345609642466 3.4839685236054736 9.113886967100774" Properties=species:S:1:pos:R:3:initial_magmoms:R:1:castep_labels:S:1 n_minim_iter=1 pbc="T T T"
P        5.54844520       8.95005338       7.90584854       0.00000000 NULL
P        2.64313373       5.35950531       4.74075874       0.00000000 NULL
P        3.33254810       6.55628486       3.23951107       0.00000000 NULL
P        3.64995919       6.79477900       5.89393521       0.00000000 NULL
P        2.44728928       8.35092502       5.40044466       0.00000000 NULL
P        4.09994476       3.09297102       3.63409407       0.00000000 NULL
P        4.76593517       7.63149824       4.19026994       0.00000000 NULL
P        1.42662636       5.81038899       3.01172223       0.00000000 NULL
P        4.68624685       5.05489872       5.75621344       0.00000000 NULL
P        4.05042025       4.16726115       1.92468705       0.00000000 NULL
P        3.84490015       5.82674641       8.61141104       0.00000000 NULL
11
Lattice="3.764032856642052 0.0003143615220138018 0.0022699219387834098 0.9435248939220234 7.272471173330954 -0.0001547513782028884 1.5727559268842597 3.49212901008743 9.127695717431193" Properties=species:S:1:pos:R:3:initial_magmoms:R:1:castep_labels:S:1 n_minim_iter=2 pbc="T T T"
P        5.57466419       8.97279259       7.91958782       0.00000000 NULL
P        2.65636585       5.37270517       4.74867961       0.00000000 NULL
P        3.34732188       6.57325677       3.24510871       0.00000000 NULL
P        3.66777885       6.81201553       5.90437495       0.00000000 NULL
P        2.46039331       8.37250626       5.40930605       0.00000000 NULL
P        4.11769535       3.10076971       3.64169210       0.00000000 NULL
P        4.78681548       7.65132466       4.19844700       0.00000000 NULL
P        1.43415952       5.82481768       3.01598584       0.00000000 NULL
P        4.70759024       5.06726036       5.76729075       0.00000000 NULL
P        4.06703243       4.17819861       1.92939070       0.00000000 NULL
P        3.86495066       5.84106662       8.62552808       0.00000000 NULL
11
Lattice="4.15152471022456 0.008727378342628092 0.06700505436034274 1.0568676878001217 7.778455733016087 -0.005490960727751558 1.8992101771253702 3.7105621911153164 9.489907390093368" Properties=species:S:1:pos:R:3:initial_magmoms:R:1:castep_labels:S:1 n_minim_iter=3 pbc="T T T"
P        6.30519707       9.58654643       8.28325575       0.00000000 NULL
P        3.02544749       5.72847992       4.95771290       0.00000000 NULL
P        3.75785822       7.03200148       3.39320432       0.00000000 NULL
P        4.16476060       7.27704306       6.18063735       0.00000000 NULL
P        2.82603714       8.95583919       5.64215946       0.00000000 NULL
P        4.61189161       3.31074696       3.84533577       0.00000000 NULL
P        5.36753807       8.18708237       4.41645618       0.00000000 NULL
P        1.64365447       6.21436760       3.12700042       0.00000000 NULL
P        5.30237370       5.39969518       6.06252438       0.00000000 NULL
P        4.52860696       4.47386239       2.05683786       0.00000000 NULL
P        4.42491217       6.22597638       8.99796058       0.00000000 NULL
11
Lattice="4.182719518686486 0.001670902428693716 0.07746812393001251 1.0510328255978498 7.852805041764787 -0.008411038619806402 1.9310693122955707 3.737221292157867 9.318131758582203" Properties=species:S:1:pos:R:3:initial_magmoms:R:1:castep_labels:S:1 n_minim_iter=4 pbc="T T T"
P        6.35760300       9.66704171       8.13498229       0.00000000 NULL
P        3.05101711       5.77384443       4.87053935       0.00000000 NULL
P        3.78136123       7.09462192       3.33044165       0.00000000 NULL
P        4.20090717       7.33695887       6.07627386       0.00000000 NULL
P        2.84498544       9.04040471       5.54575290       0.00000000 NULL
P        4.65068841       3.33309288       3.78502282       0.00000000 NULL
P        5.40367730       8.25652729       4.34627127       0.00000000 NULL
P        1.64930742       6.26851481       3.06617557       0.00000000 NULL
P        5.34989195       5.43390915       5.96761621       0.00000000 NULL
P        4.56137132       4.50881544       2.03291327       0.00000000 NULL
P        4.46866063       6.26952954       8.83475315       0.00000000 NULL
11
Lattice="4.233962978528829 -0.013544956510965175 0.1040738394174346 1.034437550504578 8.073811296437837 -0.029200814559139476 2.002926063291981 3.804371381095917 8.791008950241201" Properties=species:S:1:pos:R:3:initial_magmoms:R:1:castep_labels:S:1 n_minim_iter=5 pbc="T T T"
P        6.45701091       9.89838514       7.66699924       0.00000000 NULL
P        3.09950107       5.90376577       4.59567306       0.00000000 NULL
P        3.82113190       7.28057886       3.12644738       0.00000000 NULL
P        4.27154667       7.51014483       5.74660170       0.00000000 NULL
P        2.88054623       9.28623257       5.23792889       0.00000000 NULL
P        4.72141401       3.39872939       3.59384296       0.00000000 NULL
P        5.46550339       8.46247186       4.11455668       0.00000000 NULL
P        1.65452676       6.42675194       2.87246983       0.00000000 NULL
P        5.43919535       5.53272866       5.66583599       0.00000000 NULL
P        4.61846434       4.61594419       1.94523305       0.00000000 NULL
P        4.55502680       6.39266032       8.32811319       0.00000000 NULL
11
Lattice="4.246735310376388 -0.014645317879048412 0.10643333977544213 1.0355086745179412 8.378669211654742 -0.1644515947437381 2.0129551891115183 3.7797918826223946 8.48125350969104" Properties=species:S:1:pos:R:3:initial_magmoms:R:1:castep_labels:S:1 n_minim_iter=6 pbc="T T T"
P        6.48375809      10.12301811       7.27404690       0.00000000 NULL
P        3.10948569       6.02913597       4.36989087       0.00000000 NULL
P        3.83274097       7.50643647       2.89542135       0.00000000 NULL
P        4.28960540       7.68363110       5.47832423       0.00000000 NULL
P        2.88768011       9.55541433       4.95875576       0.00000000 NULL
P        4.73965640       3.45433750       3.44801637       0.00000000 NULL
P        5.48278743       8.71160270       3.85982215       0.00000000 NULL
P        1.64373552       6.61015341       2.67321327       0.00000000 NULL
P        5.45507467       5.61507767       5.43711902       0.00000000 NULL
P        4.63986120       4.76069477       1.81885097       0.00000000 NULL
P        4.57174151       6.47339124       7.97698632       0.00000000 NULL
11
Lattice="4.188744451954001 -0.010997460013662955 0.1018765673716004 1.0280376273236906 8.309857435142142 -0.14360319016577394 1.9811284712249133 3.775450320385579 8.244853036000652" Properties=species:S:1:pos:R:3:initial_magmoms:R:1:castep_labels:S:1 n_minim_iter=7 pbc="T T T"
P        6.39923980      10.05968837       7.07510584       0.00000000 NULL
P        3.06775508       5.99298075       4.25323039       0.00000000 NULL
P        3.78407370       7.45694892       2.81418533       0.00000000 NULL
P        4.23316275       7.64069790       5.34355498       0.00000000 NULL
P        2.85275095       9.50384039       4.84864956       0.00000000 NULL
P        4.67625106       3.44241523       3.35672181       0.00000000 NULL
P        5.41118020       8.66003550       3.76290261       0.00000000 NULL
P        1.61476557       6.56112959       2.60110858       0.00000000 NULL
P        5.37447029       5.57901089       5.30088352       0.00000000 NULL
P        4.58578996       4.73005546       1.77768203       0.00000000 NULL
P        4.51022969       6.45037291       7.75180850       0.00000000 NULL
11
Lattice="4.233807394046747 -0.007668769530795554 0.10988276948733994 1.0457649178989143 8.39099815471888 -0.16715689250432306 2.0224380975266794 3.7832936176853798 8.29365758750564" Properties=species:S:1:pos:R:3:initial_magmoms:R:1:castep_labels:S:1 n_minim_iter=8 pbc="T T T"
P        6.49147080      10.13440654       7.10249990       0.00000000 NULL
P        3.11507825       6.03567461       4.26969130       0.00000000 NULL
P        3.83612853       7.52316570       2.81223663       0.00000000 NULL
P        4.29569055       7.69848076       5.36985666       0.00000000 NULL
P        2.90190762       9.58417555       4.86466687       0.00000000 NULL
P        4.73737480       3.46549972       3.38090896       0.00000000 NULL
P        5.48444338       8.73737663       3.77110392       0.00000000 NULL
P        1.63906493       6.61368808       2.59852250       0.00000000 NULL
P        5.44459945       5.61298331       5.33535975       0.00000000 NULL
P        4.64534771       4.77559576       1.78256362       0.00000000 NULL
P        4.58112559       6.48906232       7.79081447       0.00000000 NULL
11
Lattice="4.225279520911666 -0.007633649493311405 0.11148754010550264 1.0436965583224145 8.386323803879895 -0.16849512709934233 2.0228207297560803 3.7788724413390202 8.268214355102522" Properties=species:S:1:pos:R:3:initial_magmoms:R:1:castep_labels:S:1 n_minim_iter=9 pbc="T T T"
P        6.48279080      10.12476595       7.07858061       0.00000000 NULL
P        3.11123189       6.03023519       4.25578468       0.00000000 NULL
P        3.82991493       7.51870211       2.79887515       0.00000000 NULL
P        4.28992234       7.69297436       5.35674797       0.00000000 NULL
P        2.89928549       9.58080942       4.85340730       0.00000000 NULL
P        4.73052271       3.46281232       3.37356106       0.00000000 NULL
P        5.47551810       8.73371546       3.75874511       0.00000000 NULL
P        1.63387125       6.60752738       2.58633228       0.00000000 NULL
P        5.43388854       5.60471942       5.32404325       0.00000000 NULL
P        4.63968602       4.77314015       1.77803889       0.00000000 NULL
P        4.57738407       6.48441680       7.76460654       0.00000000 NULL
11
Lattice="4.218271415358573 -0.007443859277948754 0.1159951334686437 1.04230809068018 8.3888266333892 -0.17297172394483618 2.0310345294333945 3.773087431169861 8.243076346156313" Properties=species:S:1:pos:R:3:initial_magmoms:R:1:castep_labels:S:1 n_minim_iter=10 pbc="T T T"
P        6.48313541      10.11848244       7.05322555       0.00000000 NULL
P        3.11253836       6.02689968       4.24109686       0.00000000 NULL
P        3.82750337       7.51972517       2.78116156       0.00000000 NULL
P        4.29035577       7.69132528       5.34649618       0.00000000 NULL
P        2.90278059       9.58556657       4.84407620       0.00000000 NULL
P        4.72916404       3.46120998       3.36983981       0.00000000 NULL
P        5.47210136       8.73765196       3.74559254       0.00000000 NULL
P        1.62908062       6.60387923       2.56962718       0.00000000 NULL
P        5.42748634       5.59529758       5.31783323       0.00000000 NULL
P        4.63969910       4.77469729       1.77443941       0.00000000 NULL
P        4.58319397       6.48204239       7.73683861       0.00000000 NULL
11
Lattice="4.172458683883091 -0.00846577050466238 0.14744117972400186 1.0288549890025775 8.370135303907421 -0.1848633664139142 2.0874376275481605 3.738969045390567 8.15646680759647" Properties=species:S:1:pos:R:3:initial_magmoms:R:1:castep_labels:S:1 n_minim_iter=11 pbc="T T T"
P        6.48222593      10.05281646       6.97488933       0.00000000 NULL
P        3.12033189       5.99191313       4.19527715       0.00000000 NULL
P        3.80789934       7.49990982       2.71186682       0.00000000 NULL
P        4.29159864       7.65911581       5.33852610       0.00000000 NULL
P        2.92430168       9.58225126       4.83835314       0.00000000 NULL
P        4.72028140       3.44249874       3.38088207       0.00000000 NULL
P        5.44667585       8.73259234       3.71299392       0.00000000 NULL
P        1.60042126       6.55903000       2.49913260       0.00000000 NULL
P        5.38794988       5.52509143       5.33145425       0.00000000 NULL
P        4.63639940       4.76515423       1.77722429       0.00000000 NULL
P        4.62122581       6.45556632       7.63745329       0.00000000 NULL
11
Lattice="4.137282906941732 -0.011172549889663614 0.1695795030930346 1.0148074693759828 8.286376614364174 -0.10127648089573107 2.1240827359212955 3.795992209994127 8.474634371714675" Properties=species:S:1:pos:R:3:initial_magmoms:R:1:castep_labels:S:1 n_minim_iter=12 pbc="T T T"
P        6.46521160      10.02123119       7.33388845       0.00000000 NULL
P        3.12203282       5.98309766       4.40401780       0.00000000 NULL
P        3.77849135       7.46474128       2.85380083       0.00000000 NULL
P        4.28050413       7.64151104       5.65094494       0.00000000 NULL
P        2.94191902       9.56009692       5.13806298       0.00000000 NULL
P        4.71492508       3.44540830       3.56917320       0.00000000 NULL
P        5.41841547       8.71546083       3.94292385       0.00000000 NULL
P        1.58021755       6.49735423       2.61432408       0.00000000 NULL
P        5.34470433       5.49781881       5.63472228       0.00000000 NULL
P        4.63896219       4.73203396       1.90060277       0.00000000 NULL
P        4.64589847       6.48805007       7.93954925       0.00000000 NULL
11
Lattice="4.0602405240762725 -0.007766451777274897 0.17137368336330905 1.0020962434279093 8.213902571842596 -0.08843517262893792 2.0995352390061597 3.77776081038636 8.257938833765541" Properties=species:S:1:pos:R:3:initial_magmoms:R:1:castep_labels:S:1 n_minim_iter=13 pbc="T T T"
P        6.36295209       9.94923166       7.15859873       0.00000000 NULL
P        3.07509161       5.94289539       4.29914236       0.00000000 NULL
P        3.71636883       7.40853158       2.78747696       0.00000000 NULL
P        4.21320565       7.58426533       5.51886361       0.00000000 NULL
P        2.90335100       9.48915633       5.02204979       0.00000000 NULL
P        4.63619806       3.42444430       3.48803728       0.00000000 NULL
P        5.32835148       8.65178568       3.85739067       0.00000000 NULL
P        1.55637307       6.44251358       2.54716875       0.00000000 NULL
P        5.25410665       5.45937304       5.50620218       0.00000000 NULL
P        4.56380474       4.69313443       1.86402160       0.00000000 NULL
P        4.57690883       6.44772161       7.73672060       0.00000000 NULL
11
Lattice="4.090581982951818 -0.002714047209865442 0.17915178274471752 1.0194698885602045 8.298566787170117 -0.09891989239069846 2.1357634259848335 3.804298698992085 8.31889589224528" Properties=species:S:1:pos:R:3:initial_magmoms:R:1:castep_labels:S:1 n_minim_iter=14 pbc="T T T"
P        6.43581226      10.04661994       7.21009109       0.00000000 NULL
P        3.11380662       6.00000643       4.32889209       0.00000000 NULL
P        3.75658342       7.48675390       2.80072622       0.00000000 NULL
P        4.26367402       7.65594143       5.56022398       0.00000000 NULL
P        2.94727054       9.58182654       5.05320157       0.00000000 NULL
P        4.68267762       3.45699984       3.51991651       0.00000000 NULL
P        5.38578650       8.74245774       3.88327230       0.00000000 NULL
P        1.58029625       6.50308923       2.55594353       0.00000000 NULL
P        5.30859088       5.50910265       5.55345601       0.00000000 NULL
P        4.60920601       4.74324670       1.87721455       0.00000000 NULL
P        4.63436592       6.50564063       7.79039444       0.00000000 NULL
11
Lattice="4.082149368524404 0.0008203235491711886 0.18160811577169586 1.0241940128391778 8.311163047976903 -0.09606620679676373 2.141506234043014 3.8142070797625136 8.30515330039359" Properties=species:S:1:pos:R:3:initial_magmoms:R:1:castep_labels:S:1 n_minim_iter=15 pbc="T T T"
P        6.43656037      10.06897626       7.20331158       0.00000000 NULL
P        3.11631932       6.01364018       4.32432028       0.00000000 NULL
P        3.75624491       7.50336580       2.79708416       0.00000000 NULL
P        4.26501911       7.67114659       5.55647133       0.00000000 NULL
P        2.95427533       9.60064445       5.04920687       0.00000000 NULL
P        4.67962221       3.46630703       3.51883077       0.00000000 NULL
P        5.38474850       8.76284564       3.88184126       0.00000000 NULL
P        1.58357766       6.51243408       2.54977585       0.00000000 NULL
P        5.30501842       5.52123031       5.55140683       0.00000000 NULL
P        4.60756254       4.75338599       1.87746244       0.00000000 NULL
P        4.63734155       6.52176274       7.77661365       0.00000000 NULL
11
Lattice="4.074300062113858 0.00477791324825621 0.18421680787606495 1.0298828947368113 8.326331981063893 -0.09189696341795374 2.1482553398983835 3.8270813251254796 8.297965213926972" Properties=species:S:1:pos:R:3:initial_magmoms:R:1:castep_labels:S:1 n_minim_iter=16 pbc="T T T"
P        6.43942586      10.09644393       7.20359561       0.00000000 NULL
P        3.12013259       6.03032519       4.32387440       0.00000000 NULL
P        3.75717081       7.52340460       2.79650590       0.00000000 NULL
P        4.26784053       7.69000793       5.55822519       0.00000000 NULL
P        2.96292732       9.62361956       5.05036984       0.00000000 NULL
P        4.67777241       3.47769090       3.52101422       0.00000000 NULL
P        5.38547423       8.78743949       3.88469052       0.00000000 NULL
P        1.58779335       6.52402130       2.54609708       0.00000000 NULL
P        5.30278444       5.53638370       5.55463648       0.00000000 NULL
P        4.60734421       4.76568515       1.87973258       0.00000000 NULL
P        4.64197797       6.54189115       7.76914859       0.00000000 NULL
11
Lattice="4.051703514483207 0.015883457376828718 0.1909061492792781 1.0457038180499214 8.363359546893967 -0.07688834885039898 2.165423290403305 3.8649044054543076 8.286721133975858" Properties=species:S:1:pos:R:3:initial_magmoms:R:1:castep_labels:S:1 n_minim_iter=17 pbc="T T T"
P        6.44525034      10.17050601       7.21454357       0.00000000 NULL
P        3.12979306       6.07539821       4.32865668       0.00000000 NULL
P        3.75886223       7.57611743       2.80037550       0.00000000 NULL
P        4.27416875       7.74057898       5.57062105       0.00000000 NULL
P        2.98579200       9.68399988       5.06141304       0.00000000 NULL
P        4.67117967       3.50914994       3.53081446       0.00000000 NULL
P        5.38614024       8.85266522       3.89908422       0.00000000 NULL
P        1.59904774       6.55314567       2.54070181       0.00000000 NULL
P        5.29494201       5.57812967       5.56997593       0.00000000 NULL
P        4.60561544       4.79799586       1.88893168       0.00000000 NULL
P        4.65289555       6.59809480       7.75749623       0.00000000 NULL
11
Lattice="4.028245343716153 0.027199644136232055 0.19694847575534544 1.061716345937315 8.388812594029067 -0.055937078543189675 2.180855791097098 3.904900816724933 8.291924722956233" Properties=species:S:1:pos:R:3:initial_magmoms:R:1:castep_labels:S:1 n_minim_iter=18 pbc="T T T"
P        6.44883231      10.23732153       7.24473394       0.00000000 NULL
P        3.13878340       6.11630401       4.34478884       0.00000000 NULL
P        3.75972260       7.62156003       2.81442835       0.00000000 NULL
P        4.27883529       7.78525946       5.59713975       0.00000000 NULL
P        3.00737246       9.73502468       5.08673729       0.00000000 NULL
P        4.66289969       3.53903865       3.54798531       0.00000000 NULL
P        5.38548388       8.90979445       3.92573630       0.00000000 NULL
P        1.61004231       6.57431121       2.54374950       0.00000000 NULL
P        5.28545542       5.61744182       5.59772428       0.00000000 NULL
P        4.60275370       4.82559516       1.90354133       0.00000000 NULL
P        4.66167170       6.65262974       7.76281720       0.00000000 NULL
11
Lattice="4.006413180883021 0.03827674677441809 0.20374613280621037 1.0776737385033281 8.411937141783865 -0.034606293601194306 2.198578769864828 3.9439471915380606 8.297883936394728" Properties=species:S:1:pos:R:3:initial_magmoms:R:1:castep_labels:S:1 n_minim_iter=19 pbc="T T T"
P        6.45592353      10.30131363       7.27695415       0.00000000 NULL
P        3.14989981       6.15567730       4.36205070       0.00000000 NULL
P        3.76228904       7.66554409       2.82996985       0.00000000 NULL
P        4.28579394       7.82742532       5.62452634       0.00000000 NULL
P        3.03022893       9.78307169       5.11257329       0.00000000 NULL
P        4.65672338       3.56755188       3.56618530       0.00000000 NULL
P        5.38724111       8.96471874       3.95404760       0.00000000 NULL
P        1.62202268       6.59256281       2.54686770       0.00000000 NULL
P        5.27923067       5.65524805       5.62678067       0.00000000 NULL
P        4.60161374       4.85187383       1.91883328       0.00000000 NULL
P        4.67323948       6.70549516       7.76937533       0.00000000 NULL
11
Lattice="3.985425001216897 0.04897238543005668 0.21095966073136768 1.09310468683111 8.433674365623036 -0.013239693053718046 2.2173093999361266 3.9821284410234634 8.30424391574328" Properties=species:S:1:pos:R:3:initial_magmoms:R:1:castep_labels:S:1 n_minim_iter=20 pbc="T T T"
P        6.46436164      10.36314066       7.31022196       0.00000000 NULL
P        3.16191411       6.19392133       4.37997726       0.00000000 NULL
P        3.76544855       7.70860039       2.84641818       0.00000000 NULL
P        4.29350215       7.86768750       5.65213098       0.00000000 NULL
P        3.05300108       9.82904321       5.13840185       0.00000000 NULL
P        4.65136063       3.59485981       3.58489340       0.00000000 NULL
P        5.38974733       9.01813596       3.98325778       0.00000000 NULL
P        1.63418370       6.60870499       2.54978436       0.00000000 NULL
P        5.27459881       5.69182085       5.65641144       0.00000000 NULL
P        4.60093043       4.87711791       1.93426441       0.00000000 NULL
P        4.68577206       6.75698306       7.77659060       0.00000000 NULL
11
Lattice="3.9634613722513774 0.059147833357350674 0.21829086849673718 1.1072850702885293 8.455152191757326 0.008293980953462683 2.2354366772765277 4.0202040154541425 8.312167050146655" Properties=species:S:1:pos:R:3:initial_magmoms:R:1:castep_labels:S:1 n_minim_iter=21 pbc="T T T"
P        6.47053008      10.42421007       7.34528892       0.00000000 NULL
P        3.17294100       6.23190474       4.39911979       0.00000000 NULL
P        3.76718222       7.75163550       2.86407053       0.00000000 NULL
P        4.29949229       7.90722902       5.68062708       0.00000000 NULL
P        3.07373600       9.87441721       5.16506056       0.00000000 NULL
P        4.64439721       3.62146067       3.60433281       0.00000000 NULL
P        5.39006572       9.07120829       4.01373749       0.00000000 NULL
P        1.64542890       6.62383792       2.55299096       0.00000000 NULL
P        5.26868841       5.72794641       5.68711740       0.00000000 NULL
P        4.59830210       4.90182630       1.94987483       0.00000000 NULL
P        4.69646499       6.80808264       7.78550181       0.00000000 NULL
11
Lattice="3.9390637385354377 0.06861578443364069 0.22547659913408505 1.1194872031161256 8.47770968395669 0.02947275454667833 2.251539840987597 4.058188627096693 8.320539987563654" Properties=species:S:1:pos:R:3:initial_magmoms:R:1:castep_labels:S:1 n_minim_iter=22 pbc="T T T"
P        6.47132783      10.48543930       7.38047725       0.00000000 NULL
P        3.18136021       6.27023206       4.41854154       0.00000000 NULL
P        3.76567475       7.79551502       2.88198807       0.00000000 NULL
P        4.30162123       7.94683066       5.70878225       0.00000000 NULL
P        3.09067611       9.92039641       5.19144339       0.00000000 NULL
P        4.63379522       3.64758973       3.62367507       0.00000000 NULL
P        5.38564346       9.12488714       4.04428612       0.00000000 NULL
P        1.65476345       6.63886748       2.55580376       0.00000000 NULL
P        5.25904842       5.76389970       5.71772162       0.00000000 NULL
P        4.59168463       4.92638657       1.96495145       0.00000000 NULL
P        4.70289874       6.85914613       7.79483577       0.00000000 NULL
11
Lattice="3.9136332730627377 0.07719114229427454 0.23332223634270632 1.1297040560808416 8.50344673936787 0.05044503993227565 2.2679875737015145 4.096969044876778 8.331179311770066" Properties=species:S:1:pos:R:3:initial_magmoms:R:1:castep_labels:S:1 n_minim_iter=23 pbc="T T T"
P        6.47012240      10.54916301       7.41820270       0.00000000 NULL
P        3.18898630       6.31034110       4.43953468       0.00000000 NULL
P        3.76241064       7.84198646       2.90127908       0.00000000 NULL
P        4.30224953       7.98832741       5.73833132       0.00000000 NULL
P        3.10557918       9.96937453       5.21901117       0.00000000 NULL
P        4.62173938       3.67403519       3.64438326       0.00000000 NULL
P        5.37873802       9.18116427       4.07652109       0.00000000 NULL
P        1.66302286       6.65540854       2.55891400       0.00000000 NULL
P        5.24837122       5.80077904       5.75017366       0.00000000 NULL
P        4.58276114       4.95171838       1.98068038       0.00000000 NULL
P        4.70809320       6.91161412       7.80685275       0.00000000 NULL
11
Lattice="3.88650134786922 0.08487787821127071 0.24148189804896517 1.1377758148083812 8.526959792445572 0.07083592596495109 2.28366461288735 4.13358894300271 8.341278914077876" Properties=species:S:1:pos:R:3:initial_magmoms:R:1:castep_labels:S:1 n_minim_iter=24 pbc="T T T"
P        6.46522087      10.60837887       7.45537519       0.00000000 NULL
P        3.19496287       6.34810232       4.46031671       0.00000000 NULL
P        3.75658075       7.88585177       2.92054017       0.00000000 NULL
P        4.30013762       8.02645939       5.76693066       0.00000000 NULL
P        3.11755648      10.01479560       5.24569033       0.00000000 NULL
P        4.60712353       3.69854025       3.66485216       0.00000000 NULL
P        5.36809257       9.23398989       4.10849216       0.00000000 NULL
P        1.66971828       6.66923064       2.56127891       0.00000000 NULL
P        5.23523917       5.83472440       5.78212778       0.00000000 NULL
P        4.57056077       4.97455466       1.99606164       0.00000000 NULL
P        4.71061764       6.96081810       7.81873029       0.00000000 NULL
11
Lattice="3.827364978527967 0.09973739018034757 0.26434313156296463 1.1517045763077634 8.594780580919691 0.11543342665390408 2.3284117616506848 4.219399409299435 8.381102924800958" Properties=species:S:1:pos:R:3:initial_magmoms:R:1:castep_labels:S:1 n_minim_iter=25 pbc="T T T"
P        6.46139474      10.75479942       7.55771560       0.00000000 NULL
P        3.21359158       6.44238110       4.51807196       0.00000000 NULL
P        3.74468702       7.99782876       2.97114504       0.00000000 NULL
P        4.29959393       8.12158760       5.84411262       0.00000000 NULL
P        3.14654011      10.13169362       5.31599721       0.00000000 NULL
P        4.57841811       3.75650853       3.72199636       0.00000000 NULL
P        5.34616688       9.36680422       4.19188989       0.00000000 NULL
P        1.68518796       6.70753363       2.56859228       0.00000000 NULL
P        5.21238974       5.91559617       5.86989380       0.00000000 NULL
P        4.54396979       5.03041369       2.03640525       0.00000000 NULL
P        4.72420419       7.07909319       7.86301303       0.00000000 NULL
11
Lattice="3.7273678593471273 0.11225338710670033 0.28227979798668285 1.1508643566213623 8.563910864277402 0.15143703958764484 2.3420032761918077 4.247867856880972 8.334086969202078" Properties=species:S:1:pos:R:3:initial_magmoms:R:1:castep_labels:S:1 n_minim_iter=26 pbc="T T T"
P        6.38287863      10.76857062       7.57535739       0.00000000 NULL
P        3.19872458       6.46187445       4.52787543       0.00000000 NULL
P        3.69059583       8.01770764       2.98485264       0.00000000 NULL
P        4.24542049       8.11436118       5.85372696       0.00000000 NULL
P        3.13508486      10.12618368       5.32496237       0.00000000 NULL
P        4.49630070       3.76947786       3.73695749       0.00000000 NULL
P        5.26018397       9.39007093       4.22539940       0.00000000 NULL
P        1.67971133       6.66075616       2.53861535       0.00000000 NULL
P        5.12875646       5.91981216       5.89479755       0.00000000 NULL
P        4.46439142       5.02072504       2.04781589       0.00000000 NULL
P        4.67963089       7.10889192       7.82095328       0.00000000 NULL
11
Lattice="3.741768687394523 0.1075450204351118 0.29352128195826127 1.1453644449456792 8.667602920028008 0.15956303063839714 2.370944454182987 4.302948809656815 8.437546917300418" Properties=species:S:1:pos:R:3:initial_magmoms:R:1:castep_labels:S:1 n_minim_iter=27 pbc="T T T"
P        6.41726431      10.89757124       7.68397428       0.00000000 NULL
P        3.21924651       6.54141323       4.59164348       0.00000000 NULL
P        3.70308076       8.11726711       3.02905340       0.00000000 NULL
P        4.26750500       8.21053956       5.93582375       0.00000000 NULL
P        3.15054589      10.25070013       5.39822661       0.00000000 NULL
P        4.51967660       3.81033513       3.79366324       0.00000000 NULL
P        5.28003753       9.50375289       4.29057721       0.00000000 NULL
P        1.68674860       6.73805988       2.56955651       0.00000000 NULL