12
Lattice="5.039080000000001 3.0934684190008954e-16 3.7948583027365687e-16 -0.1875870818130017 6.085699571523139 -1.1458607124675e-15 -2.3886568075397414 -0.7134272421949494 8.579340952659956" Properties=species:S:1:pos:R:3:initial_magmoms:R:1:castep_labels:S:1 n_minim_iter=1 pbc="T T T"
P        0.36290553       4.81780192       0.92863559       0.00000000 NULL
P       -0.73593910       2.69952728       8.31624688       0.00000000 NULL
P       -0.72077710       5.16114805       8.30175981       0.00000000 NULL
P        0.58669512       5.14822699       6.78669367       0.00000000 NULL
P        0.55175148       2.66920025       6.72258454       0.00000000 NULL
P        2.57768261       4.24218348       6.05738448       0.00000000 NULL
P       -0.12597597       0.26488028       2.15059026       0.00000000 NULL
P       -0.08917269       0.88551757       7.43234312       0.00000000 NULL
P        2.58382268      -0.63593623       7.71430917       0.00000000 NULL
P        2.38893340       2.23096779       5.90079692       0.00000000 NULL
P        3.59068267       3.75960145       2.93527051       0.00000000 NULL
P        1.08610877       3.72001180       8.37309188       0.00000000 NULL
12
Lattice="5.057729450092415 3.386876901138582e-05 -0.003526250790268159 -0.18824043138617402 6.109508239546948 0.0005052431759448026 -2.403505590777335 -0.7157073269650525 8.60387387469191" Properties=species:S:1:pos:R:3:initial_magmoms:R:1:castep_labels:S:1 n_minim_iter=2 pbc="T T T"
P        0.36342162       4.83657453       0.93168403       0.00000000 NULL
P       -0.74487465       2.71039000       8.33943976       0.00000000 NULL
P       -0.72913104       5.18188727       8.32509141       0.00000000 NULL
P        0.58412035       5.16885157       6.80412695       0.00000000 NULL
P        0.54917416       2.68002440       6.73976925       0.00000000 NULL
P        2.58323545       4.25933167       6.07155332       0.00000000 NULL
P       -0.12800012       0.26590065       2.15649510       0.00000000 NULL
P       -0.09472424       0.88940707       7.45235369       0.00000000 NULL
P        2.58795100      -0.63763685       7.73309666       0.00000000 NULL
P        2.39376253       2.23984942       5.91489094       0.00000000 NULL
P        3.60210403       3.77474507       2.94075604       0.00000000 NULL
P        1.08441668       3.73507909       8.39537230       0.00000000 NULL
12
Lattice="5.339596855824527 -0.0007342506776770961 -0.05409162991660678 -0.19966101377166762 6.459990337221262 0.006438176243997063 -2.623100065981621 -0.7507166226365001 8.964966428359826" Properties=species:S:1:pos:R:3:initial_magmoms:R:1:castep_labels:S:1 n_minim_iter=3 pbc="T T T"
P        0.37022207       5.11256625       0.97608426       0.00000000 NULL
P       -0.87628305       2.86813034       8.68063569       0.00000000 NULL
P       -0.85221695       5.48542077       8.66774238       0.00000000 NULL
P        0.54757362       5.47083709       7.05965799       0.00000000 NULL
P        0.51331555       2.83741971       6.99220418       0.00000000 NULL
P        2.66955552       4.50971027       6.27970951       0.00000000 NULL
P       -0.15746250       0.28001816       2.24328757       0.00000000 NULL
P       -0.17489554       0.94495670       7.74714290       0.00000000 NULL
P        2.65464944      -0.66490377       8.01086112       0.00000000 NULL
P        2.46933512       2.36853019       6.12278882       0.00000000 NULL
P        3.77569067       3.99646202       3.02158735       0.00000000 NULL
P        1.06237194       3.95448815       8.72345773       0.00000000 NULL
12
Lattice="5.50900431403202 -0.0074147399178910054 -0.044481020454312854 -0.21403548316473867 6.50093543901658 -0.015417260977807946 -2.6860952039711545 -0.7826271690414839 9.084501105187416" Properties=species:S:1:pos:R:3:initial_magmoms:R:1:castep_labels:S:1 n_minim_iter=4 pbc="T T T"
P        0.37333012       5.14161116       0.98001186       0.00000000 NULL
P       -0.89182015       2.85344379       8.79017534       0.00000000 NULL
P       -0.86623601       5.49250131       8.76902658       0.00000000 NULL
P        0.57263351       5.48264916       7.13311242       0.00000000 NULL
P        0.54242257       2.82828645       7.07329719       0.00000000 NULL
P        2.76404312       4.51382195       6.35073300       0.00000000 NULL
P       -0.15759308       0.26939899       2.27045029       0.00000000 NULL
P       -0.16575914       0.92546023       7.85070533       0.00000000 NULL
P        2.75699365      -0.69727296       8.12723303       0.00000000 NULL
P        2.55743833       2.36017053       6.20351075       0.00000000 NULL
P        3.90206587       4.01125752       3.05575013       0.00000000 NULL
P        1.10991090       3.94713404       8.83550041       0.00000000 NULL
12
Lattice="5.6665490204691915 -0.01675968453639833 -0.022252683521245934 -0.2311862085345252 6.441390563563082 -0.04710117625465527 -2.7216074038362006 -0.8146761728304514 9.16904528013689" Properties=species:S:1:pos:R:3:initial_magmoms:R:1:castep_labels:S:1 n_minim_iter=5 pbc="T T T"
P        0.37268952       5.09091036       0.97627086       0.00000000 NULL
P       -0.88567242       2.78038259       8.86477674       0.00000000 NULL
P       -0.86062023       5.40201630       8.83182046       0.00000000 NULL
P        0.61123674       5.39954108       7.17591139       0.00000000 NULL
P        0.58691421       2.76320161       7.12671055       0.00000000 NULL
P        2.86547903       4.43745190       6.39940085       0.00000000 NULL
P       -0.15195171       0.24817875       2.28778749       0.00000000 NULL
P       -0.13899189       0.87991329       7.92749841       0.00000000 NULL
P        2.87366726      -0.73333597       8.22404504       0.00000000 NULL
P        2.65192803       2.30621597       6.26701468       0.00000000 NULL
P        4.02811485       3.96012933       3.08192106       0.00000000 NULL
P        1.17267364       3.86427152       8.91579120       0.00000000 NULL
12
Lattice="5.792941268344884 -0.03911278654370589 0.009733787567841955 -0.26288719685994794 6.304033730793578 -0.08262150379748397 -2.7238970182188376 -0.8362765843044396 9.242447137625446" Properties=species:S:1:pos:R:3:initial_magmoms:R:1:castep_labels:S:1 n_minim_iter=6 pbc="T T T"
P        0.35468988       4.97860815       0.97402311       0.00000000 NULL
P       -0.86510935       2.66821505       8.93074399       0.00000000 NULL
P       -0.84800511       5.24214482       8.88436449       0.00000000 NULL
P        0.64768088       5.24621621       7.21052680       0.00000000 NULL
P        0.63699594       2.65700500       7.17145113       0.00000000 NULL
P        2.95295730       4.29865622       6.44284624       0.00000000 NULL
P       -0.14212968       0.21653490       2.30178126       0.00000000 NULL
P       -0.10157638       0.81825059       7.99836599       0.00000000 NULL
P        2.99228159      -0.77436091       8.32053059       0.00000000 NULL
P        2.73434510       2.21476965       6.33054967       0.00000000 NULL
P        4.13224177       3.85550267       3.10775379       0.00000000 NULL
P        1.23303094       3.72592941       8.99104822       0.00000000 NULL
12
Lattice="5.835409837483765 -0.08295878730471926 0.031054320643655133 -0.3174209893375097 6.287639152608478 -0.09454546116226878 -2.7015210652325727 -0.8290700837510353 9.335782673022958" Properties=species:S:1:pos:R:3:initial_magmoms:R:1:castep_labels:S:1 n_minim_iter=7 pbc="T T T"
P        0.30775526       4.96248911       0.99170708       0.00000000 NULL
P       -0.86113780       2.64555104       9.02663819       0.00000000 NULL
P       -0.86363587       5.21791079       8.97482940       0.00000000 NULL
P        0.63997363       5.21822929       7.27861365       0.00000000 NULL
P        0.65491604       2.62745644       7.23845277       0.00000000 NULL
P        2.96828814       4.26038874       6.50812052       0.00000000 NULL
P       -0.13724372       0.19525677       2.32452307       0.00000000 NULL
P       -0.08402514       0.80104614       8.08657518       0.00000000 NULL
P        3.05462749      -0.81156943       8.42545278       0.00000000 NULL
P        2.75297336       2.17604910       6.41044382       0.00000000 NULL
P        4.15489273       3.82553846       3.14267634       0.00000000 NULL
P        1.24043560       3.68966428       9.09565412       0.00000000 NULL
12
Lattice="5.811275589371605 -0.11478856809429319 0.04870176457132179 -0.3549633998842105 6.237339221452266 -0.11631618286288764 -2.65552852151929 -0.8377115818870294 9.360921283841638" Properties=species:S:1:pos:R:3:initial_magmoms:R:1:castep_labels:S:1 n_minim_iter=8 pbc="T T T"
P        0.27078975       4.91712981       0.98930943       0.00000000 NULL
P       -0.84660215       2.59425977       9.04872383       0.00000000 NULL
P       -0.86305789       5.14935327       8.98680534       0.00000000 NULL
P        0.63162743       5.15086078       7.28442435       0.00000000 NULL
P        0.66564558       2.57551354       7.24933808       0.00000000 NULL
P        2.95441447       4.19448897       6.51762051       0.00000000 NULL
P       -0.13232240       0.17183754       2.33219081       0.00000000 NULL
P       -0.06844633       0.76685388       8.11046452       0.00000000 NULL
P        3.07518390      -0.85269419       8.46455095       0.00000000 NULL
P        2.74272074       2.12138323       6.43540707       0.00000000 NULL
P        4.13333251       3.77596806       3.14392542       0.00000000 NULL
P        1.23676240       3.62263379       9.12087540       0.00000000 NULL
12
Lattice="5.815493544183729 -0.1341573574215039 0.05303203322182687 -0.3785121164642169 6.259947089907717 -0.12734504004512026 -2.6474131856548513 -0.8464167866651572 9.404263350763813" Properties=species:S:1:pos:R:3:initial_magmoms:R:1:castep_labels:S:1 n_minim_iter=9 pbc="T T T"
P        0.24938925       4.93071165       0.99134588       0.00000000 NULL
P       -0.85213289       2.58940718       9.08894285       0.00000000 NULL
P       -0.87606318       5.15532369       9.02138011       0.00000000 NULL
P        0.61998674       5.15721456       7.30859854       0.00000000 NULL
P        0.66556739       2.56977214       7.27582340       0.00000000 NULL
P        2.94829234       4.19401726       6.53920450       0.00000000 NULL
P       -0.13314961       0.16099621       2.34481672       0.00000000 NULL
P       -0.06874316       0.75601791       8.14698893       0.00000000 NULL
P        3.08735102      -0.88039121       8.50710104       0.00000000 NULL
P        2.73851958       2.10881444       6.46529087       0.00000000 NULL
P        4.12976788       3.77996715       3.14926557       0.00000000 NULL
P        1.22851185       3.61724129       9.16111844       0.00000000 NULL
12
Lattice="5.8047590218234 -0.14902726133794664 0.05764891122087921 -0.3960708990532291 6.247220814823227 -0.13946803978711395 -2.632358958505208 -0.8546594204208621 9.421503885995214" Properties=species:S:1:pos:R:3:initial_magmoms:R:1:castep_labels:S:1 n_minim_iter=10 pbc="T T T"
P        0.23210633       4.91650103       0.98867550       0.00000000 NULL
P       -0.85219781       2.56720654       9.10284489       0.00000000 NULL
P       -0.88168150       5.12947459       9.02921965       0.00000000 NULL
P        0.61131069       5.13267221       7.31190729       0.00000000 NULL
P        0.66587268       2.54812670       7.28264626       0.00000000 NULL
P        2.93823601       4.16923687       6.54265061       0.00000000 NULL
P       -0.13323843       0.14939725       2.35096024       0.00000000 NULL
P       -0.06718103       0.73890025       8.16072065       0.00000000 NULL
P        3.09157355      -0.90354394       8.52628221       0.00000000 NULL
P        2.73009231       2.08514022       6.47672016       0.00000000 NULL
P        4.11810960       3.76350172       3.14560189       0.00000000 NULL
P        1.22105667       3.58995897       9.17452988       0.00000000 NULL
12
Lattice="5.79395811506008 -0.17441769615063174 0.06202102960960659 -0.4263328610938532 6.244030938971883 -0.15946051575309414 -2.6162004967033288 -0.8700939587234291 9.46382192203839" Properties=species:S:1:pos:R:3:initial_magmoms:R:1:castep_labels:S:1 n_minim_iter=11 pbc="T T T"
P        0.20289904       4.90621984       0.98558903       0.00000000 NULL
P       -0.85976158       2.53818977       9.13868149       0.00000000 NULL
P       -0.89809135       5.10181226       9.05469941       0.00000000 NULL
P        0.59257677       5.10721954       7.32635048       0.00000000 NULL
P        0.66255759       2.51998328       7.30295039       0.00000000 NULL
P        2.92095927       4.14074649       6.55486276       0.00000000 NULL
P       -0.13557774       0.13054702       2.36541880       0.00000000 NULL
P       -0.06991057       0.71296696       8.19397538       0.00000000 NULL
P        3.09718374      -0.94419996       8.56696744       0.00000000 NULL
P        2.71540688       2.05191309       6.50238143       0.00000000 NULL
P        4.10160187       3.74765230       3.14017843       0.00000000 NULL
P        1.20434383       3.55564855       9.20840382       0.00000000 NULL
12
Lattice="5.747622971765473 -0.24684654787383764 0.060872465146403654 -0.5120803303901964 6.210868543052396 -0.2225990404870617 -2.5859375230527135 -0.9206271392530957 9.582554713194968" Properties=species:S:1:pos:R:3:initial_magmoms:R:1:castep_labels:S:1 n_minim_iter=12 pbc="T T T"
P        0.11669744       4.85262810       0.97186810       0.00000000 NULL
P       -0.90385402       2.43414194       9.23384689       0.00000000 NULL
P       -0.96407172       4.99336214       9.11548005       0.00000000 NULL
P        0.51929599       5.00786980       7.35221715       0.00000000 NULL
P        0.63425874       2.42161410       7.34894612       0.00000000 NULL
P        2.84941163       4.03841842       6.56941530       0.00000000 NULL
P       -0.15099765       0.06996926       2.41148567       0.00000000 NULL
P       -0.09942885       0.62694882       8.27957969       0.00000000 NULL
P        3.08444004      -1.06728781       8.66586633       0.00000000 NULL
P        2.65032697       1.94289131       6.56024844       0.00000000 NULL
P        4.03788244       3.69007049       3.09963730       0.00000000 NULL
P        1.13049891       3.43521304       9.29093167       0.00000000 NULL
12
Lattice="5.766114004870051 -0.27658804451316726 0.01651109205481244 -0.548687507155443 6.2965093486500425 -0.25346597878702876 -2.6660199355285035 -0.9622816627295697 9.73365035299569" Properties=species:S:1:pos:R:3:initial_magmoms:R:1:castep_labels:S:1 n_minim_iter=13 pbc="T T T"
P        0.07703847       4.89349199       0.97341574       0.00000000 NULL
P       -1.00894833       2.42020098       9.36374074       0.00000000 NULL
P       -1.06609527       5.02386398       9.22331811       0.00000000 NULL
P        0.43539161       5.04820117       7.41116803       0.00000000 NULL
P        0.57277659       2.41606932       7.42019357       0.00000000 NULL
P        2.79405754       4.06803184       6.59872672       0.00000000 NULL
P       -0.19035263       0.03673093       2.47217050       0.00000000 NULL
P       -0.18307949       0.59585165       8.38249798       0.00000000 NULL
P        3.03139338      -1.13903860       8.74945251       0.00000000 NULL
P        2.58916247       1.92884705       6.61588394       0.00000000 NULL
P        4.02483299       3.74475508       3.05197331       0.00000000 NULL
P        1.03566506       3.44063707       9.39798638       0.00000000 NULL
12
Lattice="5.720616050010403 -0.27853922846172957 0.026080651969292712 -0.5493502254967149 6.197690743316961 -0.26049470090546323 -2.627883699417684 -0.9591702778734876 9.677508937533421" Properties=species:S:1:pos:R:3:initial_magmoms:R:1:castep_labels:S:1 n_minim_iter=14 pbc="T T T"
P        0.07325828       4.81177403       0.96583951       0.00000000 NULL
P       -0.98774738       2.36645908       9.30980011       0.00000000 NULL
P       -1.04457907       4.93127658       9.16582950       0.00000000 NULL
P        0.44095423       4.95729750       7.36499124       0.00000000 NULL
P        0.58080832       2.36434898       7.37841923       0.00000000 NULL
P        2.78164190       3.99191498       6.56130854       0.00000000 NULL
P       -0.18777643       0.02694513       2.46286328       0.00000000 NULL
P       -0.17028106       0.57348533       8.33533917       0.00000000 NULL
P        3.02324063      -1.13946203       8.70553681       0.00000000 NULL
P        2.57680013       1.88745507       6.58201689       0.00000000 NULL
P        3.99920475       3.68324480       3.03008346       0.00000000 NULL
P        1.03993040       3.37156631       9.34573581       0.00000000 NULL
12
Lattice="5.723343286313051 -0.281672676665257 0.02375737965009525 -0.5532360178812481 6.207308484936308 -0.26431671448831606 -2.632688364079088 -0.9643087808107518 9.69320269981077" Properties=species:S:1:pos:R:3:initial_magmoms:R:1:castep_labels:S:1 n_minim_iter=15 pbc="T T T"
P        0.06962909       4.81509946       0.96703079       0.00000000 NULL
P       -0.99540227       2.36400423       9.32431749       0.00000000 NULL
P       -1.05121568       4.93438262       9.17781944       0.00000000 NULL
P        0.43504281       4.96184989       7.37118792       0.00000000 NULL
P        0.57796876       2.36314954       7.38690050       0.00000000 NULL
P        2.77936588       3.99534934       6.56540050       0.00000000 NULL
P       -0.19222748       0.02231801       2.47121388       0.00000000 NULL
P       -0.17604823       0.56966963       8.34639356       0.00000000 NULL
P        3.02163919      -1.14780533       8.71548832       0.00000000 NULL
P        2.57320855       1.88621519       6.58913339       0.00000000 NULL
P        4.00102741       3.69093301       3.02410709       0.00000000 NULL
P        1.03423054       3.37223066       9.35874895       0.00000000 NULL
12
Lattice="5.719963542302374 -0.28469665228016083 0.022765417144051857 -0.5567622589386796 6.20489368797614 -0.26855206177139257 -2.6323470218954634 -0.968601910147918 9.701104332873483" Properties=species:S:1:pos:R:3:initial_magmoms:R:1:castep_labels:S:1 n_minim_iter=16 pbc="T T T"
P        0.06589705       4.80867452       0.96751087       0.00000000 NULL
P       -0.99976695       2.35566723       9.33149225       0.00000000 NULL
P       -1.05456216       4.92682243       9.18231887       0.00000000 NULL
P        0.43026924       4.95580753       7.37158147       0.00000000 NULL
P        0.57630645       2.35622992       7.39000427       0.00000000 NULL
P        2.77567181       3.98996306       6.56484709       0.00000000 NULL
P       -0.19612704       0.01693341       2.47799639       0.00000000 NULL
P       -0.17982145       0.56369924       8.35106181       0.00000000 NULL
P        3.01890932      -1.15537360       8.71948101       0.00000000 NULL
P        2.56826349       1.88053062       6.59176168       0.00000000 NULL
P        3.99952074       3.69126248       3.01582130       0.00000000 NULL
P        1.02949141       3.36514566       9.36480259       0.00000000 NULL
12
Lattice="5.693880634178756 -0.30994231000251243 0.013770901975539023 -0.5862804788843087 6.20042425579457 -0.3026705533405968 -2.6317224944655253 -1.0045713996728003 9.777305625723667" Properties=species:S:1:pos:R:3:initial_magmoms:R:1:castep_labels:S:1 n_minim_iter=17 pbc="T T T"
P        0.03495402       4.76757074       0.97406931       0.00000000 NULL
P       -1.03678370       2.29493776       9.40137827       0.00000000 NULL
P       -1.08422454       4.87870316       9.23081599       0.00000000 NULL
P        0.38933285       4.91975343       7.38372054       0.00000000 NULL
P        0.56097699       2.30678005       7.42494042       0.00000000 NULL
P        2.74450850       3.95644258       6.56770512       0.00000000 NULL
P       -0.22843950      -0.02584433       2.53684679       0.00000000 NULL
P       -0.21178524       0.51776521       8.39889585       0.00000000 NULL
P        2.99589922      -1.21811849       8.76149803       0.00000000 NULL
P        2.52759359       1.83996218       6.62042214       0.00000000 NULL
P        3.98731159       3.70331691       2.95022707       0.00000000 NULL
P        0.98929894       3.31714787       9.42551386       0.00000000 NULL
12
Lattice="5.6268452877150485 -0.34975564242866874 0.034281632145105045 -0.6318675731684471 6.223925693085676 -0.3443551058170457 -2.5593884771559323 -1.045968728027117 9.979282345671697" Properties=species:S:1:pos:R:3:initial_magmoms:R:1:castep_labels:S:1 n_minim_iter=18 pbc="T T T"
P       -0.00861182       4.73163395       1.01306690       0.00000000 NULL
P       -1.02281660       2.23534165       9.60073471       0.00000000 NULL
P       -1.07097213       4.84860254       9.40857173       0.00000000 NULL
P        0.36373581       4.89922232       7.49990833       0.00000000 NULL
P        0.57033291       2.25849473       7.57866576       0.00000000 NULL
P        2.71646830       3.92778592       6.67203491       0.00000000 NULL
P       -0.25529621      -0.07498636       2.64357183       0.00000000 NULL
P       -0.20400837       0.46770943       8.56180899       0.00000000 NULL
P        2.99668920      -1.29910738       8.93648728       0.00000000 NULL
P        2.49683116       1.80100443       6.75317087       0.00000000 NULL
P        3.96153859       3.73427579       2.92063905       0.00000000 NULL
P        0.97963563       3.27810495       9.62855549       0.00000000 NULL
12
Lattice="5.602245465426277 -0.3525566397012394 0.04736984120844593 -0.6343345748880563 6.221760275725663 -0.3601485123282103 -2.5250474766661637 -1.0659528566516727 10.015499571353601" Properties=species:S:1:pos:R:3:initial_magmoms:R:1:castep_labels:S:1 n_minim_iter=19 pbc="T T T"
P       -0.01226147       4.72024970       1.01663737       0.00000000 NULL
P       -0.99937079       2.21073307       9.63339560       0.00000000 NULL
P       -1.04644717       4.82668694       9.43409337       0.00000000 NULL
P        0.37414680       4.88103299       7.51908111       0.00000000 NULL
P        0.58338136       2.23957849       7.60946024       0.00000000 NULL
P        2.71877995       3.91194509       6.69301444       0.00000000 NULL
P       -0.25319759      -0.08609741       2.66096909       0.00000000 NULL
P       -0.18725052       0.44774141       8.59374246       0.00000000 NULL
P        3.00380297      -1.32076497       8.97621473       0.00000000 NULL
P        2.49972456       1.78585616       6.78049234       0.00000000 NULL
P        3.95536149       3.73396371       2.91929500       0.00000000 NULL
P        0.99458466       3.25728422       9.66335106       0.00000000 NULL
12
Lattice="5.5961025154502 -0.3558778313414736 0.05196231312460514 -0.6381168995350499 6.2331492718023265 -0.3659374546150479 -2.5138463823680586 -1.0736191361055227 10.049586816980579" Properties=species:S:1:pos:R:3:initial_magmoms:R:1:castep_labels:S:1 n_minim_iter=20 pbc="T T T"
P       -0.01601139       4.72397454       1.02222092       0.00000000 NULL
P       -0.99300248       2.20673080       9.66597310       0.00000000 NULL
P       -1.04010847       4.82940281       9.46367603       0.00000000 NULL
P        0.37540155       4.88455848       7.54203475       0.00000000 NULL
P        0.58688036       2.23744377       7.63773805       0.00000000 NULL
P        2.71938104       3.91399352       6.71417862       0.00000000 NULL
P       -0.25360452      -0.09051625       2.67433426       0.00000000 NULL
P       -0.18239855       0.44192066       8.62334905       0.00000000 NULL
P        3.00774157      -1.33137188       9.00835708       0.00000000 NULL
P        2.50117848       1.78386710       6.80435770       0.00000000 NULL
P        3.95458574       3.74177888       2.92279160       0.00000000 NULL
P        0.99874143       3.25708613       9.69668070       0.00000000 NULL
12
Lattice="5.585069680145139 -0.3595332348398607 0.05806975275547801 -0.642120818926065 6.238458348891261 -0.37239097873372234 -2.4977007112265195 -1.0812701735574597 10.081760609104448" Properties=species:S:1:pos:R:3:initial_magmoms:R:1:castep_labels:S:1 n_minim_iter=21 pbc="T T T"
P       -0.02025405       4.72253461       1.02791417       0.00000000 NULL
P       -0.98343781       2.19917366       9.69677583       0.00000000 NULL
P       -1.03072271       4.82623224       9.49109980       0.00000000 NULL
P        0.37763870       4.88215255       7.56373134       0.00000000 NULL
P        0.59160547       2.23184990       7.66549748       0.00000000 NULL
P        2.71898555       3.91097460       6.73467798       0.00000000 NULL
P       -0.25326561      -0.09552695       2.68771988       0.00000000 NULL
P       -0.17540597       0.43443715       8.65180525       0.00000000 NULL
P        3.01148566      -1.34238209       9.03982120       0.00000000 NULL
P        2.50200009       1.77913338       6.82776654       0.00000000 NULL
P        3.95104814       3.74559604       2.92577490       0.00000000 NULL
P        1.00415119       3.25239417       9.72860958       0.00000000 NULL
12
Lattice="5.518428833709099 -0.3814247999423289 0.09523226970524787 -0.666078471206163 6.278705668904766 -0.41507013970224116 -2.399740358545256 -1.1337324908948099 10.298879857512182" Properties=species:S:1:pos:R:3:initial_magmoms:R:1:castep_labels:S:1 n_minim_iter=22 pbc="T T T"
P       -0.04602973       4.71817804       1.06517133       0.00000000 NULL
P       -0.92505284       2.15125155       9.90324870       0.00000000 NULL
P       -0.97268094       4.80922349       9.67435717       0.00000000 NULL
P        0.39122094       4.87051899       7.70936953       0.00000000 NULL
P        0.62049079       2.19714748       7.85164673       0.00000000 NULL
P        2.71721530       3.89560253       6.87055717       0.00000000 NULL
P       -0.25106271      -0.12760063       2.77673594       0.00000000 NULL
P       -0.13325039       0.38546279       8.84309273       0.00000000 NULL
P        3.03437147      -1.41465834       9.24876297       0.00000000 NULL
P        2.50774382       1.75066627       6.98289259       0.00000000 NULL
P        3.93014296       3.77425094       2.94527002       0.00000000 NULL
P        1.03756532       3.22470169       9.94089590       0.00000000 NULL
12
Lattice="5.382859357552267 -0.39808288709057127 0.147139206981222 -0.6811496809121566 6.446420569018208 -0.5122756811403092 -2.2447436928860593 -1.2797365009254607 10.738176302023358" Properties=species:S:1:pos:R:3:initial_magmoms:R:1:castep_labels:S:1 n_minim_iter=23 pbc="T T T"
P       -0.08221229       4.77583684       1.13439828       0.00000000 NULL
P       -0.83053876       2.06774218      10.30270249       0.00000000 NULL
P       -0.85921774       4.83132126      10.00615359       0.00000000 NULL
P        0.41039514       4.90920557       7.98831896       0.00000000 NULL
P        0.66116162       2.14945318       8.23741276       0.00000000 NULL
P        2.71053948       3.93250419       7.11438937       0.00000000 NULL
P       -0.25333422      -0.19068619       2.96691814       0.00000000 NULL
P       -0.08178441       0.27802655       9.22880685       0.00000000 NULL
P        3.04351980      -1.57567321       9.63813556       0.00000000 NULL
P        2.50847422       1.73478312       7.26774075       0.00000000 NULL
P        3.89491613       3.90303085       2.95011173       0.00000000 NULL
P        1.08655100       3.21809932      10.33313022       0.00000000 NULL
12
Lattice="5.36700648260115 -0.35178868149576625 0.19766447175151305 -0.6246499980925271 6.243091603560188 -0.6284363767651859 -2.157760949323406 -1.439153391544992 10.442703342674243" Properties=species:S:1:pos:R:3:initial_magmoms:R:1:castep_labels:S:1 n_minim_iter=24 pbc="T T T"
P       -0.03495067       4.60078604       1.01308076       0.00000000 NULL
P       -0.72260579       1.80232255       9.96169091       0.00000000 NULL
P       -0.70609393       4.50207228       9.59007687       0.00000000 NULL
P        0.50603983       4.61533162       7.68158317       0.00000000 NULL
P        0.75419101       1.92187793       8.03317676       0.00000000 NULL
P        2.81083917       3.69738306       6.86517293       0.00000000 NULL
P       -0.23754227      -0.22871359       2.91273067       0.00000000 NULL
P       -0.01813817       0.10161509       8.98193939       0.00000000 NULL
P        3.11160411      -1.68083082       9.39077125       0.00000000 NULL
P        2.58739382       1.60304832       7.03788679       0.00000000 NULL
P        3.96251588       3.74650257       2.81832293       0.00000000 NULL
P        1.19660245       2.95985899       9.96763423       0.00000000 NULL
12
Lattice="5.457322774312518 -0.3735486006516844 0.14878837870718173 -0.6542916192388162 6.491391626174376 -0.586561492777805 -2.2807070372155502 -1.4013836222196412 10.712115648592292" Properties=species:S:1:pos:R:3:initial_magmoms:R:1:castep_labels:S:1 n_minim_iter=25 pbc="T T T"
P       -0.06015175       4.79416691       1.07423650       0.00000000 NULL
P       -0.83210234       1.96547687      10.23448405       0.00000000 NULL
P       -0.81964942       4.77065488       9.87373149       0.00000000 NULL
P        0.42773447       4.86899060       7.90494661       0.00000000 NULL
P        0.68781035       2.06806487       8.24406724       0.00000000 NULL
P        2.78541533       3.90411125       7.03462254       0.00000000 NULL
P       -0.26870987      -0.20552704       2.98961302       0.00000000 NULL
P       -0.09878088       0.18265052       9.20655980       0.00000000 NULL
P        3.08756612      -1.67021536       9.58381333       0.00000000 NULL
P        2.56417985       1.72425435       7.20144115       0.00000000 NULL
P        3.98980678       3.91232555       2.88458834       0.00000000 NULL
P        1.11718369       3.16749184      10.22996709       0.00000000 NULL
12