15
Lattice="6.431746361746777 -0.6930273501580747 -0.20360888996175996 -3.8248642977235066 4.7526571347068725 -1.2275868555528828 -1.7210548106218813 -3.807409290876028 13.411760579189917" Properties=species:S:1:pos:R:3:initial_magmoms:R:1:castep_labels:S:1:forces:R:3 n_minim_iter=1 energy=-79.31864720090142 stress="-4.1353481709335197e-05 2.086320821865278e-06 1.1285429878339795e-05 2.086320821865278e-06 -6.187376143039567e-05 4.125660794646138e-05 1.1285429878339795e-05 4.125660794646138e-05 -7.603077220219654e-05" free_energy=-79.31864720090142 pbc="T T T"
P       -1.89345869      -1.73107304      10.77547642       0.00000000 NULL       0.00255529       0.00305708       0.00098497
P        3.13669380      -2.86393458      12.39210519       0.00000000 NULL      -0.00122757      -0.00145438       0.00501292
P        2.54912931      -0.81724054       5.80937117       0.00000000 NULL      -0.00527020       0.00159788       0.00353900
P        1.02690199      -3.04687273      11.42909545       0.00000000 NULL       0.00234995       0.00094872       0.00333037
P        0.76204066      -0.99057932       2.72261464       0.00000000 NULL      -0.00456511       0.00385488       0.00375175
P       -0.61478382      -0.47184053       6.10434132       0.00000000 NULL      -0.00084268      -0.00470997      -0.00039519
P        1.17371355      -0.07907961      -0.63594547       0.00000000 NULL       0.00431140       0.00145679      -0.00274894
P       -3.05095500       2.87586918       3.75098228       0.00000000 NULL      -0.00211891       0.00023917       0.00070447
P        0.37295555       3.45107224       3.11701615       0.00000000 NULL       0.00282697      -0.00002769      -0.00588743
P        0.22391558       2.22265206       4.99084653       0.00000000 NULL       0.00034890      -0.00096996       0.00055930
P       -0.75218361       0.53119603       2.24364391       0.00000000 NULL       0.00311761      -0.00473832      -0.00201783
P       -0.88892267      -0.38240618      12.44836687       0.00000000 NULL       0.00616606       0.00672229       0.00287833
P       -1.48614820       3.87787644      -0.20743888       0.00000000 NULL      -0.00282696      -0.00386575      -0.00126523
P        0.38910141       1.61164129       0.54519222       0.00000000 NULL      -0.00168210      -0.00226617      -0.00391472
P       -2.77604522      -0.33746569       9.34269889       0.00000000 NULL      -0.00314266       0.00015545      -0.00453176
