8
Lattice="4.9005399999999995 4.662687948526915e-32 2.85723300226544e-32 2.4502699999999997 6.029503853133878 3.2560975414327253e-13 2.4502699999999997 0.4695678527223243 6.0111914581591925" Properties=species:S:1:pos:R:3:initial_magmoms:R:1:castep_labels:S:1 n_minim_iter=1 pbc="T T T"
P        3.69957691       3.49016557       1.15026192       0.00000000 NULL
P        6.10150308       5.08049491       2.62120648       0.00000000 NULL
P        3.69957691       2.30052691       5.62680221       0.00000000 NULL
P        6.10150308       0.71019757       4.15585765       0.00000000 NULL
P        4.19922691       5.89930994       1.49657688       0.00000000 NULL
P        5.60185309       4.54761155       0.24634944       0.00000000 NULL
P        4.19922691       1.76764355       3.25194517       0.00000000 NULL
P        5.60185309       3.11934194       4.50217261       0.00000000 NULL
8
Lattice="4.897544434852092 2.0832246770786177e-19 3.3842712080978673e-19 2.448772217426046 6.023892651712652 -0.0017412400552339626 2.448772217426046 0.46739490989480953 6.005732903607939" Properties=species:S:1:pos:R:3:initial_magmoms:R:1:castep_labels:S:1 n_minim_iter=2 pbc="T T T"
P        3.69738146       3.48670615       1.14821296       0.00000000 NULL
P        6.09770740       5.07502292       2.61729603       0.00000000 NULL
P        3.69738146       2.29677405       5.62103310       0.00000000 NULL
P        6.09770740       0.70845728       4.15195003       0.00000000 NULL
P        4.19671712       5.89327531       1.49357826       0.00000000 NULL
P        5.59837175       4.54328689       0.24493242       0.00000000 NULL
P        4.19671712       1.76503802       3.24866949       0.00000000 NULL
P        5.59837175       3.11502644       4.49731533       0.00000000 NULL
8
Lattice="4.740881120458085 1.7292712928508265e-17 2.0348578470499066e-17 2.3704405602290426 5.731451612402485 -0.09068803978559532 2.3704405602290426 0.3559434256574893 5.721107076746808" Properties=species:S:1:pos:R:3:initial_magmoms:R:1:castep_labels:S:1 n_minim_iter=3 pbc="T T T"
P        3.58255741       3.30669379       1.04234094       0.00000000 NULL
P        5.89920483       4.79069994       2.41494390       0.00000000 NULL
P        3.58255741       2.10294585       5.32084146       0.00000000 NULL
P        5.89920483       0.61893969       3.94823850       0.00000000 NULL
P        4.06538160       5.57934813       1.33913481       0.00000000 NULL
P        5.41638064       4.31781688       0.17230573       0.00000000 NULL
P        4.06538160       1.63006279       3.07820329       0.00000000 NULL
P        5.41638064       2.89159404       4.24503237       0.00000000 NULL
8
Lattice="4.783652739707866 2.0493718609863775e-17 1.8878768554863775e-17 2.391826369853933 5.7418974575528905 -0.06625903362879162 2.391826369853933 0.3811117429709222 5.729618705634732" Properties=species:S:1:pos:R:3:initial_magmoms:R:1:castep_labels:S:1 n_minim_iter=4 pbc="T T T"
P        3.61582399       3.32000210       1.05704513       0.00000000 NULL
P        5.95148148       4.81061814       2.43576179       0.00000000 NULL
P        3.61582399       2.13022528       5.33370066       0.00000000 NULL
P        5.95148148       0.63960924       3.95498400       0.00000000 NULL
P        4.09926318       5.59601625       1.36814452       0.00000000 NULL
P        5.46804229       4.32321135       0.19088809       0.00000000 NULL
P        4.09926318       1.64281850       3.08882696       0.00000000 NULL
P        5.46804229       2.91562340       4.26608339       0.00000000 NULL
