8
Lattice="5.22605 0.0 0.0 0.0 5.6977 0.0 0.0 0.0 6.03398" Properties=species:S:1:pos:R:3:initial_magmoms:R:1:castep_labels:S:1 n_minim_iter=1 pbc="T T T"
P        1.35381452       3.79484255       4.79974568       0.00000000 NULL
P        1.25921048       0.94599255       1.23423432       0.00000000 NULL
P        3.87223548       4.75170745       1.78275568       0.00000000 NULL
P        3.96683952       1.90285745       4.25122432       0.00000000 NULL
P        0.38143162       1.21610854       3.03923970       0.00000000 NULL
P        2.23159338       4.06495854       2.99474030       0.00000000 NULL
P        4.84461838       1.63274146       0.02224970       0.00000000 NULL
P        2.99445662       4.48159146       6.01173030       0.00000000 NULL
8
Lattice="5.222604912996084 0.0 0.0 0.0 5.695208225413201 0.0 0.0 0.0 6.0363028613677265" Properties=species:S:1:pos:R:3:initial_magmoms:R:1:castep_labels:S:1 n_minim_iter=2 pbc="T T T"
P        1.35287004       3.79319220       4.80177004       0.00000000 NULL
P        1.25843241       0.94558808       1.23453282       0.00000000 NULL
P        3.86973487       4.74962014       1.78361861       0.00000000 NULL
P        3.96417250       1.90201603       4.25268425       0.00000000 NULL
P        0.38114217       1.21551616       3.04058775       0.00000000 NULL
P        2.23016029       4.06312027       2.99571511       0.00000000 NULL
P        4.84146274       1.63208796       0.02243632       0.00000000 NULL
P        2.99244463       4.47969207       6.01386654       0.00000000 NULL
8
Lattice="4.752951272885842 0.0 0.0 0.0 5.348503887137092 0.0 0.0 0.0 6.377425516687852" Properties=species:S:1:pos:R:3:initial_magmoms:R:1:castep_labels:S:1 n_minim_iter=3 pbc="T T T"
P        1.22439315       3.56348672       5.09973052       0.00000000 NULL
P        1.15208249       0.88923478       1.27769500       0.00000000 NULL
P        3.52855812       4.45926911       1.91101776       0.00000000 NULL
P        3.60086878       1.78501717       4.46640776       0.00000000 NULL
P        0.34202838       1.13330206       3.23922366       0.00000000 NULL
P        2.03444726       3.80755401       3.13820186       0.00000000 NULL
P        4.41092289       1.54094988       0.05051090       0.00000000 NULL
P        2.71850402       4.21520183       6.32691462       0.00000000 NULL
8
Lattice="4.843063308660347 0.0 0.0 0.0 5.195833197125181 0.0 0.0 0.0 6.585490247270888" Properties=species:S:1:pos:R:3:initial_magmoms:R:1:castep_labels:S:1 n_minim_iter=4 pbc="T T T"
P        1.23440455       3.45603651       5.26564281       0.00000000 NULL
P        1.18712710       0.85811991       1.31984744       0.00000000 NULL
P        3.60865876       4.33771329       1.97289769       0.00000000 NULL
P        3.65593621       1.73979669       4.61259256       0.00000000 NULL
P        0.36107626       1.08978253       3.34174521       0.00000000 NULL
P        2.06045539       3.68769913       3.24374504       0.00000000 NULL
P        4.48198705       1.50813406       0.04900008       0.00000000 NULL
P        2.78260792       4.10605066       6.53649017       0.00000000 NULL
8
Lattice="4.782625509889749 0.0 0.0 0.0 5.0951646858102055 0.0 0.0 0.0 6.497833010916061" Properties=species:S:1:pos:R:3:initial_magmoms:R:1:castep_labels:S:1 n_minim_iter=5 pbc="T T T"
P        1.21642797       3.38760146       5.19615466       0.00000000 NULL
P        1.17488478       0.84001912       1.30167835       0.00000000 NULL
P        3.56619754       4.25514556       1.94723816       0.00000000 NULL
P        3.60774073       1.70756322       4.55059485       0.00000000 NULL
P        0.35914856       1.06599310       3.29701032       0.00000000 NULL
P        2.03216420       3.61357545       3.20082269       0.00000000 NULL
P        4.42347695       1.48158924       0.04809381       0.00000000 NULL
P        2.75046131       4.02917158       6.44973920       0.00000000 NULL
8
Lattice="4.771784660659233 0.0 0.0 0.0 5.010734558025567 0.0 0.0 0.0 6.5146225175485535" Properties=species:S:1:pos:R:3:initial_magmoms:R:1:castep_labels:S:1 n_minim_iter=6 pbc="T T T"
P        1.21013436       3.32966929       5.21042992       0.00000000 NULL
P        1.17575797       0.82430201       1.30419260       0.00000000 NULL
P        3.56165030       4.18643255       1.95311866       0.00000000 NULL
P        3.59602669       1.68106527       4.56150386       0.00000000 NULL
P        0.36149389       1.04565599       3.30508944       0.00000000 NULL
P        2.02439844       3.55102327       3.20953308       0.00000000 NULL
P        4.41029077       1.45971129       0.04777818       0.00000000 NULL
P        2.74738622       3.96507857       6.46684434       0.00000000 NULL
8
Lattice="4.754993822558496 0.0 0.0 0.0 4.770729884755678 0.0 0.0 0.0 6.598785719190182" Properties=species:S:1:pos:R:3:initial_magmoms:R:1:castep_labels:S:1 n_minim_iter=7 pbc="T T T"
P        1.19578063       3.16516951       5.28041823       0.00000000 NULL
P        1.18171628       0.77980457       1.31836749       0.00000000 NULL
P        3.55921320       3.99092532       1.98102537       0.00000000 NULL
P        3.57327754       1.60556038       4.61776035       0.00000000 NULL
P        0.36896712       0.98878106       3.34616445       0.00000000 NULL
P        2.00852980       3.37414600       3.25262126       0.00000000 NULL
P        4.38602671       1.39658388       0.04677159       0.00000000 NULL
P        2.74646403       3.78194883       6.55201412       0.00000000 NULL
8
Lattice="4.754034927812977 0.0 0.0 0.0 4.485107425470415 0.0 0.0 0.0 6.735527971521415" Properties=species:S:1:pos:R:3:initial_magmoms:R:1:castep_labels:S:1 n_minim_iter=8 pbc="T T T"
P        1.18474997       2.97091256       5.39283595       0.00000000 NULL
P        1.19226750       0.72835885       1.34269202       0.00000000 NULL
P        3.56928496       3.75674858       2.02507197       0.00000000 NULL
P        3.56176743       1.51419486       4.71045600       0.00000000 NULL
P        0.37754652       0.92377668       3.41176895       0.00000000 NULL
P        1.99947094       3.16633040       3.32375902       0.00000000 NULL
P        4.37648841       1.31877703       0.04400496       0.00000000 NULL
P        2.75456399       3.56133074       6.69152301       0.00000000 NULL
8
Lattice="4.807613504329041 0.0 0.0 0.0 4.002379780376796 0.0 0.0 0.0 7.182316414649394" Properties=species:S:1:pos:R:3:initial_magmoms:R:1:castep_labels:S:1 n_minim_iter=9 pbc="T T T"
P        1.16971877       2.64252733       5.75626945       0.00000000 NULL
P        1.23408798       0.64133744       1.42604696       0.00000000 NULL
P        3.63789473       3.36104234       2.16511124       0.00000000 NULL
P        3.57352552       1.35985245       5.01720517       0.00000000 NULL
P        0.40267940       0.81525047       3.61844955       0.00000000 NULL
P        2.00112735       2.81644036       3.56386686       0.00000000 NULL
P        4.40493410       1.18593942       0.02729134       0.00000000 NULL
P        2.80648616       3.18712931       7.15502507       0.00000000 NULL
8
Lattice="4.542829467296413 0.0 0.0 0.0 3.791897243163766 0.0 0.0 0.0 7.151446086325825" Properties=species:S:1:pos:R:3:initial_magmoms:R:1:castep_labels:S:1 n_minim_iter=10 pbc="T T T"
P        1.09444894       2.50033054       5.73661201       0.00000000 NULL
P        1.17696580       0.60438192       1.41483407       0.00000000 NULL
P        3.44838053       3.18751532       2.16088897       0.00000000 NULL
P        3.36586367       1.29156670       4.99055712       0.00000000 NULL
P        0.38452624       0.77079956       3.58568441       0.00000000 NULL
P        1.88688849       2.66674818       3.56576168       0.00000000 NULL
P        4.15830323       1.12514906       0.00996136       0.00000000 NULL
P        2.65594097       3.02109768       7.14148472       0.00000000 NULL
8
Lattice="4.625892965627207 0.0 0.0 0.0 3.80973227487576 0.0 0.0 0.0 7.4254039527067395" Properties=species:S:1:pos:R:3:initial_magmoms:R:1:castep_labels:S:1 n_minim_iter=11 pbc="T T T"
P        1.11013186       2.51185931       5.95592100       0.00000000 NULL
P        1.20281463       0.60699317       1.46948295       0.00000000 NULL
P        3.51576111       3.20273910       2.24321902       0.00000000 NULL
P        3.42307834       1.29787296       5.18218493       0.00000000 NULL
P        0.39304506       0.77417275       3.71555106       0.00000000 NULL
P        1.91990142       2.67903888       3.70985289       0.00000000 NULL
P        4.23284790       1.13069339       0.00284909       0.00000000 NULL
P        2.70599155       3.03555953       7.42255486       0.00000000 NULL
8
Lattice="4.587159236059045 0.0 0.0 0.0 3.7814551151400786 0.0 0.0 0.0 7.448563125990724" Properties=species:S:1:pos:R:3:initial_magmoms:R:1:castep_labels:S:1 n_minim_iter=12 pbc="T T T"
P        1.09828900       2.49283046       5.97498806       0.00000000 NULL
P        1.19529062       0.60210290       1.47357506       0.00000000 NULL
P        3.48887024       3.17935222       2.25070650       0.00000000 NULL
P        3.39186862       1.28862466       5.19785663       0.00000000 NULL
P        0.39005345       0.76838952       3.72012582       0.00000000 NULL
P        1.90352616       2.65911708       3.72843731       0.00000000 NULL
P        4.19710578       1.12233804      -0.00415575       0.00000000 NULL
P        2.68363307       3.01306559       7.45271887       0.00000000 NULL
8
Lattice="4.557241038416802 0.0 0.0 0.0 3.7528101129012765 0.0 0.0 0.0 7.50572068700796" Properties=species:S:1:pos:R:3:initial_magmoms:R:1:castep_labels:S:1 n_minim_iter=13 pbc="T T T"
P        1.08813427       2.47364038       6.02125764       0.00000000 NULL
P        1.19048625       0.59723532       1.48446304       0.00000000 NULL
P        3.46910677       3.15557479       2.26839730       0.00000000 NULL
P        3.36675479       1.27916974       5.23732339       0.00000000 NULL
P        0.38773275       0.76259119       3.73989333       0.00000000 NULL
P        1.89088777       2.63899625       3.76582736       0.00000000 NULL
P        4.16950829       1.11381386      -0.01296701       0.00000000 NULL
P        2.66635327       2.99021892       7.51868770       0.00000000 NULL
8
Lattice="4.5184200462548185 0.0 0.0 0.0 3.7122932161982356 0.0 0.0 0.0 7.596143299710241" Properties=species:S:1:pos:R:3:initial_magmoms:R:1:castep_labels:S:1 n_minim_iter=14 pbc="T T T"
P        1.07498242       2.44671556       6.09438535       0.00000000 NULL
P        1.18422760       0.59056896       1.50175795       0.00000000 NULL
P        3.44343763       3.12172426       2.29631370       0.00000000 NULL
P        3.33419244       1.26557765       5.29982960       0.00000000 NULL
P        0.38433368       0.75451899       3.77187372       0.00000000 NULL
P        1.87487634       2.61066559       3.82426958       0.00000000 NULL
P        4.13408636       1.10162762      -0.02619793       0.00000000 NULL
P        2.64354370       2.95777423       7.62234123       0.00000000 NULL
8
Lattice="4.4700264656757405 0.0 0.0 0.0 3.6600585488662745 0.0 0.0 0.0 7.720855757431072" Properties=species:S:1:pos:R:3:initial_magmoms:R:1:castep_labels:S:1 n_minim_iter=15 pbc="T T T"
P        1.05946527       2.41240816       6.19540134       0.00000000 NULL
P        1.17554796       0.58237889       1.52545442       0.00000000 NULL
P        3.41056119       3.07767966       2.33497346       0.00000000 NULL
P        3.29447851       1.24765039       5.38588229       0.00000000 NULL
P        0.37934355       0.74432219       3.81688797       0.00000000 NULL
P        1.85566968       2.57435146       3.90396779       0.00000000 NULL
P        4.09068292       1.08570709      -0.04353991       0.00000000 NULL
P        2.61435678       2.91573636       7.76439567       0.00000000 NULL
8
Lattice="4.416993354230267 0.0 0.0 0.0 3.602999793423422 0.0 0.0 0.0 7.854741457586317" Properties=species:S:1:pos:R:3:initial_magmoms:R:1:castep_labels:S:1 n_minim_iter=16 pbc="T T T"
P        1.04397653       2.37540996       6.30421740       0.00000000 NULL
P        1.16452014       0.57391006       1.55052406       0.00000000 NULL
P        3.37301682       3.02908973       2.37684667       0.00000000 NULL
P        3.25247321       1.22758983       5.47789479       0.00000000 NULL
P        0.37310806       0.73340244       3.86581705       0.00000000 NULL
P        1.83538862       2.53490233       3.98892441       0.00000000 NULL
P        4.04388529       1.06809746      -0.06155368       0.00000000 NULL
P        2.58160474       2.86959736       7.91629514       0.00000000 NULL
8
Lattice="4.290957265831137 0.0 0.0 0.0 3.4592325558780144 0.0 0.0 0.0 8.155046840731941" Properties=species:S:1:pos:R:3:initial_magmoms:R:1:castep_labels:S:1 n_minim_iter=17 pbc="T T T"
P        1.00958733       2.28329682       6.54808523       0.00000000 NULL
P        1.13589130       0.55368054       1.60696161       0.00000000 NULL
P        3.28136994       2.90555202       2.47056181       0.00000000 NULL
P        3.15506596       1.17593574       5.68448503       0.00000000 NULL
P        0.35642605       0.70635744       3.97032440       0.00000000 NULL
P        1.78905259       2.43597372       4.18472244       0.00000000 NULL
P        3.93453122       1.02325884      -0.10719902       0.00000000 NULL
P        2.50190468       2.75287511       8.26224586       0.00000000 NULL
8
Lattice="4.29530901592398 0.0 0.0 0.0 3.440518260555193 0.0 0.0 0.0 8.529284004870412" Properties=species:S:1:pos:R:3:initial_magmoms:R:1:castep_labels:S:1 n_minim_iter=18 pbc="T T T"
P        1.01058528       2.27526063       6.84970290       0.00000000 NULL
P        1.13706923       0.55500150       1.67958110       0.00000000 NULL
P        3.28472374       2.88551676       2.58506090       0.00000000 NULL
P        3.15823979       1.16525763       5.94422310       0.00000000 NULL
P        0.34891134       0.70520981       4.12106754       0.00000000 NULL
P        1.79874317       2.42546894       4.40821647       0.00000000 NULL
P        3.94639768       1.01504932      -0.14357447       0.00000000 NULL
P        2.49656585       2.73530845       8.67285847       0.00000000 NULL
8
Lattice="4.198898282359519 0.0 0.0 0.0 3.4033620165258918 0.0 0.0 0.0 8.433093708633294" Properties=species:S:1:pos:R:3:initial_magmoms:R:1:castep_labels:S:1 n_minim_iter=19 pbc="T T T"
P        0.98899506       2.25171955       6.77379521       0.00000000 NULL
P        1.11045408       0.55003854       1.65929849       0.00000000 NULL
P        3.20990322       2.85332348       2.55724836       0.00000000 NULL
P        3.08844421       1.15164247       5.87584535       0.00000000 NULL
P        0.33952404       0.69841550       4.06787408       0.00000000 NULL
P        1.75992511       2.40009651       4.36521963       0.00000000 NULL
P        3.85937425       1.00326550      -0.14867278       0.00000000 NULL
P        2.43897318       2.70494651       8.58176648       0.00000000 NULL
8
Lattice="4.205898536361395 0.0 0.0 0.0 3.4120150677851204 0.0 0.0 0.0 8.48993872503052" Properties=species:S:1:pos:R:3:initial_magmoms:R:1:castep_labels:S:1 n_minim_iter=20 pbc="T T T"
P        0.99113806       2.25852227       6.81954320       0.00000000 NULL
P        1.11181121       0.55251473       1.67039553       0.00000000 NULL
P        3.21476047       2.85950033       2.57457383       0.00000000 NULL
P        3.09408733       1.15349280       5.91536489       0.00000000 NULL
P        0.33864230       0.70085714       4.09016008       0.00000000 NULL
P        1.76430696       2.40686468       4.39977865       0.00000000 NULL
P        3.86725623       1.00515039      -0.15480929       0.00000000 NULL
P        2.44159157       2.71115792       8.64474801       0.00000000 NULL
