30
Lattice="6.155415407697406 -2.8793235709443278e-15 -5.119803430612167e-31 -3.0777077038487 5.330746113912102 -1.023960686122753e-30 1.8362217237613537e-30 5.300715532528594e-30 22.076448136286867" Properties=species:S:1:pos:R:3:initial_magmoms:R:1:castep_labels:S:1:forces:R:3 n_minim_iter=1 energy=-150.717239999074 stress="0.0008855889472077588 4.4734373007976085e-12 2.812684938077107e-12 4.4734373007976085e-12 0.0008855889527462842 5.291835679651261e-13 2.812684938077107e-12 5.291835679651261e-13 -0.0009596594215971982" free_energy=-150.717239999074 pbc="T T T"
P        4.04063082       0.90149445       2.19667868       0.00000000 NULL      -0.45744778      -0.72045243      -0.13211533
P        1.83810939       1.38070995      16.91431077       0.00000000 NULL      -0.39520621       0.75638761      -0.13211533
P        3.35438290       3.04854171       9.55549473       0.00000000 NULL       0.85265399      -0.03593519      -0.13211533
P        1.67578259       2.10517857       0.11077325       0.00000000 NULL       0.47206251       0.05799508      -0.15322970
P        4.06295453       2.82688654      14.82840534       0.00000000 NULL      -0.18580604      -0.43781566      -0.15322970
P        3.49438599       0.39868101       7.46958929       0.00000000 NULL      -0.28625646       0.37982058      -0.15322970
P        4.40494908       1.49919698       4.15682474       0.00000000 NULL      -0.14099387       0.67699296      -0.08180511
P        2.17357584       0.76634982      18.87445683       0.00000000 NULL       0.65679004      -0.21639221      -0.08180511
P        2.65459819       3.06519931      11.51564079       0.00000000 NULL      -0.51579617      -0.46060075      -0.08180511
P        2.66654783       3.91948482      21.45458376       0.00000000 NULL       0.65609851       0.36721885      -0.06137585
P        5.13880722       1.06170554      14.09576772       0.00000000 NULL      -0.01002841      -0.75180740      -0.06137585
P        1.42776806       0.34955575       6.73695167       0.00000000 NULL      -0.64607010       0.38458856      -0.06137585
P       -1.03783917       5.22989658      13.88535729       0.00000000 NULL       0.18081891       0.27471902       0.47699111
P        1.97043517       3.61459291       6.52654125       0.00000000 NULL       0.14750419      -0.29395328       0.47699111
P       -0.93259601       1.81700274      21.24417334       0.00000000 NULL      -0.32832310       0.01923426       0.47699111
P        0.08477412       3.89679023      21.73983455       0.00000000 NULL       0.16827047      -0.31506028      -0.15476070
P        0.25462457       3.30893446      14.38101850       0.00000000 NULL      -0.35698544       0.01180364      -0.15476070
P       -0.33939869       3.45576754       7.02220245       0.00000000 NULL       0.18871497       0.30325664      -0.15476070
P        5.15839564       0.43717624       5.84412999       0.00000000 NULL      -0.45661786      -0.31487000      -0.15712084
P        0.87711562       0.64485633      20.56176208       0.00000000 NULL      -0.04437649       0.55287766      -0.15712084
P        3.19761186       4.24871354      13.20294603       0.00000000 NULL       0.50099434      -0.23800767      -0.15712084
P       -0.53869757       2.75970147       9.16320834       0.00000000 NULL      -0.13198573       0.05368955       0.46489279
P       -0.41838734       4.41742116       1.80439230       0.00000000 NULL       0.11248938       0.08745822       0.46489279
P        0.95708491       3.48436960      16.52202439       0.00000000 NULL       0.01949635      -0.14114777       0.46489279
P        5.67597008       0.27047246       0.92593235       0.00000000 NULL      -0.24264144       0.10714857      -0.16417926
P        0.47395869       0.27997560      15.64356444       0.00000000 NULL       0.21411410       0.15655937      -0.16417926
P        3.08319434       4.78029805       8.28474839       0.00000000 NULL       0.02852734      -0.26370794      -0.16417926
P        1.34509840       0.97837716       2.00333477       0.00000000 NULL      -0.77135084      -0.43789852      -0.03729711
P        3.25245797       3.67666815      16.72096686       0.00000000 NULL       0.00644418       0.88695868      -0.03729711
P        4.63556673       0.67570081       9.36215081       0.00000000 NULL       0.76490666      -0.44906016      -0.03729711
30
Lattice="6.058924222861458 -3.445734263223103e-15 -1.1573879823871668e-29 -3.0294621114307256 5.247182296602912 -2.3147759647743993e-29 -3.992797001729557e-29 -1.1526212118840973e-28 22.45768423008322" Properties=species:S:1:pos:R:3:initial_magmoms:R:1:castep_labels:S:1:forces:R:3 n_minim_iter=2 energy=-150.88072758006734 stress="-0.008672196460317637 1.6251344226522345e-13 -3.1406821617812583e-12 1.6251344226522345e-13 -0.008672196456112969 -3.1292927768436045e-12 -3.1406821617812583e-12 -3.1292927768436045e-12 0.004104123287953574" free_energy=-150.88072758006734 pbc="T T T"
P        3.96620066       0.86989679       2.23130283       0.00000000 NULL      -0.14777237      -0.45796417       0.33814157
P        1.79971450       1.37740337      17.20309232       0.00000000 NULL      -0.32272242       0.35695671       0.33814157
P        3.32247117       2.99988214       9.71719758       0.00000000 NULL       0.47049479       0.10100746       0.33814157
P        1.66095758       2.07358415       0.10884709       0.00000000 NULL       0.48905022      -0.11768205       0.03233217
P        3.99475987       2.77195876      15.08063657       0.00000000 NULL      -0.34644075      -0.36468889       0.03233217
P        3.43266888       0.40163938       7.59474183       0.00000000 NULL      -0.14260947       0.48237094       0.03233217
P        4.33247976       1.49210825       4.22655897       0.00000000 NULL      -0.14188616       0.54037373      -0.18157369
P        2.15542587       0.74909064      19.19834845       0.00000000 NULL       0.53892046      -0.14730985      -0.18157369
P        2.60048069       3.00598341      11.71245371       0.00000000 NULL      -0.39703430      -0.39306388      -0.18157369
P        2.64065336       3.86694621      21.82354320       0.00000000 NULL       0.79377836       0.41945531      -0.18746843
P        5.05800908       1.02683630      14.33764846       0.00000000 NULL      -0.03363022      -0.89715988      -0.18746843
P        1.38972389       0.35339979       6.85175371       0.00000000 NULL      -0.76014814       0.47770456      -0.18746843
P       -1.01718658       5.15457370      14.13709299       0.00000000 NULL       0.37446307       0.43863923       0.46752298
P        1.94312294       3.55080486       6.65119824       0.00000000 NULL       0.19264118      -0.54361415       0.46752298
P       -0.92593637       1.78898603      21.62298773       0.00000000 NULL      -0.56710425       0.10497491       0.46752298
P        0.08752461       3.82806681      22.11138024       0.00000000 NULL       0.08702155      -0.12449877       0.16850928
P        0.24197869       3.25735035      14.62548550       0.00000000 NULL      -0.15132987      -0.01311349       0.16850928
P       -0.32950330       3.40894743       7.13959075       0.00000000 NULL       0.06430832       0.13761226       0.16850928
P        5.06646372       0.42268972       5.94111513       0.00000000 NULL      -0.50343837      -0.10734687      -0.37460912
P        0.86229029       0.64815114      20.91290462       0.00000000 NULL       0.15875406       0.48966385      -0.37460912
P        3.15963232       4.17634143      13.42700988       0.00000000 NULL       0.34468430      -0.38231698      -0.37460912
P       -0.53345278       2.71774248       9.33309457       0.00000000 NULL       0.08812282       0.14149980       0.16178125
P       -0.40910169       4.35029472       1.84719983       0.00000000 NULL       0.07848101      -0.14706650       0.16178125
P        0.94255447       3.42632739      16.81898932       0.00000000 NULL      -0.16660383       0.00556671       0.16178125
P        5.58111221       0.26883020       0.93780876       0.00000000 NULL      -0.38190780      -0.04393967      -0.28397840
P        0.47171978       0.27938224      15.90959824       0.00000000 NULL       0.15290103       0.35271169      -0.28397840
P        3.03555433       4.69896986       8.42370350       0.00000000 NULL       0.22900677      -0.30877202      -0.28397840
P        1.30531295       0.95242428       2.03699571       0.00000000 NULL      -0.78006083      -0.29130124      -0.14065762
P        3.20162925       3.64053598      17.00878519       0.00000000 NULL       0.13775614       0.82120312      -0.14065762
P        4.58144413       0.65422204       9.52289045       0.00000000 NULL       0.64230469      -0.52990188      -0.14065762
30
Lattice="6.110608524137371 -5.144935535141473e-15 1.5495152837301188e-29 -3.0553042620686806 5.2919422144847 3.099030567460134e-29 6.056619806012218e-29 1.7483955376901316e-28 22.720552911990666" Properties=species:S:1:pos:R:3:initial_magmoms:R:1:castep_labels:S:1:forces:R:3 n_minim_iter=3 energy=-151.239854324368 stress="0.0017430732288134289 -4.4575046387719277e-13 -2.790660243191699e-12 -4.4575046387719277e-13 0.0017430732286860386 1.5182757368152707e-13 -2.790660243191699e-12 1.5182757368152707e-13 0.017930367060960063" free_energy=-151.239854324368 pbc="T T T"
P        3.98107943       0.84625214       2.25393591       0.00000000 NULL       0.11553479      -0.33872265       0.54481669
P        1.79764040       1.42110022      17.40097119       0.00000000 NULL      -0.35110981       0.06930526       0.54481669
P        3.38719295       3.02458985       9.82745355       0.00000000 NULL       0.23557502       0.26941739       0.54481669
P        1.69649914       2.09294029       0.10400223       0.00000000 NULL       0.29446366      -0.07269811       0.02753918
P        4.01959415       2.77626071      15.25103750       0.00000000 NULL      -0.21019024      -0.21866395       0.02753918
P        3.44981949       0.42274121       7.67751986       0.00000000 NULL      -0.08427342       0.29136206       0.02753918
P        4.36307590       1.53462046       4.27161643       0.00000000 NULL      -0.09212096       0.30038309      -0.33071087
P        2.20278662       0.74609742      19.41865171       0.00000000 NULL       0.30619987      -0.07041246      -0.33071087
P        2.60005027       3.01122433      11.84513407       0.00000000 NULL      -0.21407891      -0.22997063      -0.33071087
P        2.69349910       3.91676883      22.07538119       0.00000000 NULL       0.74376555       0.42505526      -0.03170591
P        5.10057601       1.00091915      14.50186355       0.00000000 NULL      -0.00377413      -0.85664749      -0.03170591
P        1.37183766       0.37425424       6.92834591       0.00000000 NULL      -0.73999142       0.43159223      -0.03170591
P       -1.01666828       5.21181186      14.32489658       0.00000000 NULL       0.33354319       0.26572280       0.53853068
P        1.96659135       3.56649684       6.75137895       0.00000000 NULL       0.06335110      -0.42171827       0.53853068
P       -0.94992307       1.80557572      21.89841422       0.00000000 NULL      -0.39689429       0.15599548       0.53853068
P        0.09541940       3.84754454      22.36479969       0.00000000 NULL       0.11103851      -0.30089100       0.50001548
P        0.22905735       3.28553432      14.79128206       0.00000000 NULL      -0.31609850       0.05428333       0.50001548
P       -0.32447676       3.45080557       7.21776442       0.00000000 NULL       0.20505999       0.24660767       0.50001548
P        5.08884445       0.41321862       6.00202778       0.00000000 NULL      -0.54826319      -0.12144321      -0.37734766
P        0.86873986       0.67826434      21.14906305       0.00000000 NULL       0.16895869       0.53553145      -0.37734766
P        3.20832848       4.20045926      13.57554542       0.00000000 NULL       0.37930450      -0.41408824      -0.37734766
P       -0.54276741       2.74381919       9.46240401       0.00000000 NULL       0.15585768      -0.00855614      -0.17072626
P       -0.40770343       4.39008298       1.88888637       0.00000000 NULL      -0.08533868      -0.13069864      -0.17072626
P        0.95047084       3.44998225      17.03592165       0.00000000 NULL      -0.07051900       0.13925478      -0.17072626
P        5.61703140       0.27513973       0.94039016       0.00000000 NULL      -0.41242273       0.06221527      -0.27951100
P        0.48506656       0.28988046      16.08742543       0.00000000 NULL       0.26009137       0.32606093      -0.27951100
P        3.06381483       4.72692202       8.51390780       0.00000000 NULL       0.15233136      -0.38827620      -0.27951100
P        1.28162654       0.94159726       2.05849198       0.00000000 NULL      -0.62412787      -0.32304861      -0.42090033
P        3.22993814       3.71122244      17.20552725       0.00000000 NULL       0.03229563       0.70203489      -0.42090033
P        4.65434811       0.63912251       9.63200961       0.00000000 NULL       0.59183224      -0.37898628      -0.42090033
30
Lattice="6.146998153855511 -1.0387427013351179e-14 6.193115877453984e-28 -3.073499076927747 5.3234565582549225 1.2384693961374449e-27 2.269422613194473e-27 6.551258187108765e-27 21.951793492860766" Properties=species:S:1:pos:R:3:initial_magmoms:R:1:castep_labels:S:1:forces:R:3 n_minim_iter=4 energy=-152.372608758933 stress="-0.004152485722132081 2.051400539661948e-12 -4.2004465374571194e-12 2.051400539661948e-12 -0.004152485715840198 -8.011727131585247e-12 -4.2004465374571194e-12 -8.011727131585247e-12 0.008347003970525223" free_energy=-152.372608758933 pbc="T T T"
P        3.94970890       0.75847573       2.17027318       0.00000000 NULL       0.69299340       0.54538027       0.82543207
P        1.75550387       1.52367045      16.80480218       0.00000000 NULL       0.12581646      -0.87284003       0.82543207
P        3.51528446       3.04131038       9.48753768       0.00000000 NULL      -0.81880987       0.32745976       0.82543207
P        1.77047750       2.11014650       0.08321620       0.00000000 NULL       0.08616066       0.06679159       0.22687423
P        4.01570080       2.73510482      14.71774519       0.00000000 NULL       0.01476289      -0.10801311       0.22687423
P        3.43431893       0.47820524       7.40048070       0.00000000 NULL      -0.10092354       0.04122152       0.22687423
P        4.37001607       1.63242223       4.11300128       0.00000000 NULL      -0.18729958       0.42498063      -0.38356797
P        2.30221016       0.72270051      18.74753027       0.00000000 NULL       0.46169381      -0.05028412      -0.38356797
P        2.54827100       2.96833382      11.43026578       0.00000000 NULL      -0.27439423      -0.37469651      -0.38356797
P        2.80178670       3.99142498      21.31839167       0.00000000 NULL       0.89086294       0.33947750      -0.35371786
P        5.12928116       0.90132560      14.00112717       0.00000000 NULL      -0.15143534      -0.94124869      -0.35371786
P        1.28942937       0.43070597       6.68386267       0.00000000 NULL      -0.73942761       0.60177119      -0.35371786
P       -0.99439465       5.28271221      13.90576934       0.00000000 NULL       0.61240417       0.37997104       0.04368438
P        1.99866122       3.54327148       6.58850484       0.00000000 NULL       0.02286249      -0.72034309       0.04368438
P       -1.00426658       1.82092943      21.22303384       0.00000000 NULL      -0.63526666       0.34037204       0.04368438
P        0.11756404       3.83007964      21.59532277       0.00000000 NULL       0.12115087      -0.42016726       0.66184707
P        0.18466517       3.30660330      14.27805827       0.00000000 NULL      -0.42445095       0.10516390       0.66184707
P       -0.30222921       3.51023018       6.96079378       0.00000000 NULL       0.30330008       0.31500336       0.66184707
P        5.05546620       0.37656680       5.77300935       0.00000000 NULL      -0.52060686      -0.11708101      -0.52737557
P        0.87188239       0.75701100      20.40753835       0.00000000 NULL       0.15890830       0.50939927      -0.52737557
P        3.29314864       4.18987876      13.09027385       0.00000000 NULL       0.36169856      -0.39231826      -0.52737557
P       -0.55937042       2.76839553       9.19788152       0.00000000 NULL       1.25205086      -0.32982912      -0.46496222
P       -0.39631301       4.42368779       1.88061702       0.00000000 NULL      -0.91166582      -0.91939329      -0.46496222
P        0.95568343       3.45482979      16.51514602       0.00000000 NULL      -0.34038503       1.24922241      -0.46496222
P        5.61435842       0.28907425       0.88368406       0.00000000 NULL      -0.74169317      -0.31638151      -0.16832111
P        0.51666551       0.31674242      15.51821305       0.00000000 NULL       0.09685216       0.80051588      -0.16832111
P        3.08947330       4.71763990       8.20094855       0.00000000 NULL       0.64484101      -0.48413437      -0.16832111
P        1.18435569       0.88995414       1.98002789       0.00000000 NULL       0.21689422      -0.05613906       0.14010698
P        3.25204412       3.85279737      16.61455689       0.00000000 NULL      -0.15706496      -0.15976638       0.14010698
P        4.78409742       0.58070505       9.29729239       0.00000000 NULL      -0.05982926       0.21590544       0.14010698
30
Lattice="6.112984939067853 -1.707960034635134e-14 3.6727129960304756e-27 -3.0564924695339113 5.294000250184436 7.345207599186761e-27 1.316890743329216e-26 3.801535493872383e-26 21.69728875658867" Properties=species:S:1:pos:R:3:initial_magmoms:R:1:castep_labels:S:1:forces:R:3 n_minim_iter=5 energy=-153.89049897337983 stress="-0.006460939373926185 -1.5371893744495193e-12 1.981556471889404e-12 -1.5371893744495193e-12 -0.0064609393706529985 1.2274846913229162e-13 1.981556471889404e-12 1.2274846913229162e-13 0.007944384947492262" free_energy=-153.89049897337983 pbc="T T T"
P        3.90575521       0.68626813       2.17341546       0.00000000 NULL      -0.03366964       0.57387430       1.28006916
P        1.69794050       1.56838295      16.63827463       0.00000000 NULL       0.51382454      -0.25777838       1.28006916
P        3.56578170       3.03934917       9.40584504       0.00000000 NULL      -0.48015490      -0.31609591       1.28006915
P        1.84114364       2.12256339       0.07189855       0.00000000 NULL      -0.29953643       0.06811120       0.45015811
P        3.97411446       2.63824139      14.53675772       0.00000000 NULL       0.20875425       0.22535055       0.45015811
P        3.35421930       0.53319547       7.30432814       0.00000000 NULL       0.09078218      -0.29346176       0.45015811
P        4.30576255       1.77708489       4.02636593       0.00000000 NULL      -0.14728117      -0.05518706      -0.18156787
P        2.44261186       0.67655805      18.49122510       0.00000000 NULL       0.02584720       0.15514277      -0.18156787
P        2.42110300       2.84035730      11.25879552       0.00000000 NULL       0.12143398      -0.09995571      -0.18156787
P        2.96210525       4.05255619      21.03149499       0.00000000 NULL       0.92293192       0.01305858      -0.64384827
P        5.08505645       0.70246376      13.79906540       0.00000000 NULL      -0.45015690      -0.80581178      -0.64384827
P        1.12231571       0.53898030       6.56663582       0.00000000 NULL      -0.47277502       0.79275320      -0.64384827
P       -0.91250426       5.32551183      13.81437033       0.00000000 NULL       0.70464575       0.19992794      -0.49133971
P        2.01178819       3.42149620       6.58194074       0.00000000 NULL      -0.17918020      -0.71020509      -0.49133971
P       -1.09928394       1.84099247      21.04679991       0.00000000 NULL      -0.52546554       0.51027715      -0.49133971
P        0.15724951       3.71537019      21.35960158       0.00000000 NULL      -0.24610525      -0.22225279       1.20108022
P        0.08248775       3.30013308      14.12717199       0.00000000 NULL      -0.06942394       0.32425979       1.20108022
P       -0.23973726       3.57249722       6.89474240       0.00000000 NULL       0.31552919      -0.10200700       1.20108022
P        4.91417800       0.30581067       5.64568569       0.00000000 NULL      -0.24894471       0.12753946      -0.61543056
P        0.86424328       0.88529193      20.11054486       0.00000000 NULL       0.23492477       0.15182271      -0.61543056
P        3.39105613       4.10289765      12.87811527       0.00000000 NULL       0.01401994      -0.27936217      -0.61543056
P       -0.46583577       2.72686027       9.13812289       0.00000000 NULL       0.75932297      -0.41665732      -0.56695042
P       -0.46204433       4.33399572       1.90569330       0.00000000 NULL      -0.74049731      -0.44926433      -0.56695042
P        0.92788009       3.52714451      16.37055247       0.00000000 NULL      -0.01882567       0.86592164      -0.56695042
P        5.48387398       0.27762040       0.84105936       0.00000000 NULL       0.22090351      -0.42196240      -0.31599210
P        0.55498180       0.40601587      15.30591853       0.00000000 NULL      -0.47588192       0.01967315      -0.31599210
P        3.13062162       4.61036398       8.07348895       0.00000000 NULL       0.25497840       0.40228926      -0.31599210
P        1.08487790       0.80874854       1.97922600       0.00000000 NULL       0.60148064       0.12913043      -0.11617854
P        3.21445030       3.95009416      16.44408517       0.00000000 NULL      -0.18891009      -0.58546272      -0.11617854
P        4.87014921       0.53515755       9.21165558       0.00000000 NULL      -0.41257055       0.45633230      -0.11617854
30
Lattice="6.08558789997456 -1.968024968502187e-14 4.1273609607572235e-27 -3.0427939499872627 5.27027371834117 8.254472358807424e-27 1.4732043813744858e-26 4.2527740406114523e-26 21.683440247935376" Properties=species:S:1:pos:R:3:initial_magmoms:R:1:castep_labels:S:1:forces:R:3 n_minim_iter=6 energy=-154.46882446354053 stress="-0.009759929315697963 -8.378924743856374e-12 -2.870503159937785e-12 -8.378924743856374e-12 -0.009759929329138928 2.8151047528166194e-12 -2.870503159937785e-12 2.8151047528166194e-12 0.010492202689220898" free_energy=-154.46882446354053 pbc="T T T"
P        3.83060445       0.64690955       2.21638444       0.00000000 NULL       1.23223872       0.99570973       0.70034807
P        1.68773183       1.62941818      16.67201127       0.00000000 NULL       0.24619056      -1.56500490       0.70034807
P        3.61004557       2.99394599       9.44419785       0.00000000 NULL      -1.47842928       0.56929517       0.70034807
P        1.85401346       2.13026520       0.07885479       0.00000000 NULL      -0.25840918       0.01935674       0.33613253
P        3.96065100       2.59951836      14.53448162       0.00000000 NULL       0.14596802       0.21411054       0.33613253
P        3.31371739       0.54049016       7.30666820       0.00000000 NULL       0.11244116      -0.23346728       0.33613253
P        4.26477961       1.83099841       4.01249673       0.00000000 NULL      -0.22912841      -0.39441557      -0.13883497
P        2.49609528       0.66136703      18.46812356       0.00000000 NULL      -0.22700969       0.39563881      -0.13883497
P        2.36750696       2.77790828      11.24031014       0.00000000 NULL       0.45613811      -0.00122324      -0.13883498
P        3.05621530       4.06292767      20.97675834       0.00000000 NULL       0.79432219      -0.01267301      -0.58857880
P        5.03328487       0.59204979      13.74894492       0.00000000 NULL      -0.40813625      -0.68156669      -0.58857880
P        1.03888167       0.61529626       6.52113151       0.00000000 NULL      -0.38618594       0.69423970      -0.58857880
P       -0.85702275       5.33131598      13.81226046       0.00000000 NULL       0.47996950       0.15080039      -0.37080236
P        2.00277250       3.34681920       6.58444705       0.00000000 NULL      -0.10938779      -0.49106598      -0.37080236
P       -1.14574975       1.86241225      21.04007388       0.00000000 NULL      -0.37058172       0.34026559      -0.37080236
P        0.15832743       3.65120776      21.38925967       0.00000000 NULL      -0.34054632       0.06579156       1.18052003
P        0.04008101       3.30755426      14.16144625       0.00000000 NULL       0.22725033       0.26202598       1.18052003
P       -0.19840844       3.58178541       6.93363284       0.00000000 NULL       0.11329599      -0.32781755       1.18052003
P        4.84127217       0.27673108       5.60141542       0.00000000 NULL      -0.06883257       0.32403190      -0.46488480
P        0.86181400       0.93924349      20.05704225       0.00000000 NULL       0.31503614      -0.10240520      -0.46488480
P        3.42529567       4.05429915      12.82922883       0.00000000 NULL      -0.24620357      -0.22162670      -0.46488480
P       -0.43674267       2.68967235       9.15283327       0.00000000 NULL       1.31041345      -0.32012260      -0.57415849
P       -0.49509803       4.30366779       1.92501985       0.00000000 NULL      -0.93244102      -0.97479004      -0.57415849
P        0.93184070       3.54720730      16.38064669       0.00000000 NULL      -0.37797242       1.29491263      -0.57415849
P        5.46029841       0.26401844       0.81337461       0.00000000 NULL      -0.79641904      -0.35439516      -0.04861178
P        0.54129142       0.40950736      15.26900145       0.00000000 NULL       0.09129430       0.86691670      -0.04861178
P        3.12679201       4.59674791       8.04118803       0.00000000 NULL       0.70512474      -0.51252154      -0.04861178
P        1.05395841       0.77066450       1.97649040       0.00000000 NULL       0.70460930       0.52084087      -0.03112943
P        3.18322977       3.97218671      16.43211723       0.00000000 NULL       0.09875677      -0.87062999      -0.03112943
P        4.89119366       0.52742251       9.20430381       0.00000000 NULL      -0.80336608       0.34978912      -0.03112943
30
Lattice="6.068322506759811 -2.1481928457231818e-14 9.68328318130382e-27 -3.034161253379887 5.255321449210869 1.93663172486298e-26 3.4557466794976285e-26 9.975880147667407e-26 21.56939988903915" Properties=species:S:1:pos:R:3:initial_magmoms:R:1:castep_labels:S:1:forces:R:3 n_minim_iter=7 energy=-155.02631135545914 stress="-0.01273796114432197 9.304847923543361e-12 -2.2845423024608797e-12 9.304847923543361e-12 -0.012737961135986785 3.853969332859468e-12 -2.2845423024608797e-12 3.853969332859468e-12 0.008736622869749746" free_energy=-155.02631135545914 pbc="T T T"
P        3.81049512       0.60650650       2.18460491       0.00000000 NULL       1.06056531       1.50212591       1.36122418
P        1.65416373       1.65208262      16.56420483       0.00000000 NULL       0.77059655      -1.66953946       1.36122418
P        3.63782490       2.99673233       9.37440487       0.00000000 NULL      -1.83116186       0.16741354       1.36122418
P        1.86321856       2.15198858       0.07348565       0.00000000 NULL      -0.44050826      -0.14640219       0.35292684
P        3.96622875       2.56573255      14.45308557       0.00000000 NULL       0.09346611       0.45469244       0.35292684
P        3.27303644       0.53760032       7.26328561       0.00000000 NULL       0.34704215      -0.30829025       0.35292684
P        4.21126390       1.84202765       4.00827927       0.00000000 NULL      -0.24854775      -0.55751436      -0.42096957
P        2.52377204       0.68724610      18.38787920       0.00000000 NULL      -0.35854773       0.49400584      -0.42096957
P        2.36744782       2.72604770      11.19807923       0.00000000 NULL       0.60709547       0.06350852      -0.42096957
P        3.18951676       4.06332276      20.79934642       0.00000000 NULL       0.46799770       0.33766379      -0.29249673
P        4.95834361       0.46145753      13.60954645       0.00000000 NULL       0.05842657      -0.57412979      -0.29249673
P        0.95462339       0.73054116       6.41974649       0.00000000 NULL      -0.52642428       0.23646600      -0.29249673
P       -0.81907404       5.32869538      13.73503983       0.00000000 NULL       0.28013123       0.17869166      -0.39133195
P        1.99016133       3.30031268       6.54523987       0.00000000 NULL       0.01468590      -0.33194659      -0.39133195
P       -1.17108730       1.88163484      20.92483979       0.00000000 NULL      -0.29481713       0.15325493      -0.39133194
P        0.11947394       3.61859774      21.35636653       0.00000000 NULL      -0.24504720       0.28129653       0.96099450
P        0.03989935       3.34255511      14.16656657       0.00000000 NULL       0.36613354       0.07156884       0.96099450
P       -0.15937329       3.54949005       6.97676661       0.00000000 NULL      -0.12108634      -0.35286536       0.96099450
P        4.80024526       0.26805985       5.54165575       0.00000000 NULL       0.06689093       0.43003424      -0.21357439
P        0.86618526       0.96415719      19.92125568       0.00000000 NULL       0.33897511      -0.27294636      -0.21357439
P        3.43605324       4.02310441      12.73145572       0.00000000 NULL      -0.40586604      -0.15708787      -0.21357439
P       -0.40152418       2.65487087       9.16245290       0.00000000 NULL       1.60650571      -0.31797741      -0.58758808
P       -0.53421355       4.27561615       1.97265294       0.00000000 NULL      -1.07862937      -1.23228605      -0.58758808
P        0.93573772       3.58015588      16.35225286       0.00000000 NULL      -0.52787634       1.55026346      -0.58758808