56
Lattice="5.02282 0.0 0.0 0.0 13.179469999999997 0.0 0.0 0.0 19.284749999999995" Properties=species:S:1:pos:R:3:initial_magmoms:R:1:castep_labels:S:1 n_minim_iter=1 pbc="T T T"
P        3.37935832       0.47631132       6.87597376       0.00000000 NULL
P        3.37935832      12.70315868      12.40877624       0.00000000 NULL
P        0.86794832      12.70315868       6.87597376       0.00000000 NULL
P        0.86794832       0.47631132      12.40877624       0.00000000 NULL
P        1.24036631       9.58118211       8.12245514       0.00000000 NULL
P        1.24036631       3.59828789      11.16229486       0.00000000 NULL
P        3.75177631       3.59828789       8.12245514       0.00000000 NULL
P        3.75177631       9.58118211      11.16229486       0.00000000 NULL
P        3.76870623       0.12147781      14.31083114       0.00000000 NULL
P        3.76870623      13.05799219       4.97391886       0.00000000 NULL
P        1.25729623      13.05799219      14.31083114       0.00000000 NULL
P        1.25729623       0.12147781       4.97391886       0.00000000 NULL
P        0.05114235      12.73757555       8.73711798       0.00000000 NULL
P        0.05114235       0.44189445      10.54763202       0.00000000 NULL
P        2.56255235       0.44189445       8.73711798       0.00000000 NULL
P        2.56255235      12.73757555      10.54763202       0.00000000 NULL
P        3.76390492       4.95731135      14.46477165       0.00000000 NULL
P        3.76390492       8.22215865       4.81997835       0.00000000 NULL
P        1.25249492       8.22215865      14.46477165       0.00000000 NULL
P        1.25249492       4.95731135       4.81997835       0.00000000 NULL
P        2.69179604       4.97961365      11.18687327       0.00000000 NULL
P        2.69179604       8.19985635       8.09787673       0.00000000 NULL
P        0.18038604       8.19985635      11.18687327       0.00000000 NULL
P        0.18038604       4.97961365       8.09787673       0.00000000 NULL
P        4.56301147       7.79388782      15.46924871       0.00000000 NULL
P        4.56301147       5.38558218       3.81550129       0.00000000 NULL
P        2.05160147       5.38558218      15.46924871       0.00000000 NULL
P        2.05160147       7.79388782       3.81550129       0.00000000 NULL
P        1.59454293       8.80927768       5.49057467       0.00000000 NULL
P        1.59454293       4.37019232      13.79417533       0.00000000 NULL
P        4.10595293       4.37019232       5.49057467       0.00000000 NULL
P        4.10595293       8.80927768      13.79417533       0.00000000 NULL
P        3.36766118      10.16740889       5.23206646       0.00000000 NULL
P        3.36766118       3.01206111      14.05268354       0.00000000 NULL
P        0.85625118       3.01206111       5.23206646       0.00000000 NULL
P        0.85625118      10.16740889      14.05268354       0.00000000 NULL
P        3.44557616       7.61208362      12.26779315       0.00000000 NULL
P        3.44557616       5.56738638       7.01695685       0.00000000 NULL
P        0.93416616       5.56738638      12.26779315       0.00000000 NULL
P        0.93416616       7.61208362       7.01695685       0.00000000 NULL
P        2.09455512       2.92124402       7.12637081       0.00000000 NULL
P        2.09455512      10.25822598      12.15837919       0.00000000 NULL
P        4.60596512      10.25822598       7.12637081       0.00000000 NULL
P        4.60596512       2.92124402      12.15837919       0.00000000 NULL
P        5.02088923      10.75599347       9.16475731       0.00000000 NULL
P        5.02088923       2.42347653      10.11999269       0.00000000 NULL
P        2.50947923       2.42347653       9.16475731       0.00000000 NULL
P        2.50947923      10.75599347      10.11999269       0.00000000 NULL
P        2.54863512       6.47417214       5.40075788       0.00000000 NULL
P        2.54863512       6.70529786      13.88399212       0.00000000 NULL
P        0.03722512       6.70529786       5.40075788       0.00000000 NULL
P        0.03722512       6.47417214      13.88399212       0.00000000 NULL
P        2.57739529       7.18978177       1.98044740       0.00000000 NULL
P        2.57739529       5.98968823      17.30430260       0.00000000 NULL
P        0.06598529       5.98968823       1.98044740       0.00000000 NULL
P        0.06598529       7.18978177      17.30430260       0.00000000 NULL
56
Lattice="5.079418335624871 0.0 0.0 0.0 13.37702232661156 0.0 0.0 0.0 19.62936882862462" Properties=species:S:1:pos:R:3:initial_magmoms:R:1:castep_labels:S:1 n_minim_iter=2 pbc="T T T"
P        3.41753985       0.48356216       6.99872737       0.00000000 NULL
P        3.41753985      12.89346016      12.63064146       0.00000000 NULL
P        0.87783069      12.89346016       6.99872737       0.00000000 NULL
P        0.87783069       0.48356216      12.63064146       0.00000000 NULL
P        1.25453739       9.72480076       8.26757544       0.00000000 NULL
P        1.25453739       3.65222157      11.36179339       0.00000000 NULL
P        3.79424656       3.65222157       8.26757544       0.00000000 NULL
P        3.79424656       9.72480076      11.36179339       0.00000000 NULL
P        3.81118440       0.12337194      14.56675658       0.00000000 NULL
P        3.81118440      13.25365039       5.06261225       0.00000000 NULL
P        1.27147524      13.25365039      14.56675658       0.00000000 NULL
P        1.27147524       0.12337194       5.06261225       0.00000000 NULL
P        0.05163035      12.92868602       8.89309332       0.00000000 NULL
P        0.05163035       0.44833631      10.73627551       0.00000000 NULL
P        2.59133952       0.44833631       8.89309332       0.00000000 NULL
P        2.59133952      12.92868602      10.73627551       0.00000000 NULL
P        3.80665894       5.03144584      14.72330287       0.00000000 NULL
P        3.80665894       8.34557649       4.90606596       0.00000000 NULL
P        1.26694977       8.34557649      14.72330287       0.00000000 NULL
P        1.26694977       5.03144584       4.90606596       0.00000000 NULL
P        2.72240487       5.05446239      11.38665562       0.00000000 NULL
P        2.72240487       8.32255994       8.24271321       0.00000000 NULL
P        0.18269570       8.32255994      11.38665562       0.00000000 NULL
P        0.18269570       5.05446239       8.24271321       0.00000000 NULL
P        4.61424001       7.91067950      15.74608004       0.00000000 NULL
P        4.61424001       5.46634282       3.88328878       0.00000000 NULL
P        2.07453084       5.46634282      15.74608004       0.00000000 NULL
P        2.07453084       7.91067950       3.88328878       0.00000000 NULL
P        1.61235251       8.94183986       5.58871395       0.00000000 NULL
P        1.61235251       4.43518246      14.04065488       0.00000000 NULL
P        4.15206168       4.43518246       5.58871395       0.00000000 NULL
P        4.15206168       8.94183986      14.04065488       0.00000000 NULL
P        3.40553792      10.32010138       5.32553485       0.00000000 NULL
P        3.40553792       3.05692095      14.30383398       0.00000000 NULL
P        0.86582875       3.05692095       5.32553485       0.00000000 NULL
P        0.86582875      10.32010138      14.30383398       0.00000000 NULL
P        3.48438151       7.72613368      12.48662613       0.00000000 NULL
P        3.48438151       5.65088865       7.14274270       0.00000000 NULL
P        0.94467234       5.65088865      12.48662613       0.00000000 NULL
P        0.94467234       7.72613368       7.14274270       0.00000000 NULL
P        2.11799338       2.96493215       7.25351635       0.00000000 NULL
P        2.11799338      10.41209017      12.37585248       0.00000000 NULL
P        4.65770254      10.41209017       7.25351635       0.00000000 NULL
P        4.65770254       2.96493215      12.37585248       0.00000000 NULL
P        5.07726095      10.91720755       9.32890796       0.00000000 NULL
P        5.07726095       2.45981478      10.30046087       0.00000000 NULL
P        2.53755178       2.45981478       9.32890796       0.00000000 NULL
P        2.53755178      10.91720755      10.30046087       0.00000000 NULL
P        2.57730029       6.57119012       5.49715261       0.00000000 NULL
P        2.57730029       6.80583221      14.13221622       0.00000000 NULL
P        0.03759113       6.80583221       5.49715261       0.00000000 NULL
P        0.03759113       6.57119012      14.13221622       0.00000000 NULL
P        2.60645964       7.29744498       2.01574912       0.00000000 NULL
P        2.60645964       6.07957735      17.61361971       0.00000000 NULL
P        0.06675047       6.07957735       2.01574912       0.00000000 NULL
P        0.06675047       7.29744498      17.61361971       0.00000000 NULL
56
Lattice="5.2535813159869935 0.0 0.0 0.0 14.007648024928589 0.0 0.0 0.0 20.736408354386718" Properties=species:S:1:pos:R:3:initial_magmoms:R:1:castep_labels:S:1 n_minim_iter=3 pbc="T T T"
P        3.53511809       0.50672832       7.39288116       0.00000000 NULL
P        3.53511809      13.50091971      13.34352720       0.00000000 NULL
P        0.90832743      13.50091971       7.39288116       0.00000000 NULL
P        0.90832743       0.50672832      13.34352720       0.00000000 NULL
P        1.29821804      10.18323971       8.73366446       0.00000000 NULL
P        1.29821804       3.82440832      12.00274390       0.00000000 NULL
P        3.92500870       3.82440832       8.73366446       0.00000000 NULL
P        3.92500870      10.18323971      12.00274390       0.00000000 NULL
P        3.94186888       0.12942431      15.38876474       0.00000000 NULL
P        3.94186888      13.87822371       5.34764361       0.00000000 NULL
P        1.31507822      13.87822371      15.38876474       0.00000000 NULL
P        1.31507822       0.12942431       5.34764361       0.00000000 NULL
P        0.05308543      13.53884068       9.39401781       0.00000000 NULL
P        0.05308543       0.46880735      11.34239054       0.00000000 NULL
P        2.67987609       0.46880735       9.39401781       0.00000000 NULL
P        2.67987609      13.53884068      11.34239054       0.00000000 NULL
P        3.93839066       5.26788635      15.55383056       0.00000000 NULL
P        3.93839066       8.73976168       5.18257780       0.00000000 NULL
P        1.31160000       8.73976168      15.55383056       0.00000000 NULL
P        1.31160000       5.26788635       5.18257780       0.00000000 NULL
P        2.81666087       5.29348337      12.02837460       0.00000000 NULL
P        2.81666087       8.71416466       8.70803376       0.00000000 NULL
P        0.18987021       8.71416466      12.02837460       0.00000000 NULL
P        0.18987021       5.29348337       8.70803376       0.00000000 NULL
P        4.77191130       8.28344955      16.63565847       0.00000000 NULL
P        4.77191130       5.72419848       4.10074988       0.00000000 NULL
P        2.14512065       5.72419848      16.63565847       0.00000000 NULL
P        2.14512065       8.28344955       4.10074988       0.00000000 NULL
P        1.66705245       9.36528945       5.90400084       0.00000000 NULL
P        1.66705245       4.64235857      14.83240751       0.00000000 NULL
P        4.29384311       4.64235857       5.90400084       0.00000000 NULL
P        4.29384311       9.36528945      14.83240751       0.00000000 NULL
P        3.52200167      10.80752409       5.62582150       0.00000000 NULL
P        3.52200167       3.20012393      15.11058686       0.00000000 NULL
P        0.89521101       3.20012393       5.62582150       0.00000000 NULL
P        0.89521101      10.80752409      15.11058686       0.00000000 NULL
P        3.60384106       8.09031490      13.18933000       0.00000000 NULL
P        3.60384106       5.91733312       7.54707835       0.00000000 NULL
P        0.97705040       5.91733312      13.18933000       0.00000000 NULL
P        0.97705040       8.09031490       7.54707835       0.00000000 NULL
P        2.19013471       3.10433521       7.66191016       0.00000000 NULL
P        2.19013471      10.90331281      13.07449819       0.00000000 NULL
P        4.81692537      10.90331281       7.66191016       0.00000000 NULL
P        4.81692537       3.10433521      13.07449819       0.00000000 NULL
P        5.25061699      11.43183589       9.85637908       0.00000000 NULL
P        5.25061699       2.57581214      10.88002928       0.00000000 NULL
P        2.62382633       2.57581214       9.85637908       0.00000000 NULL
P        2.62382633      11.43183589      10.88002928       0.00000000 NULL
P        2.66543935       6.88085763       5.80670170       0.00000000 NULL
P        2.66543935       7.12679039      14.92970665       0.00000000 NULL
P        0.03864869       7.12679039       5.80670170       0.00000000 NULL
P        0.03864869       6.88085763      14.92970665       0.00000000 NULL
P        2.69584511       7.64106056       2.12935996       0.00000000 NULL
P        2.69584511       6.36658747      18.60704839       0.00000000 NULL
P        0.06905445       6.36658747       2.12935996       0.00000000 NULL
P        0.06905445       7.64106056      18.60704839       0.00000000 NULL
56
Lattice="5.262237812022795 0.0 0.0 0.0 14.173894503622108 0.0 0.0 0.0 21.101973627332605" Properties=species:S:1:pos:R:3:initial_magmoms:R:1:castep_labels:S:1 n_minim_iter=4 pbc="T T T"
P        3.54127030       0.51282435       7.52242103       0.00000000 NULL
P        3.54127030      13.66107016      13.57955260       0.00000000 NULL
P        0.91015139      13.66107016       7.52242103       0.00000000 NULL
P        0.91015139       0.51282435      13.57955260       0.00000000 NULL
P        1.30068673      10.30409439       8.88717299       0.00000000 NULL
P        1.30068673       3.86980012      12.21480064       0.00000000 NULL
P        3.93180563       3.86980012       8.88717299       0.00000000 NULL
P        3.93180563      10.30409439      12.21480064       0.00000000 NULL
P        3.94826126       0.13089314      15.65967555       0.00000000 NULL
P        3.94826126      14.04300136       5.44229807       0.00000000 NULL
P        1.31714235      14.04300136      15.65967555       0.00000000 NULL
P        1.31714235       0.13089314       5.44229807       0.00000000 NULL
P        0.05297751      13.69977671       9.55913008       0.00000000 NULL
P        0.05297751       0.47411779      11.54284354       0.00000000 NULL
P        2.68409641       0.47411779       9.55913008       0.00000000 NULL
P        2.68409641      13.69977671      11.54284354       0.00000000 NULL
P        3.94562294       5.32948188      15.82818754       0.00000000 NULL
P        3.94562294       8.84441262       5.27378609       0.00000000 NULL
P        1.31450403       8.84441262      15.82818754       0.00000000 NULL
P        1.31450403       5.32948188       5.27378609       0.00000000 NULL
P        2.82163514       5.35679306      12.24026869       0.00000000 NULL
P        2.82163514       8.81710145       8.86170494       0.00000000 NULL
P        0.19051624       8.81710145      12.24026869       0.00000000 NULL
P        0.19051624       5.35679306       8.86170494       0.00000000 NULL
P        4.77988071       8.38140299      16.93032959       0.00000000 NULL
P        4.77988071       5.79249152       4.17164404       0.00000000 NULL
P        2.14876181       5.79249152      16.93032959       0.00000000 NULL
P        2.14876181       8.38140299       4.17164404       0.00000000 NULL
P        1.66941587       9.47788496       6.00823579       0.00000000 NULL
P        1.66941587       4.69600954      15.09373784       0.00000000 NULL
P        4.30053478       4.69600954       6.00823579       0.00000000 NULL
P        4.30053478       9.47788496      15.09373784       0.00000000 NULL
P        3.52747398      10.93585716       5.72513826       0.00000000 NULL
P        3.52747398       3.23803735      15.37683537       0.00000000 NULL
P        0.89635507       3.23803735       5.72513826       0.00000000 NULL
P        0.89635507      10.93585716      15.37683537       0.00000000 NULL
P        3.60999225       8.18669345      13.42071190       0.00000000 NULL
P        3.60999225       5.98720106       7.68126172       0.00000000 NULL
P        0.97887334       5.98720106      13.42071190       0.00000000 NULL
P        0.97887334       8.18669345       7.68126172       0.00000000 NULL
P        2.19371208       3.14086030       7.79679666       0.00000000 NULL
P        2.19371208      11.03303421      13.30517697       0.00000000 NULL
P        4.82483099      11.03303421       7.79679666       0.00000000 NULL
P        4.82483099       3.14086030      13.30517697       0.00000000 NULL
P        5.25879857      11.56768289      10.03083837       0.00000000 NULL
P        5.25879857       2.60621161      11.07113525       0.00000000 NULL
P        2.62767967       2.60621161      10.03083837       0.00000000 NULL
P        2.62767967      11.56768289      11.07113525       0.00000000 NULL
P        2.66952934       6.96230582       5.90870349       0.00000000 NULL
P        2.66952934       7.21158868      15.19327013       0.00000000 NULL
P        0.03841044       7.21158868       5.90870349       0.00000000 NULL
P        0.03841044       6.96230582      15.19327013       0.00000000 NULL
P        2.70005061       7.73128400       2.16743986       0.00000000 NULL
P        2.70005061       6.44261050      18.93453376       0.00000000 NULL
P        0.06893170       6.44261050       2.16743986       0.00000000 NULL
P        0.06893170       7.73128400      18.93453376       0.00000000 NULL
56
Lattice="5.221653108685862 0.0 0.0 0.0 14.260548498105065 0.0 0.0 0.0 21.37452149547689" Properties=species:S:1:pos:R:3:initial_magmoms:R:1:castep_labels:S:1 n_minim_iter=5 pbc="T T T"
P        3.51432623       0.51596604       7.61845105       0.00000000 NULL
P        3.51432623      13.74458246      13.75607044       0.00000000 NULL
P        0.90349967      13.74458246       7.61845105       0.00000000 NULL
P        0.90349967       0.51596604      13.75607044       0.00000000 NULL
P        1.29097898      10.36709424       9.00126863       0.00000000 NULL
P        1.29097898       3.89345426      12.37325286       0.00000000 NULL
P        3.90180553       3.89345426       9.00126863       0.00000000 NULL
P        3.90180553      10.36709424      12.37325286       0.00000000 NULL
P        3.91766627       0.13147708      15.86121308       0.00000000 NULL
P        3.91766627      14.12907142       5.51330842       0.00000000 NULL
P        1.30683971      14.12907142      15.86121308       0.00000000 NULL
P        1.30683971       0.13147708       5.51330842       0.00000000 NULL
P        0.05237073      13.78373739       9.68204409       0.00000000 NULL
P        0.05237073       0.47681111      11.69247741       0.00000000 NULL
P        2.66319729       0.47681111       9.68204409       0.00000000 NULL
P        2.66319729      13.78373739      11.69247741       0.00000000 NULL
P        3.91604388       5.36075171      16.03284427       0.00000000 NULL
P        3.91604388       8.89979679       5.34167723       0.00000000 NULL
P        1.30521733       8.89979679      16.03284427       0.00000000 NULL
P        1.30521733       5.36075171       5.34167723       0.00000000 NULL
P        2.80015626       5.39015138      12.39826677       0.00000000 NULL
P        2.80015626       8.87039712       8.97625472       0.00000000 NULL
P        0.18932971       8.87039712      12.39826677       0.00000000 NULL
P        0.18932971       5.39015138       8.97625472       0.00000000 NULL
P        4.74330223       8.43208995      17.15076766       0.00000000 NULL
P        4.74330223       5.82845855       4.22375383       0.00000000 NULL
P        2.13247567       5.82845855      17.15076766       0.00000000 NULL
P        2.13247567       8.43208995       4.22375383       0.00000000 NULL
P        1.65609282       9.53760465       6.08605683       0.00000000 NULL
P        1.65609282       4.72294385      15.28846467       0.00000000 NULL
P        4.26691937       4.72294385       6.08605683       0.00000000 NULL
P        4.26691937       9.53760465      15.28846467       0.00000000 NULL
P        3.49984913      11.00256292       5.79934348       0.00000000 NULL
P        3.49984913       3.25798558      15.57517802       0.00000000 NULL
P        0.88902258       3.25798558       5.79934348       0.00000000 NULL
P        0.88902258      11.00256292      15.57517802       0.00000000 NULL
P        3.58252775       8.23735539      13.59273206       0.00000000 NULL
P        3.58252775       6.02319311       7.78178944       0.00000000 NULL
P        0.97170120       6.02319311      13.59273206       0.00000000 NULL
P        0.97170120       8.23735539       7.78178944       0.00000000 NULL
P        2.17684537       3.15960771       7.89740292       0.00000000 NULL
P        2.17684537      11.10094078      13.47711857       0.00000000 NULL
P        4.78767192      11.10094078       7.89740292       0.00000000 NULL
P        4.78767192       3.15960771      13.47711857       0.00000000 NULL
P        5.21769891      11.63872045      10.16109241       0.00000000 NULL
P        5.21769891       2.62182805      11.21342908       0.00000000 NULL
P        2.60687236       2.62182805      10.16109241       0.00000000 NULL
P        2.60687236      11.63872045      11.21342908       0.00000000 NULL
P        2.64852689       7.00455516       5.98460052       0.00000000 NULL
P        2.64852689       7.25599333      15.38992098       0.00000000 NULL
P        0.03770034       7.25599333       5.98460052       0.00000000 NULL
P        0.03770034       7.00455516      15.38992098       0.00000000 NULL
P        2.67885038       7.77777691       2.19621874       0.00000000 NULL
P        2.67885038       6.48277159      19.17830275       0.00000000 NULL
P        0.06802382       6.48277159       2.19621874       0.00000000 NULL
P        0.06802382       7.77777691      19.17830275       0.00000000 NULL
56
Lattice="5.14781278050047 0.0 0.0 0.0 14.30712780226366 0.0 0.0 0.0 21.624454726807922" Properties=species:S:1:pos:R:3:initial_magmoms:R:1:castep_labels:S:1 n_minim_iter=6 pbc="T T T"
P        3.46503318       0.51757149       7.70602444       0.00000000 NULL
P        3.46503318      13.78955631      13.91843029       0.00000000 NULL
P        0.89112679      13.78955631       7.70602444       0.00000000 NULL
P        0.89112679       0.51757149      13.91843029       0.00000000 NULL
P        1.27306071      10.40099521       9.10560250       0.00000000 NULL
P        1.27306071       3.90613259      12.51885222       0.00000000 NULL
P        3.84696710       3.90613259       9.10560250       0.00000000 NULL
P        3.84696710      10.40099521      12.51885222       0.00000000 NULL
P        3.86209302       0.13157990      16.04569987       0.00000000 NULL
P        3.86209302      14.17554791       5.57875486       0.00000000 NULL
P        1.28818663      14.17554791      16.04569987       0.00000000 NULL
P        1.28818663       0.13157990       5.57875486       0.00000000 NULL
P        0.05143918      13.82900327       9.79470303       0.00000000 NULL
P        0.05143918       0.47812453      11.82975170       0.00000000 NULL
P        2.62534557       0.47812453       9.79470303       0.00000000 NULL
P        2.62534557      13.82900327      11.82975170       0.00000000 NULL
P        3.86169581       5.37650227      16.22063245       0.00000000 NULL
P        3.86169581       8.93062553       5.40382227       0.00000000 NULL
P        1.28778942       8.93062553      16.22063245       0.00000000 NULL
P        1.28778942       5.37650227       5.40382227       0.00000000 NULL
P        2.76087967       5.40854481      12.54317390       0.00000000 NULL
P        2.76087967       8.89858299       9.08128083       0.00000000 NULL
P        0.18697328       8.89858299      12.54317390       0.00000000 NULL
P        0.18697328       5.40854481       9.08128083       0.00000000 NULL
P        4.67657909       8.45891563      17.35352032       0.00000000 NULL
P        4.67657909       5.84821217       4.27093440       0.00000000 NULL
P        2.10267270       5.84821217      17.35352032       0.00000000 NULL
P        2.10267270       8.45891563       4.27093440       0.00000000 NULL
P        1.63213343       9.57091881       6.15752935       0.00000000 NULL
P        1.63213343       4.73620899      15.46692538       0.00000000 NULL
P        4.20603982       4.73620899       6.15752935       0.00000000 NULL
P        4.20603982       9.57091881      15.46692538       0.00000000 NULL
P        3.44984763      11.03822250       5.86756348       0.00000000 NULL
P        3.44984763       3.26890531      15.75689125       0.00000000 NULL
P        0.87594124       3.26890531       5.86756348       0.00000000 NULL
P        0.87594124      11.03822250      15.75689125       0.00000000 NULL
P        3.53235828       8.26512406      13.75016136       0.00000000 NULL
P        3.53235828       6.04200374       7.87429336       0.00000000 NULL
P        0.95845189       6.04200374      13.75016136       0.00000000 NULL
P        0.95845189       8.26512406       7.87429336       0.00000000 NULL
P        2.14613788       3.16932020       7.98968445       0.00000000 NULL
P        2.14613788      11.13780760      13.63477028       0.00000000 NULL
P        4.72004427      11.13780760       7.98968445       0.00000000 NULL
P        4.72004427       3.16932020      13.63477028       0.00000000 NULL
P        5.14329070      11.67718848      10.28069362       0.00000000 NULL
P        5.14329070       2.62993933      11.34376111       0.00000000 NULL
P        2.56938431       2.62993933      10.28069362       0.00000000 NULL
P        2.56938431      11.67718848      11.34376111       0.00000000 NULL
P        2.61057628       7.02702168       6.05413632       0.00000000 NULL
P        2.61057628       7.28010612      15.57031841       0.00000000 NULL
P        0.03666989       7.28010612       6.05413632       0.00000000 NULL
P        0.03666989       7.02702168      15.57031841       0.00000000 NULL
P        2.64049121       7.80200568       2.22290677       0.00000000 NULL
P        2.64049121       6.50512212      19.40154795       0.00000000 NULL
P        0.06658482       6.50512212       2.22290677       0.00000000 NULL
P        0.06658482       7.80200568      19.40154795       0.00000000 NULL
56
Lattice="4.427721773057321 0.0 0.0 0.0 14.759871084498366 0.0 0.0 0.0 24.436266129121922" Properties=species:S:1:pos:R:3:initial_magmoms:R:1:castep_labels:S:1 n_minim_iter=7 pbc="T T T"
P        2.98370028       0.53214817       8.68821971       0.00000000 NULL
P        2.98370028      14.22772292      15.74804642       0.00000000 NULL
P        0.76983939      14.22772292       8.68821971       0.00000000 NULL
P        0.76983939       0.53214817      15.74804642       0.00000000 NULL
P        1.09781537      10.73118315      10.27812468       0.00000000 NULL
P        1.09781537       4.02868794      14.15814145       0.00000000 NULL
P        3.31167625       4.02868794      10.27812468       0.00000000 NULL
P        3.31167625      10.73118315      14.15814145       0.00000000 NULL
P        3.32025248       0.13209035      18.12029016       0.00000000 NULL
P        3.32025248      14.62778073       6.31597597       0.00000000 NULL
P        1.10639159      14.62778073      18.12029016       0.00000000 NULL
P        1.10639159       0.13209035       6.31597597       0.00000000 NULL
P        0.04303968      14.27035568      11.06334905       0.00000000 NULL
P        0.04303968       0.48951540      13.37291708       0.00000000 NULL
P        2.25690056       0.48951540      11.06334905       0.00000000 NULL
P        2.25690056      14.27035568      13.37291708       0.00000000 NULL
P        3.33154851       5.52557545      18.33407157       0.00000000 NULL
P        3.33154851       9.23429563       6.10219456       0.00000000 NULL
P        1.11768763       9.23429563      18.33407157       0.00000000 NULL
P        1.11768763       5.52557545       6.10219456       0.00000000 NULL
P        2.37846416       5.58943529      14.17354256       0.00000000 NULL
P        2.37846416       9.17043579      10.26272357       0.00000000 NULL
P        0.16460327       9.17043579      14.17354256       0.00000000 NULL
P        0.16460327       5.58943529      10.26272357       0.00000000 NULL
P        4.02465172       8.71888550      19.63744811       0.00000000 NULL
P        4.02465172       6.04098559       4.79881802       0.00000000 NULL
P        1.81079083       6.04098559      19.63744811       0.00000000 NULL
P        1.81079083       8.71888550       4.79881802       0.00000000 NULL
P        1.39850386       9.89774048       6.96238178       0.00000000 NULL
P        1.39850386       4.86213060      17.47388435       0.00000000 NULL
P        3.61236475       4.86213060       6.96238178       0.00000000 NULL
P        3.61236475       9.89774048      17.47388435       0.00000000 NULL
P        2.96268424      11.38491081       6.63650027       0.00000000 NULL
P        2.96268424       3.37496027      17.79976586       0.00000000 NULL
P        0.74882336       3.37496027       6.63650027       0.00000000 NULL
P        0.74882336      11.38491081      17.79976586       0.00000000 NULL
P        3.04253407       8.53699789      15.52099051       0.00000000 NULL
P        3.04253407       6.22287320       8.91527562       0.00000000 NULL
P        0.82867319       6.22287320      15.52099051       0.00000000 NULL
P        0.82867319       8.53699789       8.91527562       0.00000000 NULL
P        1.84615903       3.26232719       9.02722399       0.00000000 NULL