8
Lattice="3.8907400000000014 -5.48395120644582e-16 -4.155249222774773e-16 0.2688700897447948 4.680553863352139 -1.2645396724810418e-15 0.02661198139559417 1.0176109099125668 9.695788811895252" Properties=species:S:1:pos:R:3:initial_magmoms:R:1:castep_labels:S:1 n_minim_iter=1 pbc="T T T"
P        1.49780689       0.13227831       0.54422850       0.00000000 NULL
P        1.31619367       2.16081267       0.86340515       0.00000000 NULL
P        3.63830529       4.74994660       4.15370889       0.00000000 NULL
P        3.37019316       2.94143628       5.12952895       0.00000000 NULL
P        1.70875374       4.87968292       4.70184868       0.00000000 NULL
P        1.43993268       1.25000272       2.94455386       0.00000000 NULL
P        0.33314269       1.14539174       7.27958757       0.00000000 NULL
P        4.06990383       3.33330654       2.74742102       0.00000000 NULL
8
Lattice="3.8977460637574675 0.0008594251936401534 8.681513460598913e-05 0.2703881317886173 4.684566261464776 -8.932817496723766e-06 0.027101026385104893 1.01844528935415 9.699846395310722" Properties=species:S:1:pos:R:3:initial_magmoms:R:1:castep_labels:S:1 n_minim_iter=2 pbc="T T T"
P        1.50056362       0.13265742       0.54448889       0.00000000 NULL
P        1.31900510       2.16305097       0.86373289       0.00000000 NULL
P        3.64603009       4.75494330       4.15549903       0.00000000 NULL
P        3.37699815       2.94453165       5.13180510       0.00000000 NULL
P        1.71293404       4.88407382       4.70429823       0.00000000 NULL
P        1.44283627       1.25158332       2.94550614       0.00000000 NULL
P        0.33424139       1.14642837       7.28262005       0.00000000 NULL
P        4.07809075       3.33672815       2.74853217       0.00000000 NULL
8
Lattice="4.274111146221977 0.04898420000732449 0.004600382678150955 0.3542909148520408 4.895102867851105 3.179357174355138e-05 0.05351006789145667 1.0632629425913755 9.904769632896846" Properties=species:S:1:pos:R:3:initial_magmoms:R:1:castep_labels:S:1 n_minim_iter=3 pbc="T T T"
P        1.64868045       0.15384437       0.55777128       0.00000000 NULL
P        1.47102813       2.28161233       0.88036318       0.00000000 NULL
P        4.06344781       5.02047200       4.24654083       0.00000000 NULL
P        3.74362488       3.10988824       5.24712840       0.00000000 NULL
P        1.93951413       5.11586604       4.82942458       0.00000000 NULL
P        1.59931615       1.33617348       2.99304233       0.00000000 NULL
P        0.39390650       1.20193050       7.43577542       0.00000000 NULL
P        4.51947146       3.51912766       2.80496816       0.00000000 NULL
8
Lattice="4.288565115247244 0.09727248634733869 0.020018015058557062 0.4133804878207827 4.884518235187151 0.010185416502183645 0.10465957757219262 1.0793927138738453 9.628994570883258" Properties=species:S:1:pos:R:3:initial_magmoms:R:1:castep_labels:S:1 n_minim_iter=4 pbc="T T T"
P        1.65666223       0.17737734       0.55181933       0.00000000 NULL
P        1.50583908       2.29341892       0.86226979       0.00000000 NULL
P        4.15240869       5.06072596       4.15182966       0.00000000 NULL
P        3.81097179       3.15196722       5.11593517       0.00000000 NULL
P        2.02469069       5.12975019       4.72024812       0.00000000 NULL
P        1.62963244       1.36084302       2.90815584       0.00000000 NULL
P        0.44243476       1.21958588       7.22911392       0.00000000 NULL
P        4.58887179       3.55470339       2.75162779       0.00000000 NULL
8
Lattice="4.317055563421739 0.136670117513147 0.02463905071668727 0.46274460984322296 4.9459473430684096 0.006713387319375959 0.12667447253029518 1.084571887040619 9.492910987903217" Properties=species:S:1:pos:R:3:initial_magmoms:R:1:castep_labels:S:1 n_minim_iter=5 pbc="T T T"
P        1.66729321       0.19639193       0.54856837       0.00000000 NULL
P        1.53866863       2.33494692       0.84657952       0.00000000 NULL
P        4.23269256       5.15801161       4.09614795       0.00000000 NULL
P        3.86948178       3.21728284       5.04444850       0.00000000 NULL
P        2.09086781       5.20133540       4.66275625       0.00000000 NULL
P        1.65437528       1.39387082       2.85930932       0.00000000 NULL
P        0.47022762       1.23372512       7.12513166       0.00000000 NULL
P        4.65734120       3.62405188       2.71622962       0.00000000 NULL
8
Lattice="4.343218759837004 0.2217880032323536 0.03810735298748661 0.5669492983630361 5.037729124847248 -0.007012599283434607 0.18267897504273214 1.0734682935839275 9.17689931592809" Properties=species:S:1:pos:R:3:initial_magmoms:R:1:castep_labels:S:1 n_minim_iter=6 pbc="T T T"
P        1.67553345       0.23734982       0.54209241       0.00000000 NULL
P        1.59963168       2.40438032       0.80725374       0.00000000 NULL
P        4.37747901       5.32024375       3.96462189       0.00000000 NULL
P        3.97041293       3.32783290       4.87741615       0.00000000 NULL
P        2.22189579       5.30558958       4.52328128       0.00000000 NULL
P        1.69677047       1.44919097       2.74792930       0.00000000 NULL
P        0.53538220       1.24525025       6.88302004       0.00000000 NULL
P        4.76937269       3.73898536       2.63379966       0.00000000 NULL
8
Lattice="4.359194183508362 0.30481620162779205 0.058183105219533 0.6679360690964088 5.163766029554599 -0.08517495545222545 0.2545331190042828 0.935403192720065 8.948007042493485" Properties=species:S:1:pos:R:3:initial_magmoms:R:1:castep_labels:S:1 n_minim_iter=7 pbc="T T T"
P        1.67679256       0.27538839       0.54221001       0.00000000 NULL
P        1.66111720       2.48282647       0.73845471       0.00000000 NULL
P        4.51999664       5.46201579       3.82217737       0.00000000 NULL
P        4.07060402       3.39157900       4.72828704       0.00000000 NULL
P        2.34995675       5.37225495       4.37912115       0.00000000 NULL
P        1.73623456       1.47048745       2.64931069       0.00000000 NULL
P        0.61826920       1.16720920       6.69932807       0.00000000 NULL
P        4.87065295       3.82502968       2.54076965       0.00000000 NULL
8
Lattice="4.311231771205706 0.3322148927931927 0.08359168981593688 0.6975822011136658 5.129345033062842 -0.1123271949673119 0.3246897222415248 0.8678121253379991 8.74067122501705" Properties=species:S:1:pos:R:3:initial_magmoms:R:1:castep_labels:S:1 n_minim_iter=8 pbc="T T T"
P        1.65933525       0.29040730       0.54223201       0.00000000 NULL
P        1.67055326       2.47548680       0.70292623       0.00000000 NULL
P        4.53767400       5.42794842       3.73822928       0.00000000 NULL
P        4.08384443       3.36844492       4.62208110       0.00000000 NULL
P        2.39000866       5.31003091       4.27901219       0.00000000 NULL
P        1.73964091       1.44997141       2.58196986       0.00000000 NULL
P        0.68007337       1.12052055       6.53894265       0.00000000 NULL
P        4.85856537       3.79137547       2.49187524       0.00000000 NULL
8
Lattice="4.322616275120909 0.3443893766952961 0.09410427721188015 0.713014812969427 5.1891606457442965 -0.1383183027297963 0.3541493312375972 0.825371552504318 8.743905473820877" Properties=species:S:1:pos:R:3:initial_magmoms:R:1:castep_labels:S:1 n_minim_iter=9 pbc="T T T"
P        1.66431471       0.29582414       0.54588673       0.00000000 NULL
P        1.68676539       2.50807696       0.68738881       0.00000000 NULL
P        4.57639465       5.48066815       3.72922767       0.00000000 NULL
P        4.11604496       3.38849819       4.61891194       0.00000000 NULL
P        2.42000193       5.34520505       4.27001855       0.00000000 NULL
P        1.75272665       1.45198701       2.57791799       0.00000000 NULL
P        0.70951830       1.09624823       6.53754824       0.00000000 NULL
P        4.88584239       3.81960136       2.48600880       0.00000000 NULL
8
Lattice="4.3165405349599615 0.35388742944677953 0.10676109182167064 0.724021090103838 5.196464109789639 -0.15001206216808557 0.38813295288966143 0.8008461606061615 8.691107013835738" Properties=species:S:1:pos:R:3:initial_magmoms:R:1:castep_labels:S:1 n_minim_iter=10 pbc="T T T"
P        1.66331819       0.30111969       0.54770281       0.00000000 NULL
P        1.69568825       2.51573378       0.67541526       0.00000000 NULL
P        4.59724691       5.48791659       3.71069553       0.00000000 NULL
P        4.13436280       3.38996986       4.59467793       0.00000000 NULL
P        2.44228206       5.34000872       4.24620606       0.00000000 NULL
P        1.76000720       1.44732851       2.56089278       0.00000000 NULL
P        0.74011905       1.08062453       6.49557465       0.00000000 NULL
P        4.89399502       3.81890138       2.47624912       0.00000000 NULL
8
Lattice="4.306940145639417 0.3819620295443855 0.14601164917029236 0.7571313520104984 5.2385512873988205 -0.18713250470003964 0.49322315392344374 0.7272527158008699 8.556392706033018" Properties=species:S:1:pos:R:3:initial_magmoms:R:1:castep_labels:S:1 n_minim_iter=11 pbc="T T T"
P        1.66414466       0.31725160       0.55428499       0.00000000 NULL
P        1.72677305       2.54959977       0.63924415       0.00000000 NULL
P        4.66974420       5.52996481       3.66559760       0.00000000 NULL
P        4.19743956       3.40460394       4.53508744       0.00000000 NULL
P        2.51312739       5.34124978       4.18756299       0.00000000 NULL
P        1.78500395       1.43628650       2.51663306       0.00000000 NULL
P        0.83654657       1.03555059       6.38634694       0.00000000 NULL
P        4.92610664       3.82770957       2.45313347       0.00000000 NULL
8
Lattice="4.311391596322202 0.42013072364339643 0.20300464329121118 0.8033558467258471 5.339253880945663 -0.24518179490628453 0.6452639935089817 0.6204263178875313 8.453306670894746" Properties=species:S:1:pos:R:3:initial_magmoms:R:1:castep_labels:S:1 n_minim_iter=12 pbc="T T T"
P        1.67365542       0.34384546       0.56617969       0.00000000 NULL
P        1.78819724       2.62461635       0.57840091       0.00000000 NULL
P        4.79369108       5.63467119       3.64414009       0.00000000 NULL
P        4.29903135       3.44888184       4.49832506       0.00000000 NULL
P        2.61513306       5.36666775       4.16492296       0.00000000 NULL
P        1.82170650       1.42158878       2.47486882       0.00000000 NULL
P        0.98988988       0.97346218       6.28816595       0.00000000 NULL
P        4.97496880       3.85473153       2.44138096       0.00000000 NULL
8
Lattice="4.2659535141123675 0.39904682948654685 0.18248235586745812 0.7748519519675414 5.155184748226205 -0.1892224853575095 0.5882968965265071 0.6994377135404509 8.527116752405174" Properties=species:S:1:pos:R:3:initial_magmoms:R:1:castep_labels:S:1 n_minim_iter=13 pbc="T T T"
P        1.65370417       0.34309912       0.56024511       0.00000000 NULL
P        1.77506852       2.54254538       0.58198004       0.00000000 NULL
P        4.70450510       5.48054453       3.72311975       0.00000000 NULL
P        4.21200658       3.39232479       4.55348833       0.00000000 NULL
P        2.53727723       5.21426555       4.27931200       0.00000000 NULL
P        1.77658476       1.39719501       2.48948364       0.00000000 NULL
P        0.95719027       1.01431051       6.33424578       0.00000000 NULL
P        4.87582721       3.73430681       2.47515139       0.00000000 NULL
8
Lattice="4.297396750163629 0.41392882587383695 0.17893057054604372 0.7949278581920385 5.219698991384627 -0.21068419539111446 0.5835531943814595 0.6693925276102325 8.665486392270147" Properties=species:S:1:pos:R:3:initial_magmoms:R:1:castep_labels:S:1 n_minim_iter=14 pbc="T T T"
P        1.66522313       0.34713752       0.56470734       0.00000000 NULL
P        1.79989822       2.58074074       0.57417472       0.00000000 NULL
P        4.74985905       5.54435559       3.76425947       0.00000000 NULL
P        4.24215375       3.42209648       4.61608264       0.00000000 NULL
P        2.56361298       5.25875248       4.34005376       0.00000000 NULL
P        1.78860826       1.40653561       2.52065606       0.00000000 NULL
P        0.96370092       0.99999427       6.43152202       0.00000000 NULL
P        4.91239239       3.77618013       2.49471984       0.00000000 NULL
8
Lattice="4.280658989758466 0.4187596446653426 0.1823607255970788 0.7995826602131089 5.184405984509095 -0.21512777001832253 0.5932502000678882 0.6519839316067061 8.640874555687772" Properties=species:S:1:pos:R:3:initial_magmoms:R:1:castep_labels:S:1 n_minim_iter=15 pbc="T T T"
P        1.65974154       0.34776593       0.56440465       0.00000000 NULL
P        1.80052959       2.56634258       0.56831161       0.00000000 NULL
P        4.74398062       5.50766368       3.75442095       0.00000000 NULL
P        4.23455543       3.40059092       4.60402587       0.00000000 NULL
P        2.56653525       5.21673397       4.33132993       0.00000000 NULL
P        1.78544642       1.39630449       2.51028373       0.00000000 NULL
P        0.97250143       0.98457778       6.41085818       0.00000000 NULL
P        4.89799038       3.75227493       2.48817358       0.00000000 NULL
8
Lattice="4.2769140105107475 0.4251434679530207 0.18283464099517713 0.8070035919242196 5.176318833126872 -0.21738813674771248 0.5960752591880364 0.6454232336591336 8.660764637099046" Properties=species:S:1:pos:R:3:initial_magmoms:R:1:castep_labels:S:1 n_minim_iter=16 pbc="T T T"
P        1.65868342       0.34941416       0.56523901       0.00000000 NULL
P        1.80639549       2.56658397       0.56539219       0.00000000 NULL
P        4.74949563       5.50356000       3.76368768       0.00000000 NULL
P        4.23501451       3.39947886       4.61480406       0.00000000 NULL
P        2.57311316       5.20553683       4.34638672       0.00000000 NULL
P        1.78554992       1.39538514       2.51267297       0.00000000 NULL
P        0.97774497       0.97998631       6.42332018       0.00000000 NULL
P        4.89580340       3.74939815       2.49196893       0.00000000 NULL
8
Lattice="4.247670799719294 0.467968625994915 0.1843988365956485 0.8565013312261843 5.11466272358978 -0.22809787560347286 0.610974028692881 0.6092587323155016 8.803571047891282" Properties=species:S:1:pos:R:3:initial_magmoms:R:1:castep_labels:S:1 n_minim_iter=17 pbc="T T T"
P        1.64989879       0.36016502       0.57081575       0.00000000 NULL
P        1.84506165       2.56624309       0.54706104       0.00000000 NULL
P        4.78177226       5.47266543       3.83346808       0.00000000 NULL
P        4.23174994       3.39225600       4.69332458       0.00000000 NULL
P        2.61365861       5.12678617       4.45877690       0.00000000 NULL
P        1.78394846       1.39066874       2.52978296       0.00000000 NULL
P        1.00956913       0.95472313       6.51350936       0.00000000 NULL
P        4.87362283       3.72723011       2.52074147       0.00000000 NULL
8
Lattice="4.191967719257806 0.47962654195658116 0.17966991759860254 0.8666764165185151 5.0378706531549335 -0.19839593178756892 0.6018575760963607 0.6546724275076679 9.025526847759158" Properties=species:S:1:pos:R:3:initial_magmoms:R:1:castep_labels:S:1 n_minim_iter=18 pbc="T T T"
P        1.63010652       0.35915730       0.57773678       0.00000000 NULL
P        1.87212265       2.56470772       0.54052738       0.00000000 NULL
P        4.75619738       5.44328502       3.97887429       0.00000000 NULL
P        4.16138062       3.39494054       4.83332646       0.00000000 NULL
P        2.60018114       5.05107576       4.68754652       0.00000000 NULL
P        1.76313340       1.39929067       2.54940974       0.00000000 NULL
P        1.02378103       0.98807866       6.65949982       0.00000000 NULL
P        4.76086302       3.68283211       2.58186852       0.00000000 NULL
8
Lattice="4.226529743690435 0.43844128020474976 0.24148100892740604 0.8195190270772444 5.001282242480192 -0.24918142023158893 0.7453563655353251 0.533004001690541 8.697493279266391" Properties=species:S:1:pos:R:3:initial_magmoms:R:1:castep_labels:S:1 n_minim_iter=19 pbc="T T T"
P        1.65283242       0.34291316       0.57970041       0.00000000 NULL
P        1.88082192       2.52841308       0.51228299       0.00000000 NULL
P        4.81581706       5.32093118       3.84111368       0.00000000 NULL
P        4.23037650       3.27279445       4.68300758       0.00000000 NULL
P        2.64800031       4.92982024       4.51984586       0.00000000 NULL
P        1.80804779       1.34264761       2.44492274       0.00000000 NULL
P        1.14050208       0.89332017       6.41990317       0.00000000 NULL
P        4.77833614       3.58651236       2.51594440       0.00000000 NULL
8
Lattice="4.25312113417779 0.4363815003760394 0.222779048707707 0.8188787167794521 5.06332848574524 -0.21167378575450568 0.6983939209886733 0.6268849410776214 8.981352241944071" Properties=species:S:1:pos:R:3:initial_magmoms:R:1:castep_labels:S:1 n_minim_iter=20 pbc="T T T"
P        1.65862043       0.34608701       0.58572486       0.00000000 NULL
P        1.88983738       2.56587691       0.53844657       0.00000000 NULL
P        4.82129942       5.42237528       3.98749985       0.00000000 NULL
P        4.22396414       3.35172918       4.84156811       0.00000000 NULL
P        2.63269850       5.02989433       4.69928041       0.00000000 NULL
P        1.80602410       1.38324581       2.52591038       0.00000000 NULL
P        1.10935543       0.97146733       6.63489628       0.00000000 NULL
P        4.78443652       3.64621644       2.59669120       0.00000000 NULL
8
Lattice="4.231191540478794 0.43515161546124675 0.22394811630477035 0.8158837198340408 5.013776304537595 -0.2068256348789426 0.7008355897409451 0.6259973564434014 8.937468333028633" Properties=species:S:1:pos:R:3:initial_magmoms:R:1:castep_labels:S:1 n_minim_iter=21 pbc="T T T"
P        1.65045314       0.34500130       0.58314667       0.00000000 NULL
P        1.88241961       2.54214375       0.53781659       0.00000000 NULL
P        4.80136078       5.37341668       3.97416359       0.00000000 NULL
P        4.20483126       3.32479965       4.82155068       0.00000000 NULL
P        2.62375457       4.98290995       4.68320027       0.00000000 NULL
P        1.79892777       1.37341988       2.51274347       0.00000000 NULL
P        1.10938160       0.96697464       6.60365990       0.00000000 NULL
P        4.75919308       3.61398574       2.58849724       0.00000000 NULL
