10
Lattice="4.651846367153535 0.052044471048206115 0.16864413480358026 -1.7852629154109931 5.576365482556906 -0.5900845554703736 -1.3902550030177394 -2.997082097207796 8.545222010193777" Properties=species:S:1:pos:R:3:initial_magmoms:R:1:castep_labels:S:1:forces:R:3 n_minim_iter=1 energy=-52.223392334624464 stress="-0.00517547944205841 -0.001077890179919153 0.0010973953956248208 -0.001077890179919153 -0.007827414048932928 0.0017297061881605962 0.0010973953956248208 0.0017297061881605962 0.002968024033068779" free_energy=-52.223392334624464 pbc="T T T"
P       -0.15575301       4.06029154       2.50890634       0.00000000 NULL       0.01669207      -0.25435170       0.20526155
P        2.48792164       1.84863358       3.80097928       0.00000000 NULL      -0.20867615       0.16151873      -0.22828162
P       -0.29848746       0.72147690       2.18559000       0.00000000 NULL       0.08159335       0.15636239      -0.07090678
P        1.73259124       2.42673763       7.19918243       0.00000000 NULL      -0.21617828      -0.02205919      -0.02355568
P       -0.31766488       3.85740048       4.78333377       0.00000000 NULL      -0.02841664       0.07479217      -0.28286999
P       -1.02086249      -2.03857912       5.73056650       0.00000000 NULL       0.42127512      -0.21951304       0.04575848
P        3.30410421       0.86551016       0.39931766       0.00000000 NULL      -0.23543092       0.06020324       0.06316818
P        1.24658308       2.32667754       1.96186308       0.00000000 NULL      -0.15950245       0.03205312       0.04829738
P       -1.32011582       1.72125852       8.37947309       0.00000000 NULL       0.23563717      -0.05952164      -0.01023161
P        3.13945332      -0.36616433       4.08516468       0.00000000 NULL       0.09300673       0.07051593       0.25336008
10
Lattice="4.692617205780391 0.060846015683549234 0.15896726849975035 -1.7895799214157617 5.649286277088383 -0.6002179802901628 -1.4239900326556374 -3.0648488766557302 8.513826172383833" Properties=species:S:1:pos:R:3:initial_magmoms:R:1:castep_labels:S:1:forces:R:3 n_minim_iter=2 energy=-52.24630035616067 stress="0.004990231153875026 3.4891979667172955e-05 0.0002943092906168972 3.4891979667172955e-05 0.0009335691306947707 0.0003848224031483246 0.0002943092906168972 0.0003848224031483246 0.005286718362818611" free_energy=-52.24630035616067 pbc="T T T"
P       -0.15417202       4.10482794       2.48627414       0.00000000 NULL       0.15268470      -0.24832848       0.13883875
P        2.50452924       1.86801792       3.77007120       0.00000000 NULL      -0.16979015       0.16554913      -0.19809012
P       -0.30321323       0.72536894       2.17251467       0.00000000 NULL       0.12427036       0.25392199       0.10871860
P        1.73720778       2.44097946       7.15255350       0.00000000 NULL      -0.23631888       0.00587563       0.02935858
P       -0.32247330       3.89485110       4.74639695       0.00000000 NULL       0.10797342       0.07371532      -0.18267529
P       -1.04099644      -2.08630756       5.71011684       0.00000000 NULL       0.36340906      -0.21727656      -0.00971150
P        3.33221463       0.88247825       0.38909801       0.00000000 NULL      -0.30328149      -0.14316988       0.05188764
P        1.25695032       2.35453464       1.94323408       0.00000000 NULL      -0.26091897      -0.07561206       0.02007934
P       -1.34233781       1.71666504       8.33480110       0.00000000 NULL       0.27291992       0.11797221      -0.12632098
P        3.15954935      -0.37672398       4.06188764       0.00000000 NULL      -0.05094797       0.06735271       0.16791498
10
Lattice="4.678147777961877 0.06529002062525424 0.1501610755271074 -1.7778293018339437 5.681903919004181 -0.6034799841302935 -1.4351943427814096 -3.102900716951822 8.428720277583057" Properties=species:S:1:pos:R:3:initial_magmoms:R:1:castep_labels:S:1:forces:R:3 n_minim_iter=3 energy=-52.26003627780702 stress="0.0008383052948818727 0.0005937171755898378 -0.0007961163492972719 0.0005937171755898378 8.210104096195997e-05 0.0007860321588718085 -0.0007961163492972719 0.0007860321588718085 -0.0036995201671395513" free_energy=-52.26003627780702 pbc="T T T"
P       -0.15228906       4.12019548       2.45180605       0.00000000 NULL       0.07326100      -0.25091568      -0.05965538
P        2.49098934       1.87490724       3.71825262       0.00000000 NULL      -0.08752482       0.15447678      -0.04970592
P       -0.30354754       0.72708307       2.14780495       0.00000000 NULL       0.14683070       0.28545941       0.27784292
P        1.72101047       2.44100815       7.06572812       0.00000000 NULL      -0.24353415      -0.03579491      -0.00690830
P       -0.32411159       3.90769471       4.68334246       0.00000000 NULL       0.03824917       0.03710751       0.03203191
P       -1.04382393      -2.11464316       5.65335578       0.00000000 NULL       0.39323085      -0.19192073      -0.06755571
P        3.31910425       0.88911088       0.37858730       0.00000000 NULL      -0.40896217      -0.11262728      -0.02637622
P        1.24990951       2.36474623       1.91506669       0.00000000 NULL      -0.26872531      -0.07230428      -0.11926185
P       -1.34593358       1.70763582       8.24000049       0.00000000 NULL       0.32497138       0.08599963      -0.20699091
P        3.14357677      -0.38411636       4.01546520       0.00000000 NULL       0.03220336       0.10051953       0.22657949
10
Lattice="4.6365590712556415 0.05792967446317287 0.15696786960419143 -1.770495788495063 5.757823196529056 -0.6561313531680945 -1.4052570410902818 -3.213775877023577 8.455704594557826" Properties=species:S:1:pos:R:3:initial_magmoms:R:1:castep_labels:S:1:forces:R:3 n_minim_iter=4 energy=-52.2843006718551 stress="-0.002938377571386527 -0.0011823008913986522 0.001305605127109813 -0.0011823008913986522 0.0018080342764655467 -0.0040686971426339875 0.001305605127109813 -0.0040686971426339875 0.0014266430639993536" free_energy=-52.2843006718551 pbc="T T T"
P       -0.14869031       4.13512114       2.41836063       0.00000000 NULL      -0.00003218      -0.20335777      -0.13885957
P        2.46574287       1.86818886       3.70085017       0.00000000 NULL      -0.06613627       0.10868245      -0.07757153
P       -0.29237885       0.72932569       2.14894898       0.00000000 NULL      -0.03713532       0.20279761       0.16833891
P        1.70202408       2.40294663       7.04888110       0.00000000 NULL      -0.02469991      -0.03606666      -0.22914770
P       -0.31707752       3.91545422       4.64579610       0.00000000 NULL       0.05163544       0.04602877       0.06151580
P       -1.00443111      -2.19931792       5.67030307       0.00000000 NULL       0.29106665      -0.13996747       0.04818019
P        3.27230792       0.88701349       0.37680550       0.00000000 NULL      -0.29897639      -0.08851393       0.17428568
P        1.22682844       2.37127507       1.89460456       0.00000000 NULL      -0.07212694      -0.03118983      -0.07379220
P       -1.30946590       1.65938148       8.21801812       0.00000000 NULL       0.07612693       0.11715537      -0.26107756
P        3.12319875      -0.42532066       4.03465064       0.00000000 NULL       0.08027799       0.02443146       0.32812797
10
Lattice="4.642203627473202 0.07650439332416249 0.1395198539130321 -1.7504285310609426 5.787391964692603 -0.6033010586753449 -1.4496806343695772 -3.17300870295791 8.407766534891337" Properties=species:S:1:pos:R:3:initial_magmoms:R:1:castep_labels:S:1:forces:R:3 n_minim_iter=5 energy=-52.3192060841165 stress="-0.00031506334651367656 -0.0005506381582403809 0.0016976794677152295 -0.0005506381582403809 -0.00039572140272248413 0.0012186248824352021 0.0016976794677152295 0.0012186248824352021 0.0002738007990494934" free_energy=-52.3192060841165 pbc="T T T"
P       -0.13758767       4.15965168       2.44196353       0.00000000 NULL       0.17989503       0.20183159      -0.14172998
P        2.45079097       1.93576287       3.68307584       0.00000000 NULL       0.04322785      -0.03885435       0.07735045
P       -0.28958864       0.77568154       2.16416111       0.00000000 NULL      -0.31070519       0.00416068       0.15814510
P        1.66842173       2.48120814       7.03183152       0.00000000 NULL       0.02254699      -0.11092732       0.05370733
P       -0.31667594       3.98559849       4.65698141       0.00000000 NULL       0.21676167       0.01340889       0.21797132
P       -0.99910798      -2.19143894       5.63676330       0.00000000 NULL       0.05215791      -0.02245484      -0.13927763
P        3.24526603       0.89877632       0.37510439       0.00000000 NULL       0.05520345       0.05124092       0.05572072
P        1.20973792       2.40311098       1.89636886       0.00000000 NULL      -0.01595469       0.14322532      -0.22111120
P       -1.31233736       1.74233184       8.19066294       0.00000000 NULL      -0.08760038      -0.03305445      -0.11894259
P        3.11410312      -0.37709001       4.02879271       0.00000000 NULL      -0.15553265      -0.20857645       0.05816650
10
Lattice="4.641311734598715 0.08951093817443898 0.10414249435001517 -1.7299984941231703 5.7852935320555146 -0.602892131189536 -1.5231067409410612 -3.1980836616756716 8.424505120483335" Properties=species:S:1:pos:R:3:initial_magmoms:R:1:castep_labels:S:1:forces:R:3 n_minim_iter=6 energy=-52.32764487540518 stress="-0.0007592395052350016 0.0007817992372753097 -0.0018822316313322693 0.0007817992372753097 -0.001431112724124689 -0.00022930794836906169 -0.0018822316313322693 -0.00022930794836906169 0.0018771512022927603" free_energy=-52.32764487540518 pbc="T T T"
P       -0.14007775       4.15304510       2.43000641       0.00000000 NULL       0.05912015       0.21314480      -0.12320672
P        2.42614740       1.93716364       3.65886761       0.00000000 NULL       0.12216664      -0.01968233       0.12001329
P       -0.30812461       0.77581880       2.17149686       0.00000000 NULL      -0.26826442       0.00180263       0.21451870
P        1.61725284       2.46684455       7.01223564       0.00000000 NULL      -0.04078541      -0.04925763      -0.00622063
P       -0.33643330       3.97603139       4.65319567       0.00000000 NULL       0.27245621       0.02182523       0.08475070
P       -1.03925812      -2.21311283       5.64528064       0.00000000 NULL      -0.02099238      -0.01831109       0.00017069
P        3.23784656       0.90590081       0.35066273       0.00000000 NULL       0.08203753       0.04350453      -0.04499576
P        1.19674756       2.40431510       1.87593892       0.00000000 NULL      -0.08474194       0.09227588      -0.24639651
P       -1.36671362       1.72113080       8.18881202       0.00000000 NULL      -0.03908395      -0.07769087      -0.07601834
P        3.07964411      -0.38061512       4.01193543       0.00000000 NULL      -0.08191243      -0.20761115       0.07738457
10
Lattice="4.682709553775943 0.08179464236956535 0.0911053078678236 -1.7546054672280285 5.882602190179499 -0.6019336261186452 -1.547245976387174 -3.2692302304380987 8.247576311953905" Properties=species:S:1:pos:R:3:initial_magmoms:R:1:castep_labels:S:1:forces:R:3 n_minim_iter=7 energy=-52.374030080973114 stress="0.002764881759148473 -0.002061024713243336 -0.0006956326387022608 -0.002061024713243336 -0.0034356893099205315 -0.0018932548106025597 -0.0006956326387022608 -0.0018932548106025597 9.9327762119776e-05" free_energy=-52.374030080973114 pbc="T T T"
P       -0.12137654       4.22235054       2.33476544       0.00000000 NULL      -0.26630761       0.02430940      -0.35693639
P        2.43945792       1.96720373       3.57150157       0.00000000 NULL      -0.09314358      -0.05038749      -0.35570656
P       -0.35872065       0.81695408       2.17884648       0.00000000 NULL      -0.10261257       0.13697182       0.06701035
P        1.58951726       2.46359607       6.84123903       0.00000000 NULL      -0.02068509      -0.00480025       0.04248454
P       -0.30489030       4.03732632       4.56339486       0.00000000 NULL       0.38052513       0.07181823       0.09484602
P       -1.00565746      -2.29023989       5.51101680       0.00000000 NULL      -0.22175190       0.15270807       0.27209579
P        3.23059274       0.90714028       0.34059957       0.00000000 NULL       0.26840730       0.00505887      -0.08442095
P        1.16525737       2.45135605       1.77526931       0.00000000 NULL       0.13434585      -0.13203359       0.08942758
P       -1.37711680       1.73294372       7.96053038       0.00000000 NULL      -0.19740046      -0.14644248       0.06012708
P        3.08118548      -0.43588819       3.95797380       0.00000000 NULL       0.11862293      -0.05720257       0.17107253
10
Lattice="4.646825657115789 0.12091472003802103 0.08921675219607371 -1.6957251360925452 5.980252799955381 -0.5761988475597367 -1.5629174305576226 -3.3073769224202723 8.196522514509686" Properties=species:S:1:pos:R:3:initial_magmoms:R:1:castep_labels:S:1:forces:R:3 n_minim_iter=8 energy=-52.39115364776333 stress="-0.00044844973950271385 0.0014105716097209417 -0.0002614557384533612 0.0014105716097209417 0.0015453297329027452 0.0003309315447084763 -0.0002614557384533612 0.0003309315447084763 0.0033840988323915896" free_energy=-52.39115364776333 pbc="T T T"
P       -0.07842549       4.31854233       2.32028474       0.00000000 NULL      -0.21169026       0.04028986      -0.22544559
P        2.43342729       2.04670352       3.55796926       0.00000000 NULL      -0.16978641      -0.10152699      -0.46946983
P       -0.37104475       0.85911621       2.19961365       0.00000000 NULL       0.01873809       0.28275619       0.01810108
P        1.58188998       2.54519150       6.81714794       0.00000000 NULL      -0.02119393       0.06766478      -0.01464656
P       -0.24363970       4.14052333       4.57080266       0.00000000 NULL       0.33046256       0.11485033      -0.09825206
P       -0.99783521      -2.32796462       5.47291421       0.00000000 NULL      -0.18298337       0.04895344       0.32536326
P        3.20068416       0.94895905       0.34328151       0.00000000 NULL       0.08933455      -0.19271617      -0.07819018
P        1.16084513       2.52092013       1.75457208       0.00000000 NULL       0.12255311      -0.16449375       0.23674705
P       -1.34952013       1.79124076       7.91099492       0.00000000 NULL       0.01878864       0.06332766       0.28280668
P        3.04554736      -0.41782601       3.95835229       0.00000000 NULL       0.00577702      -0.15910534       0.02298616
10
Lattice="4.673250340506371 0.10715122048039034 0.054064228332851856 -1.719162400943371 6.1303348247094585 -0.5878608836322062 -1.6203577915164444 -3.4323646923373405 8.065096811526336" Properties=species:S:1:pos:R:3:initial_magmoms:R:1:castep_labels:S:1:forces:R:3 n_minim_iter=9 energy=-52.45531563011281 stress="-0.0002636286492224344 -0.0024593854277961454 -0.001474775863303489 -0.0024593854277961454 0.0016844673803125914 0.00029690894319854864 -0.001474775863303489 0.00029690894319854864 0.0041369625626497195" free_energy=-52.45531563011281 pbc="T T T"
P       -0.10181610       4.41888935       2.17698287       0.00000000 NULL      -0.18619229      -0.17356797      -0.20211710
P        2.39801161       2.06685928       3.41142521       0.00000000 NULL      -0.13123572       0.11686605      -0.15437529
P       -0.44054159       0.95079235       2.22623818       0.00000000 NULL       0.13343641       0.09556452      -0.25450776
P        1.50384118       2.53482142       6.65621016       0.00000000 NULL      -0.06080051       0.03204039       0.10635090
P       -0.18490412       4.23837680       4.48942539       0.00000000 NULL       0.18416298       0.19586587      -0.16458323
P       -1.00239285      -2.43572781       5.40198905       0.00000000 NULL      -0.02159386      -0.08229750       0.40650326
P        3.19016687       0.92968802       0.30694118       0.00000000 NULL       0.26823139      -0.17461419      -0.01220840
P        1.12613807       2.55792682       1.66414706       0.00000000 NULL      -0.15603273      -0.05016005       0.05494538
P       -1.40095810       1.79149553       7.72932872       0.00000000 NULL      -0.14169721       0.07103534       0.35707807
P        3.02089734      -0.52061071       3.92047841       0.00000000 NULL       0.11172154      -0.03073246      -0.13708583
10
Lattice="4.703965300302633 0.15244030843940481 0.06698372920648318 -1.6767710136394274 6.119765032226436 -0.6267444863654922 -1.6323693582182028 -3.5059119507791996 8.015684794081164" Properties=species:S:1:pos:R:3:initial_magmoms:R:1:castep_labels:S:1:forces:R:3 n_minim_iter=10 energy=-52.466833909490305 stress="0.0017743517155532356 0.0018915728406245687 0.002176817551139254 0.0018915728406245687 -0.0019086835722363755 -0.0020957699302364273 0.002176817551139254 -0.0020957699302364273 0.003685476682455776" free_energy=-52.466833909490305 pbc="T T T"
P       -0.05348333       4.40566472       2.10406585       0.00000000 NULL      -0.14601074       0.02560091      -0.03917746
P        2.43746267       2.07151694       3.36397789       0.00000000 NULL      -0.23812488       0.09198752      -0.19026399
P       -0.44121324       0.95943175       2.22180718       0.00000000 NULL       0.25251379       0.01759252      -0.28895301
P        1.54837308       2.49586756       6.59223568       0.00000000 NULL       0.12830696      -0.08267622       0.07594479
P       -0.09466829       4.21993329       4.43547980       0.00000000 NULL       0.07982303       0.22249970      -0.12582486
P       -0.99853117      -2.49415961       5.37877077       0.00000000 NULL       0.04108974       0.05903518       0.50790107
P        3.21498188       0.94711047       0.30768684       0.00000000 NULL       0.11244654      -0.08418059       0.08480494
P        1.15049852       2.55684394       1.62461206       0.00000000 NULL      -0.16125476      -0.26647223      -0.01383743
P       -1.36200668       1.72700300       7.64562407       0.00000000 NULL      -0.13769065       0.06035351       0.25447637
P        3.04544443      -0.53821604       3.91791155       0.00000000 NULL       0.06890095      -0.04374029      -0.26507042
10
Lattice="4.728989277351522 0.15533175369962451 0.03820124093087321 -1.6800933863242145 6.194611042225513 -0.62678406422996 -1.6914438284575475 -3.571310959286296 7.949276650882051" Properties=species:S:1:pos:R:3:initial_magmoms:R:1:castep_labels:S:1:forces:R:3 n_minim_iter=11 energy=-52.51410467978517 stress="0.0010594164518868657 -0.0010287782690230143 0.0031929189681762114 -0.0010287782690230143 -0.002710158232420376 -0.0014180361340362835 0.0031929189681762114 -0.0014180361340362835 0.0038337084710914635" free_energy=-52.51410467978517 pbc="T T T"
P       -0.06493369       4.45797147       2.01564978       0.00000000 NULL      -0.21539482      -0.04523167      -0.10680881
P        2.41199176       2.10916547       3.29536515       0.00000000 NULL      -0.21858087       0.03614829      -0.27954029
P       -0.46821727       1.01027002       2.22191547       0.00000000 NULL       0.21235435      -0.05313577      -0.20417560
P        1.50114454       2.48135371       6.51885018       0.00000000 NULL       0.02262856      -0.13131560       0.09032967
P       -0.05297166       4.30100443       4.39571414       0.00000000 NULL      -0.14210544       0.05881315       0.08716975
P       -1.00600955      -2.56076549       5.37051393       0.00000000 NULL       0.11531826       0.03165349       0.39574199
P        3.23057168       0.93190508       0.28566691       0.00000000 NULL       0.09989604       0.00888744      -0.01164251
P        1.10200076       2.57002202       1.55394649       0.00000000 NULL      -0.04386628      -0.12874397       0.15162416
P       -1.42086487       1.73508169       7.57015747       0.00000000 NULL      -0.06639733      -0.02078437       0.25618155
P        3.03408722      -0.59355720       3.86942146       0.00000000 NULL       0.23614753       0.24370903      -0.37887991
10
Lattice="4.781106526383891 0.16628740160970185 -0.024905277478687145 -1.6805243475687006 6.315024308326749 -0.6207013889191375 -1.8217126250180444 -3.688667987580614 7.756846359318955" Properties=species:S:1:pos:R:3:initial_magmoms:R:1:castep_labels:S:1:forces:R:3 n_minim_iter=12 energy=-52.59583847265569 stress="0.00627484226326295 -0.001484954143338439 0.0020341033258129515 -0.001484954143338439 0.002956775305470264 -0.0028951749965696236 0.0020341033258129515 -0.0028951749965696236 0.004779312244076076" free_energy=-52.59583847265569 pbc="T T T"
P       -0.10060353       4.55245761       1.82864150       0.00000000 NULL      -0.08861023      -0.00681095       0.03723098
P        2.37290551       2.16035910       3.13121089       0.00000000 NULL      -0.11775548      -0.06341366      -0.22432332
P       -0.51763718       1.08220926       2.21655140       0.00000000 NULL       0.10669132       0.01653442      -0.03328363
P        1.39390513       2.43307702       6.31945763       0.00000000 NULL       0.11761887      -0.25339582      -0.14282883
P       -0.02058588       4.40704649       4.30537058       0.00000000 NULL       0.07400996       0.19491686       0.04453367
P       -1.03302638      -2.67822270       5.30333498       0.00000000 NULL      -0.04957689       0.04459337       0.37210185
P        3.26075032       0.91697210       0.21377995       0.00000000 NULL       0.05559861       0.13901037       0.03668329
P        1.02327930       2.59680798       1.42367742       0.00000000 NULL       0.01367024      -0.01715349       0.11672011
P       -1.52771315       1.72996170       7.36997895       0.00000000 NULL      -0.10686335      -0.08887878       0.08334917
P        3.03913386      -0.63800353       3.69613270       0.00000000 NULL      -0.00478304       0.03459768      -0.29018329
10
Lattice="4.80376438399418 0.1881696870090242 -0.059599884446863205 -1.6590781850941736 6.3478843578497814 -0.6173113932692595 -1.9023846227282553 -3.7420368614418447 7.66490701885864" Properties=species:S:1:pos:R:3:initial_magmoms:R:1:castep_labels:S:1:forces:R:3 n_minim_iter=13 energy=-52.643563289215294 stress="0.01077429437234331 -0.0012617821715247748 0.001286184454323593 -0.0012617821715247748 0.007273057604067625 -0.001281706460603713 0.001286184454323593 -0.001281706460603713 0.005636540327148763" free_energy=-52.643563289215294 pbc="T T T"
P       -0.10941468       4.58748002       1.74039734       0.00000000 NULL      -0.15816225       0.04882471       0.05196843
P        2.35223404       2.17910156       3.04359213       0.00000000 NULL      -0.07974468      -0.05090741      -0.12904517
P       -0.53755113       1.12441967       2.22399653       0.00000000 NULL       0.06072654       0.05173628      -0.11514249
P        1.34268349       2.37105501       6.20853814       0.00000000 NULL       0.09904503      -0.14913877      -0.06165993
P        0.01971410       4.47178078       4.25913845       0.00000000 NULL       0.00609382       0.17133565       0.17982522
P       -1.05449997      -2.73957020       5.29017932       0.00000000 NULL      -0.10393946      -0.03388238       0.24870729
P        3.26894970       0.94129747       0.17124847       0.00000000 NULL       0.11252719      -0.20682731       0.09150378
P        0.98368403       2.61591579       1.35535082       0.00000000 NULL       0.02719055      -0.09891502       0.11303376
P       -1.57468986       1.69696877       7.27827535       0.00000000 NULL      -0.04723597       0.18040187      -0.11329078
P        3.03147599      -0.65738123       3.59920092       0.00000000 NULL       0.08349922       0.08737238      -0.26590009
10
Lattice="4.80487900507794 0.20999353454785546 -0.08493168784485015 -1.6294454404221865 6.380477493091741 -0.6462925598331551 -1.9595624449943962 -3.8374849677938534 7.590944391817084" Properties=species:S:1:pos:R:3:initial_magmoms:R:1:castep_labels:S:1:forces:R:3 n_minim_iter=14 energy=-52.686111147486706 stress="0.013087235095305825 -0.0006078915275772204 -0.0002922508247498546 -0.0006078915275772204 0.009737224617040692 -0.0014268413049852067 -0.0002922508247498546 -0.0014268413049852067 0.005404075805541179" free_energy=-52.686111147486706 pbc="T T T"
P       -0.13568741       4.62307584       1.64677754       0.00000000 NULL       0.04373006       0.05182900       0.15561758
P        2.33063332       2.17258413       2.96101944       0.00000000 NULL      -0.15864700      -0.06279673      -0.11566747
P       -0.55454293       1.14997001       2.21207605       0.00000000 NULL       0.17756267       0.02974226      -0.08829263
P        1.31049154       2.26577314       6.08351878       0.00000000 NULL       0.03551910       0.03683151      -0.06148296
P        0.05409700       4.51849122       4.20088463       0.00000000 NULL       0.18341311       0.23758006       0.11028716
P       -1.07094904      -2.83758370       5.29491940       0.00000000 NULL      -0.20359912      -0.00346523       0.05758457
P        3.26821487       0.94460849       0.14080721       0.00000000 NULL       0.08727602      -0.25312176       0.01720158
P        0.95482617       2.62097215       1.27904113       0.00000000 NULL      -0.05505450      -0.08326366       0.18322101
P       -1.59464642       1.63895949       7.16252850       0.00000000 NULL       0.01365920       0.08217040      -0.07744318
P        3.03760023      -0.69246118       3.51662088       0.00000000 NULL      -0.12385955      -0.03550583      -0.18102567
10
Lattice="4.806800129651678 0.23720242737541228 -0.09402287322340612 -1.596110123451761 6.35930190562867 -0.6481136400082798 -1.9930611955728847 -3.8512899645184087 7.559192198981554" Properties=species:S:1:pos:R:3:initial_magmoms:R:1:castep_labels:S:1:forces:R:3 n_minim_iter=15 energy=-52.717294670562005 stress="0.015032594129834976 -0.0012213327752457236 -0.00025155920004566953 -0.0012213327752457236 0.008601568457901885 0.0009476776394086957 -0.00025155920004566953 0.0009476776394086957 0.002786418674689446" free_energy=-52.717294670562005 pbc="T T T"
P       -0.13437027       4.64982303       1.62336181       0.00000000 NULL       0.03802268      -0.03520242       0.12902827
P        2.29951261       2.16215038       2.93513723       0.00000000 NULL       0.19459932      -0.12851933      -0.08590689
P       -0.53127232       1.14429238       2.20054721       0.00000000 NULL      -0.13177243       0.07350145      -0.07946576
P        1.30553784       2.23766884       6.02864788       0.00000000 NULL       0.21871664      -0.11493387       0.10107640
P        0.09519716       4.57034023       4.21042859       0.00000000 NULL       0.22607422       0.17538867       0.04559316
P       -1.09116388      -2.86387081       5.30038741       0.00000000 NULL      -0.15731643       0.06072998      -0.13765703
P        3.27700101       0.93919513       0.12228186       0.00000000 NULL      -0.00589322      -0.16204396       0.20265353
P        0.93574815       2.62266179       1.26056876       0.00000000 NULL      -0.07531403      -0.03653275       0.11452961
P       -1.57969573       1.59285302       7.12620483       0.00000000 NULL      -0.09623266       0.16976030      -0.18098153
P        3.04559734      -0.68640500       3.46982156       0.00000000 NULL      -0.21088409      -0.00214806      -0.10886977
10
Lattice="4.79686361701471 0.2503338268713517 -0.08835275374073595 -1.5767790900990406 6.348728765800018 -0.6585249320215146 -1.987974944274174 -3.864782429717083 7.558911029744787" Properties=species:S:1:pos:R:3:initial_magmoms:R:1:castep_labels:S:1:forces:R:3 n_minim_iter=16 energy=-52.738554328611755 stress="0.013319305137902186 -0.002341486216807409 0.0008671829651807915 -0.002341486216807409 0.008740767652629619 0.0021811633454302285 0.0008671829651807915 0.0021811633454302285 0.0017247661524431935" free_energy=-52.738554328611755 pbc="T T T"
P       -0.13579990       4.65144435       1.61641714       0.00000000 NULL       0.07524395       0.01230896       0.15648652
P        2.30559198       2.14339647       2.92744845       0.00000000 NULL       0.07369941       0.01635316       0.01329649
P       -0.52046363       1.13299508       2.18957993       0.00000000 NULL      -0.15147797       0.06453430      -0.05137638
P        1.33327123       2.21482948       6.01651996       0.00000000 NULL       0.03477556      -0.03443705       0.09824568
P        0.12600794       4.59675700       4.21621447       0.00000000 NULL       0.22479567       0.09194365       0.03173760
P       -1.08502871      -2.86993348       5.30811401       0.00000000 NULL      -0.12132606      -0.03590186      -0.17979215
P        3.26227295       0.93549222       0.13061776       0.00000000 NULL       0.11234951      -0.15445226       0.10991576
P        0.92088906       2.62108779       1.26435114       0.00000000 NULL       0.08244089      -0.04198340       0.05910945
P       -1.55619323       1.56508876       7.12394740       0.00000000 NULL      -0.02611436       0.14832639      -0.13965131
P        3.04788266      -0.67621380       3.45727342       0.00000000 NULL      -0.30438658      -0.06669188      -0.09797166
10
Lattice="4.75650256825803 0.3085140265325272 -0.10275281481801773 -1.488390483488492 6.276332865408228 -0.6728510623024296 -2.0426772123065176 -3.878666484431064 7.641206992185837" Properties=species:S:1:pos:R:3:initial_magmoms:R:1:castep_labels:S:1:forces:R:3 n_minim_iter=17 energy=-52.774189074784104 stress="0.009747397075543682 -0.0014062718618449768 -3.7048878158838016e-06 -0.0014062718618449768 0.008766977180995799 0.003104269078617151 -3.7048878158838016e-06 0.003104269078617151 0.004254308330726446" free_energy=-52.774189074784104 pbc="T T T"
P       -0.15643015       4.63747482       1.64997108       0.00000000 NULL       0.38723050       0.02144006      -0.26634999