13
Lattice="4.70229 1.2599861255736767e-15 1.9188379171817023e-15 0.19734519470755993 5.656378462101507 -4.296908468888729e-15 0.9277507828847904 2.426639288087272 10.870818185121479" Properties=species:S:1:pos:R:3:initial_magmoms:R:1:castep_labels:S:1 n_minim_iter=1 pbc="T T T"
P        2.91646649       0.47888322       1.59011045       0.00000000 NULL
P        1.43664686       4.96777562       7.03874498       0.00000000 NULL
P        4.38058860       1.07447497       0.30845620       0.00000000 NULL
P        1.57194283       1.70210847       0.68737597       0.00000000 NULL
P        0.29741688       1.94005972       2.25591654       0.00000000 NULL
P        1.38782543       3.86682109       5.35848827       0.00000000 NULL
P        0.66323291       2.35286530       4.19146137       0.00000000 NULL
P        2.98474987       3.81782201       0.16663986       0.00000000 NULL
P        1.35102914       4.60994008       1.14311436       0.00000000 NULL
P        4.93893819       6.87990127       7.43023249       0.00000000 NULL
P        3.38993674       2.26089555       9.83509011       0.00000000 NULL
P        4.30247014       2.85014053       6.24352724       0.00000000 NULL
P        4.04618650       6.29800475       3.36925464       0.00000000 NULL
13
Lattice="4.711151796466611 0.002339801658457118 0.00039756218684613206 0.20053164995716186 5.662832314023711 0.0025840772372562287 0.9316257500796872 2.4347617528341354 10.90236090291398" Properties=species:S:1:pos:R:3:initial_magmoms:R:1:castep_labels:S:1 n_minim_iter=2 pbc="T T T"
P        2.92212020       0.48127656       1.59510239       0.00000000 NULL
P        1.44244631       4.97743014       7.06092714       0.00000000 NULL
P        4.38930281       1.07792985       0.30983077       0.00000000 NULL
P        1.57606099       1.70537272       0.68990837       0.00000000 NULL
P        0.29904470       1.94362401       2.26312724       0.00000000 NULL
P        1.39298498       3.87437947       5.37528197       0.00000000 NULL
P        0.66601838       2.35766732       4.20446143       0.00000000 NULL
P        2.99244755       3.82354445       0.16903243       0.00000000 NULL
P        1.35587595       4.61632725       1.14856773       0.00000000 NULL
P        4.95229105       6.89340433       7.45465058       0.00000000 NULL
P        3.39830201       2.26957970       9.86369039       0.00000000 NULL
P        4.31240751       2.85835299       6.26255852       0.00000000 NULL
P        4.05721775       6.30850571       3.38226982       0.00000000 NULL
13
Lattice="4.877889309181567 0.04812703567626716 0.009299299668926755 0.2626066753701689 5.779925082993653 0.0524825296729826 1.0087305497873642 2.5883852798340525 11.501379008176741" Properties=species:S:1:pos:R:3:initial_magmoms:R:1:castep_labels:S:1 n_minim_iter=3 pbc="T T T"
P        3.02895893       0.52711847       1.69080797       0.00000000 NULL
P        1.55554970       5.15734268       7.48288952       0.00000000 NULL
P        4.55363144       1.14369463       0.33704801       0.00000000 NULL
P        1.65454154       1.76634460       0.73842413       0.00000000 NULL
P        0.33110292       2.00986131       2.40037629       0.00000000 NULL
P        1.49325060       4.01530489       5.69494016       0.00000000 NULL
P        0.72055258       2.44734803       4.45175304       0.00000000 NULL
P        3.13881585       3.92944993       0.21574019       0.00000000 NULL
P        1.44914896       4.73364768       1.25311723       0.00000000 NULL
P        5.20835339       7.14559045       7.92036392       0.00000000 NULL
P        3.55954660       2.43449676      10.40743147       0.00000000 NULL
P        4.50231788       3.01353835       6.62516692       0.00000000 NULL
P        4.26815818       6.50348726       3.63159245       0.00000000 NULL
13
Lattice="4.928868720184393 0.0887240675151628 0.028750392299769213 0.31358028999393933 5.7409709855461735 0.07783101742568735 1.0847062621319272 2.626099981720899 11.615147702565164" Properties=species:S:1:pos:R:3:initial_magmoms:R:1:castep_labels:S:1 n_minim_iter=4 pbc="T T T"
P        3.06903235       0.55044786       1.72163429       0.00000000 NULL
P        1.64210325       5.16659550       7.57455172       0.00000000 NULL
P        4.61003461       1.17394703       0.35861174       0.00000000 NULL
P        1.69121605       1.77421477       0.75483981       0.00000000 NULL
P        0.35967142       2.01121878       2.43177248       0.00000000 NULL
P        1.56552596       4.02353367       5.76788052       0.00000000 NULL
P        0.76487047       2.45326279       4.50503911       0.00000000 NULL
P        3.20583881       3.92887183       0.24507547       0.00000000 NULL
P        1.50860670       4.71713115       1.28965658       0.00000000 NULL
P        5.35238874       7.17071143       8.03881970       0.00000000 NULL
P        3.65710119       2.48917986      10.51981753       0.00000000 NULL
P        4.59912449       3.05665964       6.71117997       0.00000000 NULL
P        4.38076340       6.50751693       3.71069288       0.00000000 NULL
13
Lattice="4.98694890860558 0.14215166107108754 0.05931966485376105 0.38028577510104183 5.653651480721094 0.09459270220327406 1.194407374112365 2.6279664348705167 11.670449143600779" Properties=species:S:1:pos:R:3:initial_magmoms:R:1:castep_labels:S:1 n_minim_iter=5 pbc="T T T"
P        3.11873249       0.57235732       1.75236102       0.00000000 NULL
P        1.75970553       5.12664665       7.62394659       0.00000000 NULL
P        4.67657055       1.20566324       0.38592758       0.00000000 NULL
P        1.73587177       1.77186803       0.76634866       0.00000000 NULL
P        0.39867975       1.99426856       2.45011637       0.00000000 NULL
P        1.66374181       3.99336611       5.81109139       0.00000000 NULL
P        0.82586427       2.43342603       4.53516608       0.00000000 NULL
P        3.28862113       3.90329509       0.27413469       0.00000000 NULL
P        1.58560814       4.66276387       1.31640779       0.00000000 NULL
P        5.54078240       7.13727567       8.11899607       0.00000000 NULL
P        3.78981906       2.51828145      10.58498141       0.00000000 NULL
P        4.72522903       3.07667937       6.76924383       0.00000000 NULL
P        4.52516001       6.46328166       3.77224040       0.00000000 NULL
13
Lattice="5.0939346044123255 0.2197254805824319 0.12829560160060038 0.47808918469016093 5.496644641151065 0.08474020443900417 1.4150072538983236 2.55001889005337 11.742103155206449" Properties=species:S:1:pos:R:3:initial_magmoms:R:1:castep_labels:S:1 n_minim_iter=6 pbc="T T T"
P        3.21553164       0.58838041       1.81427447       0.00000000 NULL
P        1.97168774       4.99975084       7.67182728       0.00000000 NULL
P        4.79651345       1.24311236       0.44104880       0.00000000 NULL
P        1.80836676       1.75603196       0.77520252       0.00000000 NULL
P        0.46728518       1.94701407       2.46940864       0.00000000 NULL
P        1.84213749       3.89491116       5.85927777       0.00000000 NULL
P        0.93807735       2.36499954       4.57004818       0.00000000 NULL
P        3.42590941       3.84345386       0.30803821       0.00000000 NULL
P        1.70908246       4.55252199       1.33496163       0.00000000 NULL
P        5.87850349       7.00346393       8.22036889       0.00000000 NULL
P        4.05134057       2.48953005      10.68279815       0.00000000 NULL
P        4.96155230       3.05299625       6.85660223       0.00000000 NULL
P        4.77324250       6.34545297       3.84372965       0.00000000 NULL
13
Lattice="5.184911740580003 0.27041591431645917 0.23181099103661765 0.5428827593651977 5.327160298641429 0.018863798937009103 1.6984241603958692 2.3514419253678636 11.828761954785143" Properties=species:S:1:pos:R:3:initial_magmoms:R:1:castep_labels:S:1 n_minim_iter=7 pbc="T T T"
P        3.31795515       0.56938299       1.90537633       0.00000000 NULL
P        2.19809086       4.78440050       7.69972682       0.00000000 NULL
P        4.89965228       1.24923325       0.52044666       0.00000000 NULL
P        1.86506169       1.71916333       0.77028789       0.00000000 NULL
P        0.53734177       1.87258196       2.48390922       0.00000000 NULL
P        2.03366860       3.72552374       5.89520324       0.00000000 NULL
P        1.06208774       2.24316235       4.60135952       0.00000000 NULL
P        3.53741026       3.75501130       0.32641635       0.00000000 NULL
P        1.80580473       4.41342750       1.32263407       0.00000000 NULL
P        6.21803857       6.74823886       8.31395759       0.00000000 NULL
P        4.36125659       2.34158002      10.80686500       0.00000000 NULL
P        5.21213560       2.94012602       6.95988372       0.00000000 NULL
P        4.99900752       6.15911296       3.88743687       0.00000000 NULL
13
Lattice="5.269808259530084 0.253148563142501 0.3032490875083783 0.5256748131909468 5.2365468751132624 -0.010790455706334648 1.8714147112542538 2.2467184441421764 11.923325553307231" Properties=species:S:1:pos:R:3:initial_magmoms:R:1:castep_labels:S:1 n_minim_iter=8 pbc="T T T"
P        3.40266169       0.52932201       1.98171276       0.00000000 NULL
P        2.30445347       4.66432745       7.75414091       0.00000000 NULL
P        4.98223005       1.20850428       0.58100413       0.00000000 NULL
P        1.89058925       1.68243423       0.75708691       0.00000000 NULL
P        0.56048953       1.83972426       2.51721284       0.00000000 NULL
P        2.13054910       3.62625299       5.94117381       0.00000000 NULL
P        1.11719595       2.16941888       4.64329575       0.00000000 NULL
P        3.59883508       3.68122736       0.34839362       0.00000000 NULL
P        1.81623598       4.32614524       1.33480325       0.00000000 NULL
P        6.40182708       6.57374270       8.42239951       0.00000000 NULL
P        4.56656415       2.24475889      10.91664012       0.00000000 NULL
P        5.37296604       2.85235186       7.04840928       0.00000000 NULL
P        5.10630108       6.02775173       3.94114123       0.00000000 NULL
13
Lattice="5.202067578881289 0.24233090517367262 0.3307447678435725 0.5098193331253799 5.15452325637183 -0.007697509512813469 1.91603201866465 2.213316537499802 11.751742200119194" Properties=species:S:1:pos:R:3:initial_magmoms:R:1:castep_labels:S:1 n_minim_iter=9 pbc="T T T"
P        3.37192204       0.51221266       1.97965934       0.00000000 NULL
P        2.31259616       4.59264564       7.65089457       0.00000000 NULL
P        4.91997710       1.17969327       0.60210419       0.00000000 NULL
P        1.86702687       1.65043320       0.74155743       0.00000000 NULL
P        0.56343250       1.82008120       2.49214455       0.00000000 NULL
P        2.13478574       3.56808000       5.86165409       0.00000000 NULL
P        1.11865246       2.12949472       4.58309744       0.00000000 NULL
P        3.55528347       3.62180966       0.36384316       0.00000000 NULL
P        1.78723500       4.25481786       1.32759833       0.00000000 NULL
P        6.36019815       6.46662589       8.33645129       0.00000000 NULL
P        4.57053933       2.21134489      10.77148019       0.00000000 NULL
P        5.34165547       2.80777608       6.96671555       0.00000000 NULL
P        5.05356714       5.92897084       3.91012464       0.00000000 NULL
13
Lattice="5.251049418648948 0.24739185635368374 0.32971959313684274 0.5179628091675745 5.206442341144312 -0.008784650945759488 1.9259377359460694 2.2344910479081475 11.873724984258654" Properties=species:S:1:pos:R:3:initial_magmoms:R:1:castep_labels:S:1 n_minim_iter=10 pbc="T T T"
P        3.40266990       0.51729241       2.00009298       0.00000000 NULL
P        2.33193042       4.63837393       7.73013462       0.00000000 NULL
P        4.96742677       1.19333249       0.60321703       0.00000000 NULL
P        1.88499535       1.66723746       0.74314023       0.00000000 NULL
P        0.56820220       1.84164746       2.51996946       0.00000000 NULL
P        2.15317305       3.60398979       5.91954940       0.00000000 NULL
P        1.12515575       2.14882246       4.63125801       0.00000000 NULL
P        3.59415888       3.65956114       0.36457370       0.00000000 NULL
P        1.80313806       4.29734318       1.34068226       0.00000000 NULL
P        6.41737741       6.53377194       8.42073939       0.00000000 NULL
P        4.60631767       2.23524771      10.87788442       0.00000000 NULL
P        5.38767969       2.83905694       7.03287789       0.00000000 NULL
P        5.10091564       5.98937275       3.94765159       0.00000000 NULL
13
Lattice="5.248092807503704 0.24839158464726996 0.3335589980957575 0.5190412982836586 5.201687131204566 -0.006471902643643886 1.934746306854579 2.2367653877714178 11.864301892059927" Properties=species:S:1:pos:R:3:initial_magmoms:R:1:castep_labels:S:1 n_minim_iter=11 pbc="T T T"
P        3.40260696       0.51702366       2.00272175       0.00000000 NULL
P        2.33790182       4.63721595       7.72652068       0.00000000 NULL
P        4.96565001       1.19269273       0.60660549       0.00000000 NULL
P        1.88482838       1.66542724       0.74097646       0.00000000 NULL
P        0.57029436       1.84344745       2.52070191       0.00000000 NULL
P        2.15796922       3.60295638       5.91606227       0.00000000 NULL
P        1.12693056       2.14702366       4.62937101       0.00000000 NULL
P        3.59513729       3.65750890       0.36823983       0.00000000 NULL
P        1.80264194       4.29356428       1.34293357       0.00000000 NULL
P        6.42201850       6.53219398       8.42116663       0.00000000 NULL
P        4.61283518       2.23862621      10.86998422       0.00000000 NULL
P        5.39069863       2.84098317       7.02962154       0.00000000 NULL
P        5.10213568       5.98586533       3.95006836       0.00000000 NULL
13
Lattice="5.2464347286458235 0.2504568338531027 0.3393998378701881 0.5214559977666072 5.198047264052725 -0.0029309707639333725 1.9489878866253456 2.241908239197294 11.857351525034469" Properties=species:S:1:pos:R:3:initial_magmoms:R:1:castep_labels:S:1 n_minim_iter=12 pbc="T T T"
P        3.40434735       0.51700029       2.00815300       0.00000000 NULL
P        2.34851337       4.63873660       7.72588644       0.00000000 NULL
P        4.96585462       1.19275600       0.61186017       0.00000000 NULL
P        1.88570713       1.66379230       0.73749837       0.00000000 NULL
P        0.57393894       1.84806131       2.52369609       0.00000000 NULL
P        2.16661842       3.60403787       5.91419705       0.00000000 NULL
P        1.13007649       2.14554188       4.62958749       0.00000000 NULL
P        3.59927918       3.65716915       0.37402216       0.00000000 NULL
P        1.80286962       4.29074983       1.34727423       0.00000000 NULL
P        6.43283906       6.53483884       8.42726220       0.00000000 NULL
P        4.62508471       2.24580417      10.86423853       0.00000000 NULL
P        5.39817434       2.84648215       7.02857715       0.00000000 NULL
P        5.10703555       5.98486151       3.95621533       0.00000000 NULL
13
Lattice="5.225280183268643 0.2744908838651323 0.3967667181822925 0.5494787132879156 5.166259235924208 0.03128512692951702 2.0898385678245783 2.2937118432529897 11.786980276612688" Properties=species:S:1:pos:R:3:initial_magmoms:R:1:castep_labels:S:1 n_minim_iter=13 pbc="T T T"
P        3.41876428       0.51846247       2.06168152       0.00000000 NULL
P        2.45603248       4.65656067       7.71734461       0.00000000 NULL
P        4.96507059       1.19672822       0.66307109       0.00000000 NULL
P        1.89336255       1.64880092       0.70144371       0.00000000 NULL
P        0.61205786       1.89817135       2.55348456       0.00000000 NULL
P        2.25286883       3.61830643       5.89330116       0.00000000 NULL
P        1.16250130       2.13102193       4.63177727       0.00000000 NULL
P        3.64081251       3.65921543       0.43185932       0.00000000 NULL
P        1.80594426       4.26631672       1.38889311       0.00000000 NULL
P        6.53934046       6.56975625       8.48704619       0.00000000 NULL
P        4.74358811       2.32008976      10.80447630       0.00000000 NULL
P        5.46894690       2.90622293       7.01604772       0.00000000 NULL
P        5.15520838       5.98138618       4.01599952       0.00000000 NULL
13
Lattice="5.213090175491848 0.3235249231094854 0.3805947047418139 0.6079501057442321 5.2089810810379635 0.05483884616101895 2.0753510774798447 2.367402920801111 11.852125862122067" Properties=species:S:1:pos:R:3:initial_magmoms:R:1:castep_labels:S:1 n_minim_iter=14 pbc="T T T"
P        3.41096197       0.54091495       2.08012109       0.00000000 NULL
P        2.48767803       4.72865325       7.76719997       0.00000000 NULL
P        4.97738903       1.23772362       0.64854844       0.00000000 NULL
P        1.90675752       1.66611356       0.66534762       0.00000000 NULL
P        0.62220632       1.97517182       2.59891507       0.00000000 NULL
P        2.27284590       3.68726061       5.91418813       0.00000000 NULL
P        1.16465313       2.14409130       4.68430931       0.00000000 NULL
P        3.69372060       3.72500716       0.44667562       0.00000000 NULL
P        1.82038638       4.30663449       1.41486230       0.00000000 NULL
P        6.56832251       6.71696368       8.56732343       0.00000000 NULL
P        4.72875649       2.42450633      10.82864335       0.00000000 NULL
P        5.46285579       3.01640678       7.02885583       0.00000000 NULL
P        5.18947073       6.07508088       4.05475158       0.00000000 NULL
13
Lattice="5.166223665810549 0.31879137698132204 0.39421433150242374 0.6002892407514275 5.150723318133326 0.06737017887727896 2.0951476949171655 2.364546167553359 11.717434460691443" Properties=species:S:1:pos:R:3:initial_magmoms:R:1:castep_labels:S:1 n_minim_iter=15 pbc="T T T"
P        3.38666282       0.53679639       2.06706689       0.00000000 NULL
P        2.48816027       4.69069291       7.68844805       0.00000000 NULL
P        4.93419385       1.22210251       0.66053966       0.00000000 NULL
P        1.89064242       1.64726737       0.66515049       0.00000000 NULL
P        0.62288390       1.96041671       2.57504085       0.00000000 NULL
P        2.26990064       3.65778588       5.85595977       0.00000000 NULL
P        1.16903243       2.12731858       4.63666021       0.00000000 NULL
P        3.65961700       3.68376401       0.46169369       0.00000000 NULL
P        1.80533598       4.26018336       1.41271297       0.00000000 NULL
P        6.53422345       6.65775773       8.49856509       0.00000000 NULL
P        4.72135094       2.41850202      10.71538631       0.00000000 NULL
P        5.43499877       2.99610345       6.96605978       0.00000000 NULL
P        5.15377505       6.01446779       4.03463575       0.00000000 NULL
13
Lattice="5.177096663520528 0.3210147626292181 0.3975969583747057 0.603420065209682 5.1578465837167355 0.07235805249210493 2.106260303629127 2.3773139603588693 11.728329238267653" Properties=species:S:1:pos:R:3:initial_magmoms:R:1:castep_labels:S:1 n_minim_iter=16 pbc="T T T"
P        3.39493084       0.53894637       2.07124393       0.00000000 NULL
P        2.49898103       4.70307820       7.69828377       0.00000000 NULL
P        4.94605266       1.22478876       0.66469954       0.00000000 NULL
P        1.89534217       1.65009748       0.66603449       0.00000000 NULL
P        0.62532077       1.96781768       2.58035286       0.00000000 NULL
P        2.27875100       3.66828965       5.86300991       0.00000000 NULL
P        1.17511628       2.13215501       4.64377817       0.00000000 NULL
P        3.66975208       3.69015673       0.46800139       0.00000000 NULL
P        1.80959248       4.26678916       1.41866998       0.00000000 NULL
P        6.55418464       6.67581367       8.51530147       0.00000000 NULL
P        4.73771460       2.43193605      10.72555315       0.00000000 NULL
P        5.45023396       3.00819349       6.97533582       0.00000000 NULL
P        5.16872563       6.02709024       4.04599071       0.00000000 NULL
13
Lattice="5.179340129588762 0.3229857200301232 0.40128794050880356 0.6058850808170317 5.1573136124550665 0.07693025007032327 2.1162529190930157 2.385928151473888 11.721363304459151" Properties=species:S:1:pos:R:3:initial_magmoms:R:1:castep_labels:S:1 n_minim_iter=17 pbc="T T T"
P        3.39797017       0.54034696       2.07276957       0.00000000 NULL
P        2.50727382       4.70817399       7.69625905       0.00000000 NULL
P        4.94979963       1.22579965       0.66868969       0.00000000 NULL
P        1.89710843       1.65046301       0.66616741       0.00000000 NULL
P        0.62727130       1.97214523       2.58169853       0.00000000 NULL
P        2.28507258       3.67308700       5.86120717       0.00000000 NULL
P        1.18028212       2.13355206       4.64382334       0.00000000 NULL
P        3.67388230       3.69127417       0.47394966       0.00000000 NULL
P        1.81140940       4.26706547       1.42236317       0.00000000 NULL
P        6.56526485       6.68367909       8.51953030       0.00000000 NULL
P        4.74836562       2.44130428      10.71999588       0.00000000 NULL
P        5.45788757       3.01562369       6.97465455       0.00000000 NULL
P        5.17618539       6.03080722       4.05146314       0.00000000 NULL
13
Lattice="5.183823188830992 0.3291004919736235 0.4091813217314108 0.6134286764950709 5.157261373993366 0.08711647716729867 2.138540999941769 2.405942015602655 11.705195776514604" Properties=species:S:1:pos:R:3:initial_magmoms:R:1:castep_labels:S:1 n_minim_iter=18 pbc="T T T"
P        3.40453629       0.54417062       2.07607670       0.00000000 NULL
P        2.52693228       4.72084341       7.69088618       0.00000000 NULL
P        4.95847351       1.22949226       0.67718075       0.00000000 NULL
P        1.90145851       1.65199417       0.66561454       0.00000000 NULL
P        0.63184410       1.98340910       2.58519730       0.00000000 NULL
P        2.29990823       3.68523402       5.85622712       0.00000000 NULL
P        1.19262436       2.13647696       4.64429009       0.00000000 NULL
P        3.68451212       3.69562700       0.48737887       0.00000000 NULL
P        1.81619908       4.26873576       1.43044226       0.00000000 NULL
P        6.59138676       6.70458054       8.52896234       0.00000000 NULL
P        4.77203799       2.46409053      10.70619469       0.00000000 NULL
P        5.47487535       3.03480624       6.97215616       0.00000000 NULL
P        5.19441915       6.04173713       4.06337051       0.00000000 NULL
13
Lattice="5.183932986550823 0.33759086113031 0.41391846329541854 0.6236463383758972 5.158503190139741 0.0948973821002074 2.1538955469701326 2.4225688274500414 11.688331459165259" Properties=species:S:1:pos:R:3:initial_magmoms:R:1:castep_labels:S:1 n_minim_iter=19 pbc="T T T"
P        3.40757897       0.54856131       2.07756683       0.00000000 NULL
P        2.54305596       4.73238082       7.68274659       0.00000000 NULL
P        4.96380000       1.23525151       0.68218412       0.00000000 NULL
P        1.90494817       1.65441936       0.66302787       0.00000000 NULL
P        0.63534299       1.99518879       2.58837360       0.00000000 NULL
P        2.31154921       3.69694257       5.84859601       0.00000000 NULL
P        1.20321826       2.13771787       4.64426016       0.00000000 NULL
P        3.69431655       3.70225957       0.49766694       0.00000000 NULL
P        1.82071266       4.27133333       1.43579997       0.00000000 NULL
P        6.61133422       6.72658218       8.53361270       0.00000000 NULL
P        4.78729845       2.48524939      10.68941722       0.00000000 NULL
P        5.48497655       3.05472135       6.96590717       0.00000000 NULL
P        5.20966806       6.05463721       4.07042044       0.00000000 NULL
13
Lattice="5.182793645430246 0.3430792552784996 0.4155802825243788 0.6302005047408104 5.159422774912168 0.09981187302847085 2.1603448861105354 2.4332583393318763 11.677620359598569" Properties=species:S:1:pos:R:3:initial_magmoms:R:1:castep_labels:S:1 n_minim_iter=20 pbc="T T T"
P        3.40831361       0.55148839       2.07762784       0.00000000 NULL
P        2.55099545       4.73991821       7.67733752       0.00000000 NULL
P        4.96599855       1.23905936       0.68409337       0.00000000 NULL
P        1.90668880       1.65613324       0.66118236       0.00000000 NULL
P        0.63680397       2.00258997       2.59034894       0.00000000 NULL
P        2.31702960       3.70450683       5.84345608       0.00000000 NULL
P        1.20879092       2.13859142       4.64409959       0.00000000 NULL
P        3.69970054       3.70661572       0.50336058       0.00000000 NULL
P        1.82300837       4.27313402       1.43881413       0.00000000 NULL
P        6.62071560       6.74084952       8.53530354       0.00000000 NULL
P        4.79339497       2.49875189      10.67809882       0.00000000 NULL
P        5.48856606       3.06753242       6.96098041       0.00000000 NULL
P        5.21747647       6.06312059       4.07381737       0.00000000 NULL
13
Lattice="5.182396383856694 0.34512951219915783 0.41606663576476344 0.6326500838661326 5.159937788245054 0.10163301104728009 2.1624489103005455 2.437307642595665 11.673991235956528" Properties=species:S:1:pos:R:3:initial_magmoms:R:1:castep_labels:S:1 n_minim_iter=21 pbc="T T T"
P        3.40855825       0.55261154       2.07760198       0.00000000 NULL
P        2.55376007       4.74288485       7.67553309       0.00000000 NULL
P        4.96682750       1.24052835       0.68468805       0.00000000 NULL
P        1.90733854       1.65685270       0.66052593       0.00000000 NULL
P        0.63728236       2.00535393       2.59113533       0.00000000 NULL
P        2.31891730       3.70743398       5.84170079       0.00000000 NULL
P        1.21078110       2.13900257       4.64414895       0.00000000 NULL
P        3.70169958       3.70835299       0.50539593       0.00000000 NULL
P        1.82386184       4.27395434       1.43992575       0.00000000 NULL
P        6.62403613       6.74636631       8.53602871       0.00000000 NULL
P        4.79541478       2.50382669      10.67416092       0.00000000 NULL
P        5.48975841       3.07238128       6.95926667       0.00000000 NULL
P        5.22032674       6.06648623       4.07508281       0.00000000 NULL
13
Lattice="5.181865818184007 0.347578898416571 0.41662079770283555 0.6355741806061346 5.160543001364305 0.10381290433358278 2.1648893675634016 2.4421512148956537 11.669590019779713" Properties=species:S:1:pos:R:3:initial_magmoms:R:1:castep_labels:S:1 n_minim_iter=22 pbc="T T T"
P        3.40880685       0.55396058       2.07753343       0.00000000 NULL
P        2.55699982       4.74643063       7.67333186       0.00000000 NULL
P        4.96776157       1.24228558       0.68537313       0.00000000 NULL
P        1.90809411       1.65771975       0.65975329       0.00000000 NULL
P        0.63783495       2.00863496       2.59205427       0.00000000 NULL
P        2.32111747       3.71092692       5.83957341       0.00000000 NULL
P        1.21313938       2.13949864       4.64417423       0.00000000 NULL
P        3.70404004       3.71042063       0.50781267       0.00000000 NULL
P        1.82486535       4.27492976       1.44123754       0.00000000 NULL
P        6.62790301       6.75294941       8.53681933       0.00000000 NULL
P        4.79773312       2.50988618      10.66939428       0.00000000 NULL
P        5.49109718       3.07817097       6.95717061       0.00000000 NULL
P        5.22366880       6.07050536       4.07655653       0.00000000 NULL
13
Lattice="5.180478945950914 0.35371085124729507 0.4179294635563328 0.6428920945058454 5.162126131432869 0.10927108321306737 2.170805556146023 2.454314160721494 11.65861230114978" Properties=species:S:1:pos:R:3:initial_magmoms:R:1:castep_labels:S:1 n_minim_iter=23 pbc="T T T"
P        3.40936468       0.55736163       2.07728739       0.00000000 NULL
P        2.56495774       4.75538221       7.66783298       0.00000000 NULL
P        4.97003227       1.24670971       0.68701611       0.00000000 NULL
P        1.90995939       1.65993975       0.65786055       0.00000000 NULL
P        0.63917443       2.01682018       2.59434190       0.00000000 NULL
P        2.32649721       3.71971355       5.83426956       0.00000000 NULL
P        1.21899626       2.14078731       4.64422350       0.00000000 NULL
P        3.70983059       3.71564019       0.51381534       0.00000000 NULL
P        1.82735809       4.27743232       1.44449020       0.00000000 NULL
P        6.63740229       6.76951272       8.53872690       0.00000000 NULL
P        4.80333576       2.52506640      10.65748765       0.00000000 NULL
P        5.49429495       3.09269376       6.95191052       0.00000000 NULL
P        5.23194080       6.08066319       4.08019750       0.00000000 NULL
13
Lattice="5.176519861835075 0.37096407794466346 0.42114533815480365 0.6634798238179598 5.167338887602097 0.12466028573339086 2.1863625512331555 2.4889605137913184 11.628638977796697" Properties=species:S:1:pos:R:3:initial_magmoms:R:1:castep_labels:S:1 n_minim_iter=24 pbc="T T T"
P        3.41073363       0.56708549       2.07624007       0.00000000 NULL
P        2.58651519       4.78135138       7.65285838       0.00000000 NULL
P        4.97631385       1.25935799       0.69122328       0.00000000 NULL
P        1.91515130       1.66660224       0.65282137       0.00000000 NULL
P        0.64267867       2.03984692       2.60087807       0.00000000 NULL
P        2.34093367       3.74495179       5.81980665       0.00000000 NULL
P        1.23527308       2.14481296       4.64455831       0.00000000 NULL