32
Lattice="5.146069999999999 0.0 0.0 0.0 8.09602 0.0 0.0 0.0 17.68511" Properties=species:S:1:pos:R:3:initial_magmoms:R:1:castep_labels:S:1 n_minim_iter=1 pbc="T T T"
P        1.79977674       5.81825416       3.16693808       0.00000000 NULL
P        3.34629326       2.27776584       3.16693808       0.00000000 NULL
P        0.77325826       1.77024416      14.51817192       0.00000000 NULL
P        4.37281174       6.32577584      14.51817192       0.00000000 NULL
P        1.03896374       7.25541186      14.35981237       0.00000000 NULL
P        4.10710626       0.84060814      14.35981237       0.00000000 NULL
P        1.53407126       3.20740186       3.32529763       0.00000000 NULL
P        3.61199874       4.88861814       3.32529763       0.00000000 NULL
P        0.65371659       2.34261739       8.33886892       0.00000000 NULL
P        4.49235341       5.75340261       8.33886892       0.00000000 NULL
P        1.91931841       6.39062739       9.34624108       0.00000000 NULL
P        3.22675159       1.70539261       9.34624108       0.00000000 NULL
P        4.54464159       3.23583670       9.64855389       0.00000000 NULL
P        0.60142841       4.86018330       9.64855389       0.00000000 NULL
P        3.17446341       7.28384670       8.03655611       0.00000000 NULL
P        1.97160659       0.81217330       8.03655611       0.00000000 NULL
P        0.83291459       7.24608525       7.85597169       0.00000000 NULL
P        4.31315541       0.84993475       7.85597169       0.00000000 NULL
P        1.74012041       3.19807525       9.82913831       0.00000000 NULL
P        3.40594959       4.89794475       9.82913831       0.00000000 NULL
P        3.38803251       0.61123737       5.74253914       0.00000000 NULL
P        1.75803749       7.48478263       5.74253914       0.00000000 NULL
P        4.33107249       4.65924737      11.94257086       0.00000000 NULL
P        0.81499751       3.43677263      11.94257086       0.00000000 NULL
P        3.21691179       3.09638924      11.20132423       0.00000000 NULL
P        1.92915821       4.99963076      11.20132423       0.00000000 NULL
P        4.50219321       7.14439924       6.48378577       0.00000000 NULL
P        0.64387679       0.95162076       6.48378577       0.00000000 NULL
P        2.98496916       2.78399621      13.39251467       0.00000000 NULL
P        2.16110084       5.31202379      13.39251467       0.00000000 NULL
P        4.73413584       6.83200621       4.29259533       0.00000000 NULL
P        0.41193416       1.26401379       4.29259533       0.00000000 NULL
32
Lattice="5.229820718357474 0.0 0.0 0.0 8.178796452171103 0.0 0.0 0.0 17.8905627566337" Properties=species:S:1:pos:R:3:initial_magmoms:R:1:castep_labels:S:1 n_minim_iter=2 pbc="T T T"
P        1.82894703       5.87771362       3.20371709       0.00000000 NULL
P        3.40087369       2.30108283       3.20371709       0.00000000 NULL
P        0.78596333       1.78831540      14.68684567       0.00000000 NULL
P        4.44385739       6.39048106      14.68684567       0.00000000 NULL
P        1.05598142       7.32969881      14.52659568       0.00000000 NULL
P        4.17383930       0.84909764      14.52659568       0.00000000 NULL
P        1.55892894       3.24030059       3.36396708       0.00000000 NULL
P        3.67089178       4.93849587       3.36396708       0.00000000 NULL
P        0.66431791       2.36666174       8.43544051       0.00000000 NULL
P        4.56550281       5.81213471       8.43544051       0.00000000 NULL
P        1.95059245       6.45605997       9.45512225       0.00000000 NULL
P        3.27922827       1.72273648       9.45512225       0.00000000 NULL
P        4.61863969       3.26865689       9.76051194       0.00000000 NULL
P        0.61118103       4.91013956       9.76051194       0.00000000 NULL
P        3.22609139       7.35805512       8.13005082       0.00000000 NULL
P        2.00372933       0.82074133       8.13005082       0.00000000 NULL
P        0.84646213       7.31994631       7.94737303       0.00000000 NULL
P        4.38335859       0.85885014       7.94737303       0.00000000 NULL
P        1.76844823       3.23054808       9.94318973       0.00000000 NULL
P        3.46137249       4.94824837       9.94318973       0.00000000 NULL
P        3.44318018       0.61791033       5.80884129       0.00000000 NULL
P        1.78664054       7.56088612       5.80884129       0.00000000 NULL
P        4.40155090       4.70730855      12.08172146       0.00000000 NULL
P        0.82826982       3.47148790      12.08172146       0.00000000 NULL
P        3.26936158       3.12759188      11.33206955       0.00000000 NULL
P        1.96045914       5.05120457      11.33206955       0.00000000 NULL
P        4.57536950       7.21699011       6.55849321       0.00000000 NULL
P        0.65445122       0.96180634       6.55849321       0.00000000 NULL
P        3.03352084       2.81238672      13.54819678       0.00000000 NULL
P        2.19629988       5.36640973      13.54819678       0.00000000 NULL
P        4.81121024       6.90178495       4.34236598       0.00000000 NULL
P        0.41861048       1.27701150       4.34236598       0.00000000 NULL
32
Lattice="5.656117296145549 0.0 0.0 0.0 8.582551660598307 0.0 0.0 0.0 18.92561741344651" Properties=species:S:1:pos:R:3:initial_magmoms:R:1:castep_labels:S:1 n_minim_iter=3 pbc="T T T"
P        1.97755922       6.16742965       3.38903725       0.00000000 NULL
P        3.67855808       2.41512201       3.38903725       0.00000000 NULL
P        0.85049943       1.87615382      15.53658016       0.00000000 NULL
P        4.80561787       6.70639784      15.53658016       0.00000000 NULL
P        1.14239823       7.69202829      15.36678670       0.00000000 NULL
P        4.51371907       0.89052337      15.36678670       0.00000000 NULL
P        1.68566042       3.40075246       3.55883071       0.00000000 NULL
P        3.97045687       5.18179920       3.55883071       0.00000000 NULL
P        0.71826305       2.48394293       8.92191796       0.00000000 NULL
P        4.93785425       6.09860873       8.92191796       0.00000000 NULL
P        2.10979560       6.77521876      10.00369945       0.00000000 NULL
P        3.54632169       1.80733290      10.00369945       0.00000000 NULL
P        4.99526435       3.42851753      10.32439147       0.00000000 NULL
P        0.66085294       5.15403413      10.32439147       0.00000000 NULL
P        3.48891159       7.71979336       8.60122595       0.00000000 NULL
P        2.16720570       0.86275830       8.60122595       0.00000000 NULL
P        0.91547839       7.67997002       8.40795528       0.00000000 NULL
P        4.74063890       0.90258164       8.40795528       0.00000000 NULL
P        1.91258025       3.38869419      10.51766214       0.00000000 NULL
P        3.74353704       5.19385747      10.51766214       0.00000000 NULL
P        3.72385594       0.65065226       6.14260948       0.00000000 NULL
P        1.93226135       7.93189940       6.14260948       0.00000000 NULL
P        4.76032000       4.94192809      12.78300793       0.00000000 NULL
P        0.89579730       3.64062357      12.78300793       0.00000000 NULL
P        3.53654207       3.27940291      11.99116857       0.00000000 NULL
P        2.11957523       5.30314876      11.99116857       0.00000000 NULL
P        4.94763388       7.57067874       6.93444884       0.00000000 NULL
P        0.70848342       1.01187293       6.93444884       0.00000000 NULL
P        3.28064455       2.95079494      14.33237834       0.00000000 NULL
P        2.37547275       5.63175672      14.33237834       0.00000000 NULL
P        5.20353140       7.24207077       4.59323907       0.00000000 NULL
P        0.45258590       1.34048089       4.59323907       0.00000000 NULL
32
Lattice="5.781378129939047 0.0 0.0 0.0 8.623068075918658 0.0 0.0 0.0 19.237311803329376" Properties=species:S:1:pos:R:3:initial_magmoms:R:1:castep_labels:S:1 n_minim_iter=4 pbc="T T T"
P        2.02172011       6.19514415       3.44520466       0.00000000 NULL
P        3.75965802       2.42792393       3.44520466       0.00000000 NULL
P        0.86896896       1.88361011      15.79210714       0.00000000 NULL
P        4.91240917       6.73945796      15.79210714       0.00000000 NULL
P        1.16668857       7.72865155      15.61959579       0.00000000 NULL
P        4.61468956       0.89441652      15.61959579       0.00000000 NULL
P        1.72400049       3.41711752       3.61771601       0.00000000 NULL
P        4.05737764       5.20595056       3.61771601       0.00000000 NULL
P        0.73390860       2.49568478       9.06858152       0.00000000 NULL
P        5.04746953       6.12738329       9.06858152       0.00000000 NULL
P        2.15678047       6.80721882      10.16873029       0.00000000 NULL
P        3.62459766       1.81584926      10.16873029       0.00000000 NULL
P        5.10636197       3.44325946      10.49332051       0.00000000 NULL
P        0.67501616       5.17980862      10.49332051       0.00000000 NULL
P        3.56570523       7.75479350       8.74399130       0.00000000 NULL
P        2.21567290       0.86827458       8.74399130       0.00000000 NULL
P        0.93643825       7.71482208       8.54718193       0.00000000 NULL
P        4.84493988       0.90824600       8.54718193       0.00000000 NULL
P        1.95425082       3.40328804      10.69012987       0.00000000 NULL
P        3.82712731       5.21978004      10.69012987       0.00000000 NULL
P        3.80590193       0.65427157       6.24210707       0.00000000 NULL
P        1.97547620       7.96879651       6.24210707       0.00000000 NULL
P        4.86616526       4.96580561      12.99520473       0.00000000 NULL
P        0.91521287       3.65726247      12.99520473       0.00000000 NULL
P        3.61600040       3.29290419      12.19152087       0.00000000 NULL
P        2.16537773       5.33016388      12.19152087       0.00000000 NULL
P        5.05606679       7.60443823       7.04579093       0.00000000 NULL
P        0.72531134       1.01862984       7.04579093       0.00000000 NULL
P        3.35304627       2.96438293      14.56789492       0.00000000 NULL
P        2.42833186       5.65868515      14.56789492       0.00000000 NULL
P        5.31902093       7.27591696       4.66941688       0.00000000 NULL
P        0.46235720       1.34715111       4.66941688       0.00000000 NULL
32
Lattice="5.8320910849656675 0.0 0.0 0.0 8.555042789987365 0.0 0.0 0.0 19.425332073245606" Properties=species:S:1:pos:R:3:initial_magmoms:R:1:castep_labels:S:1 n_minim_iter=5 pbc="T T T"
P        2.04000370       6.14450625       3.47940475       0.00000000 NULL
P        3.79208738       2.41053654       3.47940475       0.00000000 NULL
P        0.87604184       1.86698486      15.94592732       0.00000000 NULL
P        4.95604925       6.68805793      15.94592732       0.00000000 NULL
P        1.17539315       7.66810506      15.77190559       0.00000000 NULL
P        4.65669793       0.88693773      15.77190559       0.00000000 NULL
P        1.74065239       3.39058367       3.65342648       0.00000000 NULL
P        4.09143870       5.16445912       3.65342648       0.00000000 NULL
P        0.73996156       2.47599187       9.15734856       0.00000000 NULL
P        5.09212952       6.07905092       9.15734856       0.00000000 NULL
P        2.17608398       6.75351327      10.26798351       0.00000000 NULL
P        3.65600711       1.80152952      10.26798351       0.00000000 NULL
P        5.15174232       3.41438003      10.59450299       0.00000000 NULL
P        0.68034876       5.14066276      10.59450299       0.00000000 NULL
P        3.59639430       7.69190142       8.83082908       0.00000000 NULL
P        2.23569678       0.86314137       8.83082908       0.00000000 NULL
P        0.94562707       7.65235234       8.63162577       0.00000000 NULL
P        4.88646402       0.90269045       8.63162577       0.00000000 NULL
P        1.97041848       3.37483094      10.79370630       0.00000000 NULL
P        3.86167261       5.18021185      10.79370630       0.00000000 NULL
P        3.83857999       0.64917327       6.30136180       0.00000000 NULL
P        1.99351110       7.90586952       6.30136180       0.00000000 NULL
P        4.90955664       4.92669466      13.12397028       0.00000000 NULL
P        0.92253445       3.62834813      13.12397028       0.00000000 NULL
P        3.64919454       3.26496089      12.31385441       0.00000000 NULL
P        2.18289654       5.29008190      12.31385441       0.00000000 NULL
P        5.09894209       7.54248228       7.11147766       0.00000000 NULL
P        0.73314900       1.01256051       7.11147766       0.00000000 NULL
P        3.38200223       2.94068084      14.70957807       0.00000000 NULL
P        2.45008886       5.61436195      14.70957807       0.00000000 NULL
P        5.36613440       7.21820224       4.71575400       0.00000000 NULL
P        0.46595668       1.33684055       4.71575400       0.00000000 NULL
32
Lattice="5.866399735650223 0.0 0.0 0.0 8.423955564036959 0.0 0.0 0.0 19.677226618686333" Properties=species:S:1:pos:R:3:initial_magmoms:R:1:castep_labels:S:1 n_minim_iter=6 pbc="T T T"
P        2.05296237       6.04754854       3.52537038       0.00000000 NULL
P        3.81343736       2.37640703       3.52537038       0.00000000 NULL
P        0.88023750       1.83557075      16.15185624       0.00000000 NULL
P        4.98616224       6.58838481      16.15185624       0.00000000 NULL
P        1.17980571       7.55130115      15.97587401       0.00000000 NULL
P        4.68659402       0.87265441      15.97587401       0.00000000 NULL
P        1.75339415       3.33932337       3.70135261       0.00000000 NULL
P        4.11300558       5.08463219       3.70135261       0.00000000 NULL
P        0.74362166       2.43812398       9.27661285       0.00000000 NULL
P        5.12277807       5.98583159       9.27661285       0.00000000 NULL
P        2.18957820       6.65010176      10.40061377       0.00000000 NULL
P        3.67682153       1.77385381      10.40061377       0.00000000 NULL
P        5.18297824       3.35937363      10.72978933       0.00000000 NULL
P        0.68342149       5.06458194      10.72978933       0.00000000 NULL
P        3.61662136       7.57135141       8.94743729       0.00000000 NULL
P        2.24977837       0.85260416       8.94743729       0.00000000 NULL
P        0.95263717       7.53261460       8.74499408       0.00000000 NULL
P        4.91376257       0.89134096       8.74499408       0.00000000 NULL
P        1.98056270       3.32063682      10.93223254       0.00000000 NULL
P        3.88583703       5.10331874      10.93223254       0.00000000 NULL
P        3.85986425       0.63906939       6.38042927       0.00000000 NULL
P        2.00653549       7.78488617       6.38042927       0.00000000 NULL
P        4.93973536       4.85104718      13.29679735       0.00000000 NULL
P        0.92666438       3.57290839      13.29679735       0.00000000 NULL
P        3.67301311       3.21211554      12.47842337       0.00000000 NULL
P        2.19338663       5.21184003      12.47842337       0.00000000 NULL
P        5.12658650       7.42409332       7.19880325       0.00000000 NULL
P        0.73981324       0.99986225       7.19880325       0.00000000 NULL
P        3.40110691       2.89524658      14.89925709       0.00000000 NULL
P        2.46529283       5.52870899      14.89925709       0.00000000 NULL
P        5.39849269       7.10722436       4.77796953       0.00000000 NULL
P        0.46790704       1.31673121       4.77796953       0.00000000 NULL
32
Lattice="5.911262699360204 0.0 0.0 0.0 8.151151217323992 0.0 0.0 0.0 20.406639167050535" Properties=species:S:1:pos:R:3:initial_magmoms:R:1:castep_labels:S:1 n_minim_iter=7 pbc="T T T"
P        2.07139712       5.84468592       3.65811460       0.00000000 NULL
P        3.83986558       2.30646530       3.65811460       0.00000000 NULL
P        0.88423423       1.76911031      16.74852457       0.00000000 NULL
P        5.02702847       6.38204091      16.74852457       0.00000000 NULL
P        1.18261199       7.30851569      16.56675222       0.00000000 NULL
P        4.72865071       0.84263553      16.56675222       0.00000000 NULL
P        1.77301936       3.23294008       3.83988695       0.00000000 NULL
P        4.13824334       4.91821113       3.83988695       0.00000000 NULL
P        0.74732218       2.35969545       9.62252296       0.00000000 NULL
P        5.16394052       5.79145577       9.62252296       0.00000000 NULL
P        2.20830917       6.43527106      10.78411620       0.00000000 NULL
P        3.70295353       1.71588016      10.78411620       0.00000000 NULL
P        5.22505004       3.24397727      11.12259573       0.00000000 NULL
P        0.68621266       4.90717395      11.12259573       0.00000000 NULL
P        3.64184401       7.31955287       9.28404344       0.00000000 NULL
P        2.26941869       0.83159834       9.28404344       0.00000000 NULL
P        0.96311838       7.28246615       9.07292358       0.00000000 NULL
P        4.94814432       0.86868507       9.07292358       0.00000000 NULL
P        1.99251297       3.20689054      11.33371559       0.00000000 NULL
P        3.91874973       4.94426067      11.33371559       0.00000000 NULL
P        3.88572691       0.61773818       6.61040287       0.00000000 NULL
P        2.02553579       7.53341304       6.61040287       0.00000000 NULL
P        4.98116714       4.69331379      13.79623630       0.00000000 NULL
P        0.93009556       3.45783743      13.79623630       0.00000000 NULL
P        3.70695157       3.10171892      12.95324605       0.00000000 NULL
P        2.20431113       5.04943230      12.95324605       0.00000000 NULL
P        5.15994248       7.17729453       7.45339312       0.00000000 NULL
P        0.75132022       0.97385669       7.45339312       0.00000000 NULL
P        3.42514285       2.80094976      15.44918013       0.00000000 NULL
P        2.48611984       5.35020146      15.44918013       0.00000000 NULL
P        5.44175119       6.87652537       4.95745904       0.00000000 NULL
P        0.46951151       1.27462585       4.95745904       0.00000000 NULL
32
Lattice="5.914292385237726 0.0 0.0 0.0 8.099564418273406 0.0 0.0 0.0 20.68821990756587" Properties=species:S:1:pos:R:3:initial_magmoms:R:1:castep_labels:S:1 n_minim_iter=8 pbc="T T T"
P        2.07346196       5.80573892       3.70910652       0.00000000 NULL
P        3.84083043       2.29382550       3.70910652       0.00000000 NULL
P        0.88368424       1.75595671      16.97911339       0.00000000 NULL
P        5.03060815       6.34360771      16.97911339       0.00000000 NULL
P        1.18155970       7.26284506      16.79508351       0.00000000 NULL
P        4.73273268       0.83671936      16.79508351       0.00000000 NULL
P        1.77558649       3.21306285       3.89313639       0.00000000 NULL
P        4.13870589       4.88650157       3.89313639       0.00000000 NULL
P        0.74709547       2.34512710       9.75618532       0.00000000 NULL
P        5.16719691       5.75443732       9.75618532       0.00000000 NULL
P        2.21005072       6.39490931      10.93203459       0.00000000 NULL
P        3.70424166       1.70465511      10.93203459       0.00000000 NULL
P        5.22849698       3.22152294      11.27506539       0.00000000 NULL
P        0.68579541       4.87804148      11.27506539       0.00000000 NULL
P        3.64294160       7.27130514       9.41315452       0.00000000 NULL
P        2.27135078       0.82825927       9.41315452       0.00000000 NULL
P        0.96429716       7.23453196       9.19930952       0.00000000 NULL
P        4.94999522       0.86503246       9.19930952       0.00000000 NULL
P        1.99284903       3.18474975      11.48891039       0.00000000 NULL
P        3.92144336       4.91481467      11.48891039       0.00000000 NULL
P        3.88651381       0.61352603       6.70004716       0.00000000 NULL
P        2.02777858       7.48603839       6.70004716       0.00000000 NULL
P        4.98492477       4.66330824      13.98817275       0.00000000 NULL
P        0.92936762       3.43625618      13.98817275       0.00000000 NULL
P        3.71035646       3.08069915      13.13515175       0.00000000 NULL
P        2.20393592       5.01886527      13.13515175       0.00000000 NULL
P        5.16108211       7.13048136       7.55306816       0.00000000 NULL
P        0.75321027       0.96908306       7.55306816       0.00000000 NULL
P        3.42638641       2.78331067      15.66201837       0.00000000 NULL
P        2.48790598       5.31625375      15.66201837       0.00000000 NULL
P        5.44505217       6.83309288       5.02620153       0.00000000 NULL
P        0.46924022       1.26647154       5.02620153       0.00000000 NULL
32
Lattice="5.903044236915525 0.0 0.0 0.0 7.80262457484788 0.0 0.0 0.0 22.471056343765326" Properties=species:S:1:pos:R:3:initial_magmoms:R:1:castep_labels:S:1 n_minim_iter=9 pbc="T T T"
P        2.07606838       5.58164272       4.03208764       0.00000000 NULL
P        3.82697586       2.22098186       4.03208764       0.00000000 NULL
P        0.87545374       1.68033043      18.43896870       0.00000000 NULL
P        5.02759049       6.12229415      18.43896870       0.00000000 NULL
P        1.16922302       7.00024350      18.24097913       0.00000000 NULL
P        4.73382121       0.80238107      18.24097913       0.00000000 NULL
P        1.78229909       3.09893121       4.23007722       0.00000000 NULL
P        4.12074514       4.70369336       4.23007722       0.00000000 NULL
P        0.74197906       2.26152866      10.60300011       0.00000000 NULL
P        5.16106518       5.54109591      10.60300011       0.00000000 NULL
P        2.20954306       6.16284095      11.86805623       0.00000000 NULL
P        3.69350118       1.63978362      11.86805623       0.00000000 NULL
P        5.22326991       3.09194682      12.24100228       0.00000000 NULL
P        0.67977433       4.71067776      12.24100228       0.00000000 NULL
P        3.63129645       6.99325910      10.23005407       0.00000000 NULL
P        2.27174779       0.80936547      10.23005407       0.00000000 NULL
P        0.96637436       6.95851834      10.00047494       0.00000000 NULL
P        4.93666988       0.84410623      10.00047494       0.00000000 NULL
P        1.98514776       3.05720605      12.47058140       0.00000000 NULL
P        3.91789648       4.74541852      12.47058140       0.00000000 NULL
P        3.87173394       0.58891606       7.26802669       0.00000000 NULL
P        2.03131029       7.21370851       7.26802669       0.00000000 NULL
P        4.98283241       4.49022835      15.20302965       0.00000000 NULL
P        0.92021182       3.31239622      15.20302965       0.00000000 NULL
P        3.71205811       2.96064051      14.28747510       0.00000000 NULL
P        2.19098613       4.84198406      14.28747510       0.00000000 NULL
P        5.14250825       6.86195280       8.18358124       0.00000000 NULL
P        0.76053599       0.94067177       8.18358124       0.00000000 NULL
P        3.41680569       2.68215631      17.00989005       0.00000000 NULL
P        2.48623855       5.12046827      17.00989005       0.00000000 NULL
P        5.43776067       6.58346859       5.46116630       0.00000000 NULL
P        0.46528357       1.21915598       5.46116630       0.00000000 NULL
32
Lattice="5.905339262288623 0.0 0.0 0.0 7.724365134276061 0.0 0.0 0.0 23.56488190669472" Properties=species:S:1:pos:R:3:initial_magmoms:R:1:castep_labels:S:1 n_minim_iter=10 pbc="T T T"
P        2.08911154       5.51295966       4.23367270       0.00000000 NULL
P        3.81622772       2.21140547       4.23367270       0.00000000 NULL
P        0.86355809       1.65077710      19.33120920       0.00000000 NULL
P        5.04178117       6.07358804      19.33120920       0.00000000 NULL
P        1.15627593       6.93600013      19.13034680       0.00000000 NULL
P        4.74906334       0.78836500      19.13034680       0.00000000 NULL
P        1.79639370       3.07381757       4.43453511       0.00000000 NULL
P        4.10894556       4.65054757       4.43453511       0.00000000 NULL
P        0.73512108       2.24538022      11.12985088       0.00000000 NULL
P        5.17021818       5.47898492      11.12985088       0.00000000 NULL
P        2.21754855       6.10756278      12.43503102       0.00000000 NULL
P        3.68779071       1.61680235      12.43503102       0.00000000 NULL
P        5.23269751       3.04136900      12.83780031       0.00000000 NULL
P        0.67264175       4.68299614      12.83780031       0.00000000 NULL
P        3.62531138       6.90355156      10.72708160       0.00000000 NULL
P        2.28002788       0.82081357      10.72708160       0.00000000 NULL
P        0.96711988       6.87373979      10.49979620       0.00000000 NULL
P        4.93821938       0.85062535      10.49979620       0.00000000 NULL
P        1.98554975       3.01155722      13.06508571       0.00000000 NULL
P        3.91978951       4.71280791      13.06508571       0.00000000 NULL
P        3.86570899       0.58039004       7.61471619       0.00000000 NULL
P        2.03963027       7.14397509       7.61471619       0.00000000 NULL
P        4.99229991       4.44257261      15.95016571       0.00000000 NULL
P        0.91303936       3.28179252      15.95016571       0.00000000 NULL
P        3.71921322       2.92949290      15.01117030       0.00000000 NULL
P        2.18612604       4.79487223      15.01117030       0.00000000 NULL
P        5.13879567       6.79167547       8.55371161       0.00000000 NULL
P        0.76654359       0.93268967       8.55371161       0.00000000 NULL
P        3.41454161       2.66056774      17.83029077       0.00000000 NULL
P        2.49079765       5.06379739      17.83029077       0.00000000 NULL
P        5.44346729       6.52275031       5.73459114       0.00000000 NULL
P        0.46187198       1.20161483       5.73459114       0.00000000 NULL
32
Lattice="5.818890107003312 0.0 0.0 0.0 7.562674782796071 0.0 0.0 0.0 23.176732548058162" Properties=species:S:1:pos:R:3:initial_magmoms:R:1:castep_labels:S:1 n_minim_iter=11 pbc="T T T"
P        2.06339523       5.39306826       4.16646093       0.00000000 NULL
P        3.75549488       2.16960652       4.16646093       0.00000000 NULL
P        0.84604982       1.61173087      19.01027162       0.00000000 NULL
P        4.97284028       5.95094391      19.01027162       0.00000000 NULL
P        1.13447647       6.79312728      18.81597301       0.00000000 NULL
P        4.68441364       0.76954750      18.81597301       0.00000000 NULL
P        1.77496859       3.01178989       4.36075954       0.00000000 NULL
P        4.04392152       4.55088490       4.36075954       0.00000000 NULL
P        0.72130874       2.20133797      10.95132733       0.00000000 NULL
P        5.09758137       5.36133682      10.95132733       0.00000000 NULL
P        2.18813631       5.98267536      12.22540522       0.00000000 NULL
P        3.63075379       1.57999943      12.22540522       0.00000000 NULL
P        5.15852304       2.97040297      12.62772733       0.00000000 NULL
P        0.66036707       4.59227181      12.62772733       0.00000000 NULL
P        3.56981212       6.75174036      10.54900522       0.00000000 NULL
P        2.24907799       0.81093442      10.54900522       0.00000000 NULL
P        0.95201847       6.72488252      10.33095453       0.00000000 NULL
P        4.86687164       0.83779226      10.33095453       0.00000000 NULL
P        1.95742658       2.94354513      12.84577801       0.00000000 NULL
P        3.86146352       4.61912965      12.84577801       0.00000000 NULL
P        3.80814916       0.56782900       7.48766509       0.00000000 NULL
P        2.01074095       6.99484578       7.48766509       0.00000000 NULL
P        4.92018600       4.34916639      15.68906746       0.00000000 NULL
P        0.89870411       3.21350839      15.68906746       0.00000000 NULL
P        3.66466984       2.86996230      14.77468601       0.00000000 NULL
P        2.15422027       4.69271248      14.77468601       0.00000000 NULL
P        5.06366532       6.65129969       8.40204654       0.00000000 NULL
P        0.75522479       0.91137509       8.40204654       0.00000000 NULL
P        3.36312258       2.60806335      17.53198818       0.00000000 NULL
P        2.45576752       4.95461143      17.53198818       0.00000000 NULL
P        5.36521258       6.38940075       5.64474436       0.00000000 NULL
P        0.45367753       1.17327404       5.64474436       0.00000000 NULL
32
Lattice="5.921608457188941 0.0 0.0 0.0 7.6634116459289165 0.0 0.0 0.0 23.31872903450245" Properties=species:S:1:pos:R:3:initial_magmoms:R:1:castep_labels:S:1 n_minim_iter=12 pbc="T T T"
P        2.10042398       5.46407554       4.19236099       0.00000000 NULL
P        3.82118448       2.19933611       4.19236099       0.00000000 NULL
P        0.86038025       1.63236971      19.12636804       0.00000000 NULL
P        5.06122821       6.03104193      19.12636804       0.00000000 NULL
P        1.15392654       6.88419079      18.93146094       0.00000000 NULL
P        4.76768191       0.77922086      18.93146094       0.00000000 NULL
P        1.80687769       3.05248497       4.38726809       0.00000000 NULL
P        4.11473077       4.61092668       4.38726809       0.00000000 NULL
P        0.73316230       2.23165344      11.01951442       0.00000000 NULL
P        5.18844616       5.43175821      11.01951442       0.00000000 NULL
P        2.22764193       6.06335926      12.29921462       0.00000000 NULL
P        3.69396653       1.60005239      12.29921462       0.00000000 NULL
P        5.25045214       3.00807826      12.70584725       0.00000000 NULL