10
Lattice="6.46901228616822 0.8053395388418947 0.16086539836329583 1.1996854924321882 5.263905240382971 0.47830737825871295 0.6394823727275081 0.5579685339571829 5.884446444788543" Properties=species:S:1:pos:R:3:initial_magmoms:R:1:castep_labels:S:1:forces:R:3 n_minim_iter=1 energy=-53.96681242724807 stress="-0.0011946633329935191 0.0003643667462933015 -0.0014282058313891562 0.0003643667462933015 0.006541771228088981 -0.0015032870809404471 -0.0014282058313891562 -0.0015032870809404471 -0.0033360001950078597" free_energy=-53.96681242724807 pbc="T T T"
P        5.45673542       2.24789990       5.85733697       0.00000000 NULL       0.00068335       0.15984536       0.20017873
P        3.31093513       2.36375108       5.07004821       0.00000000 NULL      -0.22209529      -0.33997082       0.10833292
P        4.05590867       2.46310134       2.91945582       0.00000000 NULL       0.20444516      -0.00100571       0.10527363
P        3.22981688       4.89199379      -0.00613481       0.00000000 NULL      -0.06351543       0.36638632      -0.10105458
P        6.31880892       4.69998554       1.59024091       0.00000000 NULL       0.10936058       0.00990807       0.13642637
P        6.11682897       2.05689195       3.72823979       0.00000000 NULL       0.08883644      -0.24781430      -0.42811917
P        3.02671619       5.71721078       2.05210887       0.00000000 NULL      -0.21689050      -0.11762100       0.10416615
P        0.28036083      -0.68457283       2.71058491       0.00000000 NULL       0.17914083       0.13141109      -0.05353515
P        4.68393506       4.65398540       3.04462504       0.00000000 NULL      -0.07249056       0.01370356      -0.04918628
P        5.86599759       4.50204962       5.66566174       0.00000000 NULL      -0.00747458       0.02515744      -0.02248262
10
Lattice="6.479448552975998 0.7953674357364399 0.17582199204161908 1.199981364455394 5.217735632106419 0.4935380773996498 0.6516958130359249 0.5647064026510639 5.913575119919584" Properties=species:S:1:pos:R:3:initial_magmoms:R:1:castep_labels:S:1:forces:R:3 n_minim_iter=2 energy=-53.97855674817972 stress="-9.150506163371827e-05 -0.0006710287580436322 0.0004924823018055017 -0.0006710287580436322 -0.0015213605582789823 -4.40188911921995e-05 0.0004924823018055017 -4.40188911921995e-05 0.0006490330016178296" free_energy=-53.97855674817972 pbc="T T T"
P        5.47590617       2.23838973       5.90057552       0.00000000 NULL      -0.03715983       0.09081753       0.10091783
P        3.32345646       2.34917545       5.10510932       0.00000000 NULL      -0.14514465      -0.19538376       0.05857231
P        4.06841781       2.44526603       2.94638203       0.00000000 NULL       0.22672699      -0.10197409       0.17683943
P        3.23220315       4.84968696       0.00937482       0.00000000 NULL      -0.05827297       0.25273976       0.00205578
P        6.33064244       4.65862485       1.62030329       0.00000000 NULL       0.06375862      -0.05337977       0.07213456
P        6.13363982       2.04155363       3.75824381       0.00000000 NULL       0.01502170      -0.14816513      -0.32191578
P        3.03129310       5.66852142       2.07970369       0.00000000 NULL      -0.15924170      -0.06935151       0.03394815
P        0.28768920      -0.67221824       2.72168235       0.00000000 NULL       0.12529441      -0.02714829      -0.10504822
P        4.69467624       4.61682158       3.07670801       0.00000000 NULL      -0.08225385       0.10400939      -0.07391276
P        5.88429364       4.47106821       5.71183891       0.00000000 NULL       0.05127129       0.14783586       0.05640870
10
Lattice="6.498415656869432 0.8279579773926875 0.1661549492857245 1.2265235374611143 5.2379484283636035 0.5041336264415011 0.6452863706019863 0.5835304931922233 5.911905447188097" Properties=species:S:1:pos:R:3:initial_magmoms:R:1:castep_labels:S:1:forces:R:3 n_minim_iter=3 energy=-53.9916333023681 stress="0.002098896871002665 0.0018874851511583033 -0.0016032554280140268 0.0018874851511583033 0.00045589865396348107 0.0010238038727883602 -0.0016032554280140268 0.0010238038727883602 0.0015074516722908082" free_energy=-53.9916333023681 pbc="T T T"
P        5.48749781       2.28869002       5.90000420       0.00000000 NULL      -0.01277693       0.03711964      -0.00703986
P        3.32578817       2.37285893       5.10642667       0.00000000 NULL       0.00388441       0.02277371       0.02842845
P        4.09503291       2.47366924       2.95213413       0.00000000 NULL       0.08087223      -0.02397640       0.04736780
P        3.25998936       4.88985339       0.01500248       0.00000000 NULL      -0.00213196       0.13267717       0.00699941
P        6.36820625       4.70197414       1.62389821       0.00000000 NULL      -0.03200449      -0.02163121       0.06093496
P        6.15240071       2.07668943       3.73491168       0.00000000 NULL       0.03287303      -0.08783336      -0.01869634
P        3.05347289       5.69864259       2.08973243       0.00000000 NULL      -0.17942791      -0.01278531      -0.07616101
P        0.28668261      -0.66614008       2.71399423       0.00000000 NULL       0.07500744      -0.10216505      -0.06383692
P        4.71828839       4.66216981       3.07541150       0.00000000 NULL       0.02687689      -0.02417478      -0.00256067
P        5.91121995       4.52983302       5.71270520       0.00000000 NULL       0.00682728       0.07999560       0.02456418
10
Lattice="6.483013812105922 0.8192331540008484 0.17568310406111393 1.2174488085951776 5.23721356353384 0.5007128887438363 0.652678632035511 0.5779637770742095 5.899553492558853" Properties=species:S:1:pos:R:3:initial_magmoms:R:1:castep_labels:S:1:forces:R:3 n_minim_iter=4 energy=-53.99490337803427 stress="-0.000765226807186227 0.0005840622788553135 -0.00021776839710369158 0.0005840622788553135 -0.000885603680918034 0.0007320186901726926 -0.00021776839710369158 0.0007320186901726926 -0.0019188002063460997" free_energy=-53.99490337803427 pbc="T T T"
P        5.48127134       2.27836902       5.89539327       0.00000000 NULL       0.00043072       0.05499909      -0.00744467
P        3.32171245       2.36256831       5.09963332       0.00000000 NULL       0.01150782       0.08283865       0.04560868
P        4.09035684       2.46523509       2.95250365       0.00000000 NULL       0.03214276      -0.02959810      -0.01833412
P        3.24538267       4.89051681       0.01617856       0.00000000 NULL      -0.03235110       0.05052929      -0.02875020
P        6.35074581       4.69259610       1.62816069       0.00000000 NULL       0.02970291       0.00014182       0.00736143
P        6.14236924       2.06343982       3.73113989       0.00000000 NULL       0.06166396      -0.04746177       0.03669409
P        3.03916428       5.69331663       2.08539090       0.00000000 NULL      -0.09663160       0.03115097      -0.06356833
P        0.29335961      -0.66966720       2.70754285       0.00000000 NULL       0.01361989      -0.16628975      -0.01160341
P        4.70565561       4.65528758       3.07172159       0.00000000 NULL      -0.02196391      -0.02218707       0.05493264
P        5.90165323       4.52028601       5.70679848       0.00000000 NULL       0.00187854       0.04587689      -0.01489612
10
Lattice="6.4842231221793885 0.8110022752833196 0.18122815208337575 1.2107431141708422 5.243520794013386 0.4949703303181968 0.6579267489885031 0.5690508640028591 5.912223013412397" Properties=species:S:1:pos:R:3:initial_magmoms:R:1:castep_labels:S:1:forces:R:3 n_minim_iter=5 energy=-53.99638592337828 stress="0.0009908549157469561 -0.0005305586538090494 0.00024638262815922745 -0.0005305586538090494 0.0007101165729390593 0.00031056138621219303 0.00024638262815922745 0.00031056138621219303 -7.468961701307411e-05" free_energy=-53.99638592337828 pbc="T T T"
P        5.48550014       2.26645952       5.91075181       0.00000000 NULL      -0.00376580       0.07914083      -0.04959591
P        3.32377443       2.35367013       5.11127121       0.00000000 NULL       0.04269140       0.07516192       0.03902172
P        4.09280898       2.45823984       2.96010676       0.00000000 NULL       0.03176699      -0.02389135       0.01423203
P        3.23880386       4.89625048       0.01163689       0.00000000 NULL      -0.01218184       0.02988316      -0.01573836
P        6.34825233       4.68858563       1.63147356       0.00000000 NULL       0.00566841       0.00608171       0.00692280
P        6.14592735       2.05090985       3.74067951       0.00000000 NULL       0.04350858      -0.04485247       0.06201330
P        3.03176738       5.69518267       2.08367714       0.00000000 NULL      -0.01156584      -0.01015139      -0.03962363
P        0.29815085      -0.67704759       2.71397242       0.00000000 NULL      -0.01249885      -0.14239438      -0.01958140
P        4.70300850       4.65191683       3.07603635       0.00000000 NULL      -0.06189607      -0.00789773       0.00549459
P        5.90304772       4.51204326       5.71838585       0.00000000 NULL      -0.02172698       0.03891969      -0.00314512
10
Lattice="6.468079745970957 0.815302974078997 0.17815776095194577 1.211660071070178 5.240549472512447 0.48417884365557023 0.6551936338588134 0.5563010055154828 5.924389821382741" Properties=species:S:1:pos:R:3:initial_magmoms:R:1:castep_labels:S:1:forces:R:3 n_minim_iter=6 energy=-53.99766751270577 stress="-0.0008080345021253648 6.217220145542136e-05 -0.0004951447103532406 6.217220145542136e-05 0.00011278955928185853 -0.000586634211776434 -0.0004951447103532406 -0.000586634211776434 0.0007969439475621321" free_energy=-53.99766751270577 pbc="T T T"
P        5.47142574       2.25882473       5.91749753       0.00000000 NULL       0.02380145       0.08851823      -0.05879347
P        3.31591008       2.34478454       5.11828884       0.00000000 NULL       0.02007711       0.07866150       0.01273829
P        4.08536428       2.45260638       2.96136157       0.00000000 NULL      -0.02048309      -0.02131415       0.02893962
P        3.23362145       4.89837952      -0.00053081       0.00000000 NULL      -0.05271647       0.03837839      -0.01600320
P        6.33575177       4.68735640       1.62381507       0.00000000 NULL      -0.00368803      -0.00121653       0.03155595
P        6.13208274       2.04453818       3.74292241       0.00000000 NULL       0.06781069      -0.03082863       0.11157013
P        3.02599478       5.68962596       2.07397296       0.00000000 NULL      -0.03327958      -0.01391529      -0.02540764
P        0.29674030      -0.68618995       2.72065237       0.00000000 NULL       0.02442376      -0.14140264      -0.06055985
P        4.69226422       4.64646152       3.07174825       0.00000000 NULL      -0.04549252       0.00513634      -0.02293177
P        5.88982574       4.50344553       5.72010513       0.00000000 NULL       0.01954669      -0.00201722      -0.00110806
10
Lattice="6.472158189334527 0.8325253602984694 0.19446038237081031 1.2283285372442991 5.235743705671236 0.480382403219838 0.672683920633184 0.5491592522343807 5.929090652934449" Properties=species:S:1:pos:R:3:initial_magmoms:R:1:castep_labels:S:1:forces:R:3 n_minim_iter=7 energy=-54.00160920509601 stress="0.0007094775246296912 0.0014140841211332418 0.0013680290344267262 0.0014140841211332418 1.4851236708678727e-05 -0.001055437000024434 0.0013680290344267262 -0.001055437000024434 -0.00032763896676213665" free_energy=-54.00160920509601 pbc="T T T"
P        5.49518476       2.27400049       5.92862384       0.00000000 NULL       0.00283240       0.02053898       0.01732654
P        3.33839485       2.35057981       5.13183859       0.00000000 NULL       0.00719168       0.09437105      -0.01028921
P        4.10597576       2.45242405       2.97500979       0.00000000 NULL       0.01692384      -0.00571000       0.04844731
P        3.24373716       4.90896153      -0.00108925       0.00000000 NULL       0.00181660       0.01322440      -0.03238930
P        6.35655832       4.69608708       1.63851369       0.00000000 NULL      -0.04079876      -0.01600546       0.00302145
P        6.15639976       2.04688914       3.76364321       0.00000000 NULL       0.01051435      -0.04131449       0.02987828
P        3.04129839       5.68568710       2.07086585       0.00000000 NULL      -0.04663530      -0.02585861       0.04584453
P        0.30466831      -0.70643728       2.71834957       0.00000000 NULL       0.03866899      -0.05482766      -0.04660221
P        4.70778316       4.64953666       3.07919138       0.00000000 NULL      -0.03209907       0.00657826      -0.04054807
P        5.91972630       4.51109767       5.73339715       0.00000000 NULL       0.04158527       0.00900352      -0.01468932
10
Lattice="6.4610986064287825 0.824886865707038 0.1860804442979669 1.2199536669270699 5.23035364237147 0.48680672440697964 0.6622308837341851 0.5565621587388029 5.935389248408027" Properties=species:S:1:pos:R:3:initial_magmoms:R:1:castep_labels:S:1:forces:R:3 n_minim_iter=8 energy=-54.004087044570646 stress="-3.184395982513859e-05 9.582742493355987e-05 -0.0001362040013323857 9.582742493355987e-05 -0.00027123146794921847 7.706389275987565e-05 -0.0001362040013323857 7.706389275987565e-05 -4.839046434895193e-05" free_energy=-54.004087044570646 pbc="T T T"
P        5.47579738       2.28176445       5.92769210       0.00000000 NULL       0.04244746      -0.03665007       0.07328875
P        3.32413416       2.35771636       5.13882334       0.00000000 NULL      -0.01778865       0.07870316      -0.06206494
P        4.09590145       2.44716366       2.97899848       0.00000000 NULL      -0.02578273      -0.00027857       0.03120454
P        3.23038835       4.90643680      -0.00062314       0.00000000 NULL       0.02253853      -0.01355222      -0.01103052
P        6.33988168       4.68670991       1.63973761       0.00000000 NULL      -0.07383416       0.00409537       0.04547171
P        6.14396445       2.03864029       3.76495412       0.00000000 NULL       0.03934989      -0.08763130       0.00809361
P        3.02217760       5.67893113       2.07455968       0.00000000 NULL      -0.03604257      -0.02302514      -0.00062888
P        0.30304153      -0.71464900       2.71554147       0.00000000 NULL      -0.00376799       0.03913300      -0.00119238
P        4.68598539       4.64506389       3.08148272       0.00000000 NULL       0.04779122      -0.00873710      -0.05249832
P        5.89800767       4.51225438       5.73736854       0.00000000 NULL       0.00508901       0.04794287      -0.03064357
10
Lattice="6.45226744566965 0.8312713979185276 0.18487108332030616 1.223120813774013 5.231757336756368 0.49187772412174974 0.6598041664172734 0.5622226487540698 5.947439224821635" Properties=species:S:1:pos:R:3:initial_magmoms:R:1:castep_labels:S:1:forces:R:3 n_minim_iter=9 energy=-54.00612232801531 stress="-0.0007039306227085223 0.0004094440508682595 0.00036834537127965547 0.0004094440508682595 0.00027072203246115615 0.0005031950420849585 0.00036834537127965547 0.0005031950420849585 0.00036175674796984873" free_energy=-54.00612232801531 pbc="T T T"
P        5.47178336       2.29540512       5.94346056       0.00000000 NULL       0.02778879      -0.02133882       0.05073104
P        3.31943612       2.37608873       5.14715756       0.00000000 NULL      -0.02767535      -0.02457141      -0.03207577
P        4.09166012       2.45131410       2.99089680       0.00000000 NULL       0.00654784       0.00391755       0.01881342
P        3.22989357       4.91245245      -0.00010849       0.00000000 NULL       0.00292694       0.07367789       0.01078829
P        6.32908447       4.69420040       1.65024310       0.00000000 NULL      -0.01362434       0.00400227      -0.03898900
P        6.14279567       2.03639807       3.77585756       0.00000000 NULL      -0.01694742      -0.02324429       0.03855191
P        3.01647159       5.68020049       2.08076829       0.00000000 NULL      -0.01521197      -0.01208325      -0.07101929
P        0.30190993      -0.71893107       2.71683940       0.00000000 NULL      -0.00787906       0.01638167      -0.00531377
P        4.68189880       4.65176320       3.08468955       0.00000000 NULL       0.00085107      -0.02620272       0.02834315
P        5.89248113       4.52918398       5.74784770       0.00000000 NULL       0.04322350       0.00946111       0.00017002
10
Lattice="6.457984381980395 0.8297950446273954 0.1782613169221415 1.2232713792916885 5.226534060289137 0.48664442074884684 0.6549366918934921 0.5572839340207602 5.943724315769593" Properties=species:S:1:pos:R:3:initial_magmoms:R:1:castep_labels:S:1:forces:R:3 n_minim_iter=10 energy=-54.006555023660965 stress="8.733197869359177e-05 0.00018585820050285467 -0.00014558568570283964 0.00018585820050285467 -0.0002978000776195911 -0.00011451693094098459 -0.00014558568570283964 -0.00011451693094098459 -0.00021276336355203517" free_energy=-54.006555023660965 pbc="T T T"
P        5.47230636       2.28904227       5.93533470       0.00000000 NULL       0.01814945      -0.02135326       0.05044614
P        3.31727170       2.37194573       5.13911533       0.00000000 NULL      -0.01123757      -0.02999632      -0.01833434
P        4.09259720       2.44607854       2.98529827       0.00000000 NULL       0.01842539      -0.01112218       0.00242172
P        3.23230430       4.90903943      -0.00715965       0.00000000 NULL       0.01704873       0.05443629      -0.01881049
P        6.33166506       4.68824440       1.64094682       0.00000000 NULL      -0.01860610       0.00410478      -0.02467707
P        6.14621450       2.02858601       3.76832464       0.00000000 NULL      -0.04152159       0.01680939       0.04667902
P        3.01547513       5.67240624       2.07172691       0.00000000 NULL      -0.01351309      -0.00650275      -0.04147851
P        0.29983227      -0.72165870       2.71510930       0.00000000 NULL       0.00981519       0.00311975      -0.01225063
P        4.68272545       4.64453363       3.07469202       0.00000000 NULL       0.00389467      -0.01396530       0.03204577
P        5.89277145       4.52177931       5.73589463       0.00000000 NULL       0.01754492       0.00446960      -0.01604163
10
Lattice="6.45283341614488 0.8363484424304318 0.1763072536048543 1.227163977543704 5.228202011299117 0.49197652040965845 0.6522219227181055 0.5638870706762944 5.950613088009175" Properties=species:S:1:pos:R:3:initial_magmoms:R:1:castep_labels:S:1:forces:R:3 n_minim_iter=11 energy=-54.007663175616 stress="6.489052543430078e-06 0.00027107253369802997 -2.7201179459738346e-05 0.00027107253369802997 -0.00022866149713110658 5.86774894293209e-05 -2.7201179459738346e-05 5.86774894293209e-05 -3.3860543022595745e-05" free_energy=-54.007663175616 pbc="T T T"
P        5.47160641       2.30038461       5.94944071       0.00000000 NULL      -0.02473115      -0.00159982       0.03450821
P        3.31290201       2.38257865       5.14171164       0.00000000 NULL       0.01069815       0.00546464       0.01400716
P        4.09191698       2.45089115       2.99277860       0.00000000 NULL       0.00721096      -0.00433290      -0.01597888
P        3.23586274       4.92068497      -0.00667189       0.00000000 NULL      -0.00658120      -0.00462199      -0.02642474
P        6.32484565       4.69701214       1.64363322       0.00000000 NULL       0.01094132       0.00267585      -0.01751538
P        6.14020424       2.03377804       3.78086233       0.00000000 NULL       0.01238780      -0.02608157       0.01189993
P        3.01429247       5.67439870       2.07123972       0.00000000 NULL      -0.02676671       0.00366960       0.01560736
P        0.29801198      -0.72209758       2.71421638       0.00000000 NULL       0.01111027       0.03999134      -0.02207216
P        4.68070889       4.65009733       3.08179242       0.00000000 NULL      -0.01574410       0.00454776      -0.00051333
P        5.89198793       4.53720106       5.74103520       0.00000000 NULL       0.02147467      -0.01971292       0.00648185
10
Lattice="6.448945212632451 0.8400380896332926 0.17618357507582344 1.2290689234774204 5.231273212992354 0.49136543027988094 0.6520485095209111 0.5637630441102706 5.9510245211313055" Properties=species:S:1:pos:R:3:initial_magmoms:R:1:castep_labels:S:1:forces:R:3 n_minim_iter=12 energy=-54.008127850582824 stress="-8.4380001463838e-06 0.00021219917653795393 -6.6026831091599435e-06 0.00021219917653795393 -8.900697043802159e-05 -4.0983698419698915e-06 -6.6026831091599435e-06 -4.0983698419698915e-06 -3.8026455763789494e-06" free_energy=-54.008127850582824 pbc="T T T"
P        5.46853156       2.30421214       5.95570472       0.00000000 NULL      -0.02108093      -0.00581836       0.02907120
P        3.31296926       2.38624657       5.14197321       0.00000000 NULL      -0.00204618      -0.00524932       0.00883625
P        4.09163700       2.45244541       2.99223469       0.00000000 NULL       0.02490903       0.00904695       0.00925794
P        3.23605978       4.92730061      -0.01151057       0.00000000 NULL       0.00644737      -0.00429368      -0.00311826
P        6.32248434       4.70332378       1.64065768       0.00000000 NULL      -0.01031474       0.00031975       0.01331505
P        6.13836689       2.03300475       3.78693349       0.00000000 NULL      -0.00260421       0.00222479      -0.01008282
P        3.01266192       5.67728498       2.06935375       0.00000000 NULL      -0.00780185       0.02620577      -0.01831135
P        0.29804174      -0.72025107       2.71108328       0.00000000 NULL      -0.00560391      -0.00687736      -0.00283859
P        4.67700101       4.65398288       3.08176042       0.00000000 NULL       0.01841204      -0.00306916      -0.02687774
P        5.89315204       4.54086838       5.74025469       0.00000000 NULL      -0.00031662      -0.01248938       0.00074831
10
Lattice="6.449359958265182 0.8416950156612981 0.1754929513274878 1.2303326050989725 5.2320881922059295 0.4917261577383047 0.6515248997812091 0.5646302269634574 5.949872364395058" Properties=species:S:1:pos:R:3:initial_magmoms:R:1:castep_labels:S:1:forces:R:3 n_minim_iter=13 energy=-54.00841548411817 stress="-6.648870528389113e-06 0.00016551198840133004 8.181439668435174e-06 0.00016551198840133004 -5.625266310496863e-06 -1.380380854510434e-05 8.181439668435174e-06 -1.380380854510434e-05 -2.8668774459092733e-05" free_energy=-54.00841548411817 pbc="T T T"
P        5.46575051       2.30673014       5.96065174       0.00000000 NULL      -0.00659807      -0.01673663       0.00672855
P        3.31404785       2.38823922       5.14236164       0.00000000 NULL      -0.01078585      -0.00475788      -0.00447639
P        4.09544621       2.45427556       2.99201402       0.00000000 NULL       0.00620312       0.00559208       0.00953060
P        3.23790402       4.92906076      -0.01429511       0.00000000 NULL       0.01122290      -0.00757250       0.00282639
P        6.32241097       4.70641692       1.64003568       0.00000000 NULL       0.00827789      -0.00200702      -0.00374450
P        6.13924737       2.03310059       3.78926840       0.00000000 NULL       0.00472335      -0.00274871      -0.00178247
P        3.01285807       5.68124175       2.06586515       0.00000000 NULL      -0.01825925      -0.00036719      -0.00297677
P        0.29645183      -0.72006265       2.70827473       0.00000000 NULL       0.02019354       0.00577595      -0.00238306
P        4.67764721       4.65528798       3.07813941       0.00000000 NULL      -0.00357690       0.01355985      -0.00096610
P        5.89488941       4.54100019       5.73859816       0.00000000 NULL      -0.01140073       0.00926206      -0.00275625
10
Lattice="6.450960836287675 0.8420255724393966 0.17504475986869558 1.230983594085423 5.231067758068269 0.4920788539708301 0.6512621762542256 0.565129855185768 5.949051841655492" Properties=species:S:1:pos:R:3:initial_magmoms:R:1:castep_labels:S:1:forces:R:3 n_minim_iter=14 energy=-54.008525964280025 stress="1.1035441547284708e-06 0.0001253079544998354 4.858742635329091e-06 0.0001253079544998354 8.61057645258778e-06 -1.4011271083846793e-05 4.858742635329091e-06 -1.4011271083846793e-05 -4.269749645220159e-05" free_energy=-54.008525964280025 pbc="T T T"
P        5.46498769       2.30573684       5.96203643       0.00000000 NULL       0.00170350      -0.00679271       0.00329754
P        3.31423507       2.38834161       5.14175679       0.00000000 NULL      -0.00860077      -0.00586587      -0.00320507
P        4.09802504       2.45503596       2.99258650       0.00000000 NULL       0.00648373       0.00285617       0.00293573
P        3.24052000       4.92699616      -0.01475431       0.00000000 NULL      -0.01577989       0.00100407      -0.00260889
P        6.32486150       4.70636906       1.63904606       0.00000000 NULL      -0.00850117      -0.00178678      -0.00171216
P        6.14143892       2.03294729       3.79073944       0.00000000 NULL       0.00292227      -0.00556698      -0.00605776
P        3.01235666       5.68136663       2.06387899       0.00000000 NULL      -0.00745141       0.00019853       0.00247594
P        0.29762411      -0.71970702       2.70692341       0.00000000 NULL       0.00640587       0.00304255       0.00434857
P        4.67791411       4.65630288       3.07678681       0.00000000 NULL       0.00967856       0.01672945      -0.00088978
P        5.89481111       4.54106167       5.73724706       0.00000000 NULL       0.01313932      -0.00381843       0.00141588
10
Lattice="6.449462120303968 0.8426458638952372 0.17479957689910264 1.2314561261276167 5.228974450158373 0.4919477060589073 0.6509585429831346 0.5647802505586144 5.950237257534299" Properties=species:S:1:pos:R:3:initial_magmoms:R:1:castep_labels:S:1:forces:R:3 n_minim_iter=15 energy=-54.008624453492686 stress="-1.6481430658175052e-05 6.458937997697133e-05 3.9699372095439795e-06 6.458937997697133e-05 -3.7610375106340867e-06 -3.001758735250537e-05 3.9699372095439795e-06 -3.001758735250537e-05 -9.156140569122036e-07" free_energy=-54.008624453492686 pbc="T T T"
P        5.46251227       2.30305538       5.96469885       0.00000000 NULL       0.00745223       0.00237498       0.00642529
P        3.31226745       2.38682070       5.14220022       0.00000000 NULL      -0.00294327      -0.00233628      -0.00503272
P        4.09960500       2.45560726       2.99411791       0.00000000 NULL       0.00293590       0.01001340       0.00132602
P        3.23857307       4.92359641      -0.01611785       0.00000000 NULL      -0.00053062       0.00198641      -0.00159663
P        6.32305708       4.70545808       1.63750702       0.00000000 NULL       0.00164248      -0.00100883       0.00163489
P        6.14143728       2.03209075       3.79385986       0.00000000 NULL       0.00374873      -0.00325048      -0.00995538
P        3.01095348       5.68038706       2.06194450       0.00000000 NULL      -0.01169943      -0.00056082       0.00227915
P        0.29904084      -0.72006467       2.70789312       0.00000000 NULL       0.00080403       0.00340962      -0.00268019
P        4.67787368       4.65962051       3.07637567       0.00000000 NULL       0.00210329      -0.00253229       0.00344910
P        5.89457005       4.53898280       5.73779291       0.00000000 NULL      -0.00351333      -0.00809569       0.00415047
10
Lattice="6.448171478291913 0.8435425191667124 0.1741968601427931 1.2318362899037005 5.2294452878548725 0.4922261479230341 0.6502976609015878 0.5653856890320278 5.949714950690208" Properties=species:S:1:pos:R:3:initial_magmoms:R:1:castep_labels:S:1:forces:R:3 n_minim_iter=16 energy=-54.00865626474861 stress="-2.6595432911350704e-05 5.185973519158122e-05 -2.845062353737391e-06 5.185973519158122e-05 1.4470512073117945e-05 -2.158659236950308e-05 -2.845062353737391e-06 -2.158659236950308e-05 -2.0406250804667288e-05" free_energy=-54.00865626474861 pbc="T T T"
P        5.46170573       2.30411165       5.96464895       0.00000000 NULL       0.00045357      -0.00618023       0.00264229
P        3.31098525       2.38754943       5.14090280       0.00000000 NULL       0.00092885      -0.00545243       0.00172522
P        4.09961081       2.45806027       2.99389333       0.00000000 NULL      -0.00080419       0.00233448      -0.00369312
P        3.23792949       4.92367988      -0.01646858       0.00000000 NULL      -0.00062999       0.00709914      -0.00173391
P        6.32215030       4.70670793       1.63666434       0.00000000 NULL       0.00073095      -0.00112840       0.00782374
P        6.14081440       2.03305233       3.79333838       0.00000000 NULL       0.00402007      -0.00266180      -0.00423343
P        3.00951801       5.68157977       2.06128391       0.00000000 NULL      -0.00282278      -0.00287238       0.00104852
P        0.29880603      -0.72013460       2.70755520       0.00000000 NULL      -0.00096479       0.00412181      -0.00258450
P        4.67744676       4.66172744       3.07660214       0.00000000 NULL       0.00002224       0.00271973      -0.00364852
P        5.89286446       4.53917903       5.73751719       0.00000000 NULL      -0.00093391       0.00202007       0.00265372
