48
Lattice="10.060679999999996 1.3337977527435895e-15 -9.308617754485039e-17 -3.4480856438709133 9.4513484463822 9.308617754485208e-17 -3.3062971780645416 -4.7256742231911 10.811277549427901" Properties=species:S:1:pos:R:3:initial_magmoms:R:1:castep_labels:S:1 n_minim_iter=1 pbc="T T T"
P        2.49712475      -2.97042839       9.43466028       0.00000000 NULL
P        6.95265578       3.39784010       1.37661510       0.00000000 NULL
P        5.80342193       1.75524584       1.37661510       0.00000000 NULL
P        3.64635861      -1.32783412       9.43466028       0.00000000 NULL
P       -1.25658758       6.55659984       2.12070345       0.00000000 NULL
P       -3.28386750       3.65901867       8.69057193       0.00000000 NULL
P       -4.56288476       1.83092561       8.69057193       0.00000000 NULL
P        0.02242968       8.38469290       2.12070345       0.00000000 NULL
P        2.35850680       4.16216782       1.00460769       0.00000000 NULL
P        0.20454148       1.08351582       9.80666769       0.00000000 NULL
P       -0.94779037      -0.56350641       9.80666769       0.00000000 NULL
P        3.51083866       5.80919004       1.00460769       0.00000000 NULL
P        1.28922674       0.94227297       8.07708600       0.00000000 NULL
P        2.86294816       3.19158522       2.73418938       0.00000000 NULL
P        4.59552392       5.66794720       2.73418938       0.00000000 NULL
P       -0.44334902      -1.53408900       8.07708600       0.00000000 NULL
P        6.78806861       1.06474780       4.78852781       0.00000000 NULL
P        4.63250304      -2.01619141       6.02274757       0.00000000 NULL
P        0.03368579       5.79042202       6.02274757       0.00000000 NULL
P       -2.12187978       2.70948281       4.78852781       0.00000000 NULL
P        3.25062350       7.88809966       1.03043692       0.00000000 NULL
P       -2.98997275      -1.03155372       9.78083846       0.00000000 NULL
P       -0.05567368       3.16242544       9.78083846       0.00000000 NULL
P        0.31632443       3.69412050       1.03043692       0.00000000 NULL
P        4.13894155      -0.72182122       7.52962020       0.00000000 NULL
P        5.40293500       1.08479837       3.28165518       0.00000000 NULL
P       -2.61544127       4.00385300       3.28165518       0.00000000 NULL
P       -1.35144783       5.81047259       7.52962020       0.00000000 NULL
P       -0.37650631      -2.68624714       9.78972210       0.00000000 NULL
P        5.70080978       6.00003073       1.02155328       0.00000000 NULL
P        2.92979087       2.03942709       1.02155328       0.00000000 NULL
P        2.39451260       1.27435651       9.78972210       0.00000000 NULL
P       -2.66333230       0.61851939       8.67691838       0.00000000 NULL
P        1.81243724       7.01571469       2.13435700       0.00000000 NULL
P        0.64296488       5.34419362       2.13435700       0.00000000 NULL
P       -1.49385994       2.29004046       8.67691838       0.00000000 NULL
P       -1.58536990      -0.12662444       7.15108494       0.00000000 NULL
P        2.88189981       6.25842209       3.66019044       0.00000000 NULL
P        1.72092727       4.59904978       3.66019044       0.00000000 NULL
P       -0.42439737       1.53274787       7.15108494       0.00000000 NULL
P       -0.24487912      -2.53608978       6.34162080       0.00000000 NULL
P        5.60485924       5.82491237       4.46965458       0.00000000 NULL
P        3.06141806       2.18958444       4.46965458       0.00000000 NULL
P        2.29856206       1.09923814       6.34162080       0.00000000 NULL
P        0.91025280       3.26440124       8.03157268       0.00000000 NULL
P        0.55157577       2.75174593       2.77970270       0.00000000 NULL
P        4.21654998       7.99007546       2.77970270       0.00000000 NULL
P       -2.75472141      -1.97392829       8.03157268       0.00000000 NULL
48
Lattice="10.157413140075727 0.02587099509062956 -4.8998065716128846e-17 -3.456934783524049 9.551089618940424 1.6442123598748325e-16 -3.350239178275839 -4.788480307015526 11.003110339808817" Properties=species:S:1:pos:R:3:initial_magmoms:R:1:castep_labels:S:1 n_minim_iter=2 pbc="T T T"
P        2.51344318      -2.99830844       9.60221593       0.00000000 NULL
P        7.02838205       3.45487139       1.40089220       0.00000000 NULL
P        5.86368236       1.79017186       1.40089220       0.00000000 NULL
P        3.67814288      -1.33360892       9.60221593       0.00000000 NULL
P       -1.25181110       6.62871293       2.15836286       0.00000000 NULL
P       -3.30603398       3.69262231       8.84474527       0.00000000 NULL
P       -4.60205028       1.84023262       8.84474527       0.00000000 NULL
P        0.04420520       8.48110262       2.15836286       0.00000000 NULL
P        2.39198217       4.21601463       1.02239346       0.00000000 NULL
P        0.20937090       1.09641912       9.98071468       0.00000000 NULL
P       -0.95825701      -0.57246567       9.98071468       0.00000000 NULL
P        3.55961008       5.88489943       1.02239346       0.00000000 NULL
P        1.30414340       0.95630832       8.22022274       0.00000000 NULL
P        2.89881723       3.23556775       2.78288539       0.00000000 NULL
P        4.65438258       5.74478863       2.78288539       0.00000000 NULL
P       -0.45142195      -1.55291256       8.22022274       0.00000000 NULL
P        6.85608369       1.09426287       4.87359801       0.00000000 NULL
P        4.67202829      -2.02739671       6.12951012       0.00000000 NULL
P        0.04890973       5.85687218       6.12951012       0.00000000 NULL
P       -2.13514567       2.73521260       4.87359801       0.00000000 NULL
P        3.30221950       7.98751927       1.04860572       0.00000000 NULL
P       -3.02174551      -1.05129267       9.95450241       0.00000000 NULL
P       -0.04801968       3.19903896       9.95450241       0.00000000 NULL
P        0.32849367       3.73718763       1.04860572       0.00000000 NULL
P        4.17687918      -0.71912852       7.66308035       0.00000000 NULL
P        5.45734970       1.11104166       3.34002778       0.00000000 NULL
P       -2.63029478       4.04348079       3.34002778       0.00000000 NULL
P       -1.34982426       5.87365097       7.66308035       0.00000000 NULL
P       -0.38690497      -2.71843400       9.96338810       0.00000000 NULL
P        5.77142529       6.08363703       1.03972003       0.00000000 NULL
P        2.96333421       2.07004631       1.03972003       0.00000000 NULL
P        2.42118611       1.29515672       9.96338810       0.00000000 NULL
P       -2.68785808       0.61908813       8.83091579       0.00000000 NULL
P        1.84743925       7.10136620       2.17219234       0.00000000 NULL
P        0.66238110       5.40756843       2.17219234       0.00000000 NULL
P       -1.50279993       2.31288589       8.83091579       0.00000000 NULL
P       -1.60114558      -0.13240475       7.27749233       0.00000000 NULL
P        2.92586524       6.33802945       3.72561580       0.00000000 NULL
P        1.74909360       4.65607556       3.72561580       0.00000000 NULL
P       -0.42437394       1.54954914       7.27749233       0.00000000 NULL
P       -0.25365731      -2.56606866       6.45391077       0.00000000 NULL
P        5.67395588       5.90623960       4.54919737       0.00000000 NULL
P        3.09658186       2.22241165       4.54919737       0.00000000 NULL
P        2.32371670       1.11775929       6.45391077       0.00000000 NULL
P        0.92768927       3.30449318       8.17374921       0.00000000 NULL
P        0.56382999       2.78443091       2.82935893       0.00000000 NULL
P        4.27792845       8.09297349       2.82935893       0.00000000 NULL
P       -2.78640919      -2.00404939       8.17374921       0.00000000 NULL
48
Lattice="10.517362289524206 0.13708337296668 -9.01202082040833e-17 -3.475823025658733 9.927353911015278 3.4056740101887106e-16 -3.5207696319327373 -5.032218641990978 11.74185146746495" Properties=species:S:1:pos:R:3:initial_magmoms:R:1:castep_labels:S:1 n_minim_iter=3 pbc="T T T"
P        2.56980443      -3.10159024      10.24744468       0.00000000 NULL
P        7.31525557       3.68105963       1.49440443       0.00000000 NULL
P        6.09057406       1.93062840       1.49440443       0.00000000 NULL
P        3.79448594      -1.35115901      10.24744468       0.00000000 NULL
P       -1.22410285       6.90235432       2.30342468       0.00000000 NULL
P       -3.38307527       3.81654571       9.43842443       0.00000000 NULL
P       -4.74487249       1.87013568       9.43842443       0.00000000 NULL
P        0.13769436       8.84876435       2.30342468       0.00000000 NULL
P        2.52280149       4.42430188       1.09066999       0.00000000 NULL
P        0.22906468       1.14587519      10.65117913       0.00000000 NULL
P       -0.99796815      -0.60791676      10.65117913       0.00000000 NULL
P        3.74983431       6.17809384       1.09066999       0.00000000 NULL
P        1.36115628       1.01156315       8.77129406       0.00000000 NULL
P        3.03697933       3.40680876       2.97055505       0.00000000 NULL
P        4.88192591       6.04378179       2.97055505       0.00000000 NULL
P       -0.48379030      -1.62540989       8.77129406       0.00000000 NULL
P        7.11071573       1.21532469       5.20117462       0.00000000 NULL
P        4.81609884      -2.06435990       6.54067449       0.00000000 NULL
P        0.11412308       6.11045996       6.54067449       0.00000000 NULL
P       -2.18049381       2.83077537       5.20117462       0.00000000 NULL
P        3.50606327       8.37098250       1.11866587       0.00000000 NULL
P       -3.14159047      -1.13047616      10.62318324       0.00000000 NULL
P       -0.01470636       3.33876386      10.62318324       0.00000000 NULL
P        0.37917916       3.90174248       1.11866587       0.00000000 NULL
P        4.31696374      -0.70349878       8.17692216       0.00000000 NULL
P        5.66120802       1.21782294       3.56492696       0.00000000 NULL
P       -2.67962892       4.19163649       3.56492696       0.00000000 NULL
P       -1.33538463       6.11295821       8.17692216       0.00000000 NULL
P       -0.42951113      -2.84172665      10.63224559       0.00000000 NULL
P        6.04317871       6.40965696       1.10960353       0.00000000 NULL
P        3.09125851       2.19049199       1.10960353       0.00000000 NULL
P        2.52240908       1.37743831      10.63224559       0.00000000 NULL
P       -2.77853659       0.61812834       9.42393017       0.00000000 NULL
P        1.98779318       7.43061994       2.31791895       0.00000000 NULL
P        0.74223304       5.65034698       2.31791895       0.00000000 NULL
P       -1.53297645       2.39840129       9.42393017       0.00000000 NULL
P       -1.66020963      -0.15662457       7.76410665       0.00000000 NULL
P        3.09890563       6.64555536       3.97774246       0.00000000 NULL
P        1.86056001       4.87559408       3.97774246       0.00000000 NULL
P       -0.42186400       1.61333672       7.76410665       0.00000000 NULL
P       -0.29005448      -2.68086324       6.88621679       0.00000000 NULL
P        5.93985391       6.22351405       4.85563233       0.00000000 NULL
P        3.23071515       2.35135541       4.85563233       0.00000000 NULL
P        2.41908428       1.19129541       6.88621679       0.00000000 NULL
P        0.99755641       3.45870512       8.72117661       0.00000000 NULL
P        0.61343391       2.90968072       3.02067250       0.00000000 NULL
P        4.51832605       8.49092376       3.02067250       0.00000000 NULL
P       -2.90733572      -2.12253792       8.72117661       0.00000000 NULL
48
Lattice="10.579443209183479 0.20154245117805317 5.266434829695061e-16 -3.4365448773752325 10.007766847891256 -1.452655410559882e-16 -3.571449165904123 -5.104654649534654 11.998665617806099" Properties=species:S:1:pos:R:3:initial_magmoms:R:1:castep_labels:S:1 n_minim_iter=4 pbc="T T T"
P        2.56637811      -3.11777022      10.47158589       0.00000000 NULL
P        7.37996083       3.76225977       1.52707733       0.00000000 NULL
P        6.13782728       1.98688443       1.52707733       0.00000000 NULL
P        3.80851166      -1.34239488      10.47158589       0.00000000 NULL
P       -1.18902494       6.96581976       2.35394827       0.00000000 NULL
P       -3.37999515       3.83427687       9.64471495       0.00000000 NULL
P       -4.76047410       1.86116511       9.64471495       0.00000000 NULL
P        0.19145402       8.93893152       2.35394827       0.00000000 NULL
P        2.56426916       4.48389761       1.11368587       0.00000000 NULL
P        0.23797009       1.15892985      10.88497734       0.00000000 NULL
P       -1.00718000      -0.62075703      10.88497734       0.00000000 NULL
P        3.80941926       6.26358450       1.11368587       0.00000000 NULL
P        1.37579553       1.03031979       8.96207041       0.00000000 NULL
P        3.07505551       3.45906369       3.03659281       0.00000000 NULL
P        4.94724470       6.13497444       3.03659281       0.00000000 NULL
P       -0.49639365      -1.64559096       8.96207041       0.00000000 NULL
P        7.15950731       1.27046533       5.31463525       0.00000000 NULL
P        4.83169963      -2.05665868       6.68402797       0.00000000 NULL
P        0.15151326       6.17357753       6.68402797       0.00000000 NULL
P       -2.17629441       2.84645352       5.31463525       0.00000000 NULL
P        3.57715716       8.47828246       1.14387635       0.00000000 NULL
P       -3.16734629      -1.16160300      10.85478687       0.00000000 NULL
P        0.00570799       3.37362781      10.85478687       0.00000000 NULL
P        0.40410287       3.94305165       1.14387635       0.00000000 NULL
P        4.33774169      -0.68372145       8.35512490       0.00000000 NULL
P        5.70042925       1.26396114       3.64353831       0.00000000 NULL
P       -2.67025235       4.21939075       3.64353831       0.00000000 NULL
P       -1.30756479       6.16707334       8.35512490       0.00000000 NULL
P       -0.44862206      -2.87365501      10.86517337       0.00000000 NULL
P        6.11730297       6.51098919       1.13348984       0.00000000 NULL
P        3.12282711       2.23099964       1.13348984       0.00000000 NULL
P        2.54585380       1.40633454      10.86517337       0.00000000 NULL
P       -2.79293251       0.60886730       9.63013879       0.00000000 NULL
P        2.04223895       7.51975398       2.36852442       0.00000000 NULL
P        0.77851666       5.71352195       2.36852442       0.00000000 NULL
P       -1.52921022       2.41509933       9.63013879       0.00000000 NULL
P       -1.67178926      -0.16923234       7.93269817       0.00000000 NULL
P        3.15746066       6.73319071       4.06596504       0.00000000 NULL
P        1.89965991       4.93542231       4.06596504       0.00000000 NULL
P       -0.41398851       1.62853606       7.93269817       0.00000000 NULL
P       -0.30718596      -2.71021786       7.03633505       0.00000000 NULL
P        6.01223872       6.32210462       4.96232817       0.00000000 NULL
P        3.26426320       2.39443679       4.96232817       0.00000000 NULL
P        2.44078956       1.21744998       7.03633505       0.00000000 NULL
P        1.02488727       3.50026292       8.91113035       0.00000000 NULL
P        0.63443968       2.94219811       3.08753287       0.00000000 NULL
P        4.59633643       8.60491757       3.08753287       0.00000000 NULL
P       -2.93700949      -2.16245654       8.91113035       0.00000000 NULL
48
Lattice="10.540095822780195 0.2559111199453222 9.496850156295295e-16 -3.37198359610335 9.989436274500681 -7.0402155011364e-16 -3.5840561133384217 -5.122673697223002 12.161512596653697" Properties=species:S:1:pos:R:3:initial_magmoms:R:1:castep_labels:S:1 n_minim_iter=5 pbc="T T T"
P        2.54089738      -3.10400682      10.61338208       0.00000000 NULL
P        7.37090498       3.79949917       1.54812808       0.00000000 NULL
P        6.12495350       2.01866688       1.54812808       0.00000000 NULL
P        3.78684887      -1.32317452      10.61338208       0.00000000 NULL
P       -1.14749609       6.95984274       2.38614942       0.00000000 NULL
P       -3.34754004       3.81533078       9.77536074       0.00000000 NULL
P       -4.73155220       1.83716904       9.77536074       0.00000000 NULL
P        0.23651607       8.93800448       2.38614942       0.00000000 NULL
P        2.57771869       4.49573016       1.12761448       0.00000000 NULL
P        0.24407068       1.16025858      11.03389568       0.00000000 NULL
P       -1.00633742      -0.62694354      11.03389568       0.00000000 NULL
P        3.82812679       6.28293228       1.12761448       0.00000000 NULL
P        1.37670276       1.03778800       9.08233876       0.00000000 NULL
P        3.08095750       3.47367088       3.07917140       0.00000000 NULL
P        4.96075887       6.16046170       3.07917140       0.00000000 NULL
P       -0.50309862      -1.64900282       9.08233876       0.00000000 NULL
P        7.13891218       1.30773616       5.38595128       0.00000000 NULL
P        4.80223454      -2.03206566       6.77555888       0.00000000 NULL
P        0.18287247       6.17449874       6.77555888       0.00000000 NULL
P       -2.15380517       2.83469692       5.38595128       0.00000000 NULL
P        3.60771318       8.49706356       1.16075741       0.00000000 NULL
P       -3.16191053      -1.17872616      11.00075275       0.00000000 NULL
P        0.02365706       3.37438986      11.00075275       0.00000000 NULL
P        0.42214559       3.94394754       1.16075741       0.00000000 NULL
P        4.31740655      -0.66034284       8.46771918       0.00000000 NULL
P        5.68410409       1.29307119       3.69379098       0.00000000 NULL
P       -2.63863316       4.20641974       3.69379098       0.00000000 NULL
P       -1.27193562       6.15983377       8.46771918       0.00000000 NULL
P       -0.46118693      -2.87595077      11.01337167       0.00000000 NULL
P        6.12776028       6.54159892       1.14813849       0.00000000 NULL
P        3.12286918       2.24672293       1.14813849       0.00000000 NULL
P        2.54370416       1.41892523      11.01337167       0.00000000 NULL
P       -2.78141885       0.59569883       9.76097926       0.00000000 NULL
P        2.07116287       7.53146991       2.40053090       0.00000000 NULL
P        0.80263726       5.71837253       2.40053090       0.00000000 NULL
P       -1.51289324       2.40879622       9.76097926       0.00000000 NULL
P       -1.66752281      -0.17898943       8.03907728       0.00000000 NULL
P        3.18069598       6.75054574       4.12243288       0.00000000 NULL
P        1.91653330       4.94368427       4.12243288       0.00000000 NULL
P       -0.40336013       1.62787204       8.03907728       0.00000000 NULL
P       -0.31890950      -2.71163884       7.13162592       0.00000000 NULL
P        6.02216259       6.35162417       5.02988424       0.00000000 NULL
P        3.26514661       2.41103486       5.02988424       0.00000000 NULL
P        2.43810648       1.22895048       7.13162592       0.00000000 NULL
P        1.03969152       3.50520942       9.03150065       0.00000000 NULL
P        0.64747356       2.94461422       3.13000951       0.00000000 NULL
P        4.62374764       8.62788311       3.13000951       0.00000000 NULL
P       -2.93658255      -2.17805948       9.03150065       0.00000000 NULL
48
Lattice="10.446794175826764 0.318620130796729 1.4300998681488558e-15 -3.2810954273419695 9.923277691192185 -1.2932250341817112e-15 -3.5828493742423957 -5.120948910994458 12.293474919809258" Properties=species:S:1:pos:R:3:initial_magmoms:R:1:castep_labels:S:1 n_minim_iter=6 pbc="T T T"
P        2.49963883      -3.07380900      10.72789434       0.00000000 NULL
P        7.32718887       3.82618443       1.56557812       0.00000000 NULL
P        6.08248820       2.04713991       1.56557812       0.00000000 NULL
P        3.74433950      -1.29476448      10.72789434       0.00000000 NULL
P       -1.09347874       6.92178835       2.41243166       0.00000000 NULL
P       -3.29448388       3.77590258       9.88104080       0.00000000 NULL
P       -4.67632811       1.80083944       9.88104080       0.00000000 NULL
P        0.28836550       8.89685149       2.41243166       0.00000000 NULL
P        2.58197422       4.48924851       1.13817976       0.00000000 NULL
P        0.25041152       1.15675746      11.15529269       0.00000000 NULL
P       -1.00087515      -0.63170040      11.15529269       0.00000000 NULL
P        3.83326090       6.27770637       1.13817976       0.00000000 NULL
P        1.37181579       1.04200639       9.17916374       0.00000000 NULL
P        3.07411296       3.47509132       3.11430871       0.00000000 NULL
P        4.95466516       6.16295530       3.11430871       0.00000000 NULL
P       -0.50873642      -1.64585759       9.17916374       0.00000000 NULL
P        7.08291773       1.34594846       5.44304506       0.00000000 NULL
P        4.74593894      -1.99428379       6.85042740       0.00000000 NULL
P        0.21897293       6.14827724       6.85042740       0.00000000 NULL
P       -2.11800586       2.80804499       5.44304506       0.00000000 NULL
P        3.62754582       8.48125784       1.17536236       0.00000000 NULL
P       -3.14147161      -1.19366534      11.11811009       0.00000000 NULL
P        0.04469645       3.36030893      11.11811009       0.00000000 NULL
P        0.44137776       3.92728358       1.17536236       0.00000000 NULL
P        4.27416341      -0.62996545       8.55856203       0.00000000 NULL
P        5.63953911       1.32155929       3.73491043       0.00000000 NULL
P       -2.58978139       4.17236333       3.73491043       0.00000000 NULL
P       -1.22440569       6.12388807       8.55856203       0.00000000 NULL
P       -0.47376986      -2.86573576      11.13396362       0.00000000 NULL
P        6.11264468       6.54819400       1.15950884       0.00000000 NULL
P        3.10907951       2.25521315       1.15950884       0.00000000 NULL
P        2.52979530       1.42724509      11.13396362       0.00000000 NULL
P       -2.75561213       0.57763105       9.86707952       0.00000000 NULL
P        2.09577433       7.51169375       2.42639294       0.00000000 NULL
P        0.82723725       5.69857996       2.42639294       0.00000000 NULL
P       -1.48707505       2.39074484       9.86707952       0.00000000 NULL
P       -1.65531208      -0.18963973       8.12472468       0.00000000 NULL
P        3.19367948       6.74099995       4.16874778       0.00000000 NULL
P        1.92753729       4.93130918       4.16874778       0.00000000 NULL
P       -0.38916990       1.62005104       8.12472468       0.00000000 NULL
P       -0.33101307      -2.70107087       7.20908127       0.00000000 NULL
P        6.00687969       6.35764795       5.08439118       0.00000000 NULL
P        3.25183630       2.41987804       5.08439118       0.00000000 NULL
P        2.42403032       1.23669904       7.20908127       0.00000000 NULL
P        1.05237413       3.49515754       9.12905378       0.00000000 NULL
P        0.66005660       2.93442003       3.16441867       0.00000000 NULL
P        4.63522351       8.61610645       3.16441867       0.00000000 NULL
P       -2.92279278      -2.18652889       9.12905378       0.00000000 NULL
48
Lattice="10.024597304152802 0.6224105754042341 1.7107217049023162e-15 -2.8510051830669205 9.630769205049416 -9.964703183669932e-16 -3.586796060542939 -5.126589890226825 12.924208283089696" Properties=species:S:1:pos:R:3:initial_magmoms:R:1:castep_labels:S:1 n_minim_iter=7 pbc="T T T"
P        2.30699896      -2.93591731      11.27388013       0.00000000 NULL
P        7.13557212       3.96553845       1.65032557       0.00000000 NULL
P        5.89379502       2.19067258       1.65032557       0.00000000 NULL
P        3.54877606      -1.16105144      11.27388013       0.00000000 NULL
P       -0.83555693       6.75708955       2.53865627       0.00000000 NULL
P       -3.04741623       3.59568998      10.38554942       0.00000000 NULL
P       -4.42235299       1.63049966      10.38554942       0.00000000 NULL
P        0.53937983       8.72227987       2.53865627       0.00000000 NULL
P        2.60971916       4.46913885       1.18649688       0.00000000 NULL
P        0.28275890       1.14322605      11.73770882       0.00000000 NULL
P       -0.97707690      -0.65745104      11.73770882       0.00000000 NULL
P        3.86955496       6.26981594       1.18649688       0.00000000 NULL
P        1.35350017       1.06548083       9.64069928       0.00000000 NULL
P        3.04972965       3.48989325       3.28350642       0.00000000 NULL
P        4.94029623       6.19207072       3.28350642       0.00000000 NULL
P       -0.53706641      -1.63669664       9.64069928       0.00000000 NULL
P        6.83232253       1.53525944       5.71372327       0.00000000 NULL
P        4.48615416      -1.81810741       7.21048242       0.00000000 NULL
P        0.39452129       6.03943876       7.21048242       0.00000000 NULL
P       -1.95164708       2.68607190       5.71372327       0.00000000 NULL
P        3.73368573       8.42950120       1.24796533       0.00000000 NULL
P       -3.05252574      -1.26999734      11.67624037       0.00000000 NULL
P        0.14688967       3.30291131      11.67624037       0.00000000 NULL
P        0.53427032       3.85659255       1.24796533       0.00000000 NULL
P        4.07685076      -0.48458966       8.99168327       0.00000000 NULL
P        5.43929004       1.46273807       3.93252243       0.00000000 NULL
P       -2.36095049       4.01958965       3.93252243       0.00000000 NULL
P       -0.99851121       5.96691739       8.99168327       0.00000000 NULL
P       -0.53492419      -2.82443544      11.71162825       0.00000000 NULL
P        6.05683306       6.59713064       1.21257745       0.00000000 NULL
P        3.05187187       2.30215445       1.21257745       0.00000000 NULL
P        2.47003700       1.47054075      11.71162825       0.00000000 NULL
P       -2.63878720       0.49221780      10.37421761       0.00000000 NULL
P        2.22000044       7.43685897       2.54998808       0.00000000 NULL
P        0.94800886       5.61880769       2.54998808       0.00000000 NULL
P       -1.36679562       2.31026908      10.37421761       0.00000000 NULL
P       -1.60243685      -0.24156713       8.53218072       0.00000000 NULL
P        3.26453042       6.71476513       4.39202497       0.00000000 NULL
P        1.98435921       4.88502276       4.39202497       0.00000000 NULL
P       -0.32226564       1.58817524       8.53218072       0.00000000 NULL
P       -0.38957265      -2.65717937       7.58068066       0.00000000 NULL
P        5.94952314       6.40325893       5.34352503       0.00000000 NULL
P        3.19722341       2.46941052       5.34352503       0.00000000 NULL
P        2.36272708       1.27666904       7.58068066       0.00000000 NULL
P        1.11628943       3.45600782       9.59592186       0.00000000 NULL
P        0.72268750       2.89343451       3.32828384       0.00000000 NULL
P        4.70308550       8.58259771       3.32828384       0.00000000 NULL
P       -2.86410856      -2.23315538       9.59592186       0.00000000 NULL
48
Lattice="10.299514195967095 0.4699456010833287 1.6232483144083543e-15 -3.0884579781163675 9.836781427800185 -8.857275030807793e-16 -3.605528108925362 -5.153363514441756 12.842424780541846" Properties=species:S:1:pos:R:3:initial_magmoms:R:1:castep_labels:S:1 n_minim_iter=8 pbc="T T T"
P        2.42036204      -3.02064644      11.19892760       0.00000000 NULL
P        7.27275442       3.91485401       1.64349461       0.00000000 NULL
P        6.02589015       2.13271708       1.64349461       0.00000000 NULL
P        3.66722631      -1.23850950      11.19892760       0.00000000 NULL
P       -0.96968288       6.88450416       2.52387077       0.00000000 NULL
P       -3.19435068       3.70479746      10.31855144       0.00000000 NULL
P       -4.57521099       1.73114065      10.31855144       0.00000000 NULL
P        0.41117742       8.85816098       2.52387077       0.00000000 NULL
P        2.61307823       4.49763800       1.17365307       0.00000000 NULL
P        0.27586912       1.15707656      11.66876914       0.00000000 NULL
P       -0.99244988      -0.65572552      11.66876914       0.00000000 NULL
P        3.88139723       6.31044008       1.17365307       0.00000000 NULL
P        1.38108459       1.06141985       9.57673748       0.00000000 NULL
P        3.08173070       3.49214493       3.26568473       0.00000000 NULL
P        4.98661270       6.21478336       3.26568473       0.00000000 NULL
P       -0.52379741      -1.66121859       9.57673748       0.00000000 NULL
P        7.00306130       1.45344315       5.67235099       0.00000000 NULL
P        4.64026435      -1.92369085       7.17007122       0.00000000 NULL
P        0.30907521       6.13686107       7.17007122       0.00000000 NULL
P       -2.05372174       2.75972706       5.67235099       0.00000000 NULL
P        3.70503972       8.51418019       1.24676967       0.00000000 NULL
P       -3.12316187      -1.24533461      11.59565253       0.00000000 NULL
P        0.09951161       3.36081668      11.59565253       0.00000000 NULL
P        0.48236624       3.90802891       1.24676967       0.00000000 NULL
P        4.19971376      -0.55692673       8.93150864       0.00000000 NULL
P        5.56808671       1.39888197       3.91091356       0.00000000 NULL
P       -2.49427233       4.12649119       3.91091356       0.00000000 NULL
P       -1.12589938       6.08229988       8.93150864       0.00000000 NULL