33
Lattice="8.576099999999997 -1.4504904837786908e-15 0.0 -4.288049999999998 7.427120465395723 0.0 0.0 0.0 11.866349999999999" Properties=species:S:1:pos:R:3:initial_magmoms:R:1:castep_labels:S:1 n_minim_iter=1 pbc="T T T"
P        1.16201953       0.84030887       7.44806647       0.00000000 NULL
P        4.43476906       6.00062760      11.40351647       0.00000000 NULL
P        7.26736141       0.58618400       3.49261647       0.00000000 NULL
P        2.11734304       1.93810263       8.90611693       0.00000000 NULL
P        4.90782459       4.62439629       0.99521693       0.00000000 NULL
P        5.83898237       0.86462155       4.95066693       0.00000000 NULL
P        4.83014014       2.08087862       3.66510257       0.00000000 NULL
P        3.67507368       2.20365709       7.62055257       0.00000000 NULL
P        4.35893619       3.14258476      11.57600257       0.00000000 NULL
P        7.23439188       2.15016400       6.91725497       0.00000000 NULL
P        2.53295071       0.08687132      10.87270497       0.00000000 NULL
P        3.09680742       5.19008515       2.96180497       0.00000000 NULL
P        1.28007640       6.52573393       6.52393411       0.00000000 NULL
P        0.72336316       3.05567482      10.47938411       0.00000000 NULL
P       -2.00343956       5.27283218       2.56848411       0.00000000 NULL
P       -3.26824708       5.76829093       4.04769861       0.00000000 NULL
P        2.34156002       7.37336000       8.00314861       0.00000000 NULL
P        0.92668706       1.71259001       0.09224861       0.00000000 NULL
P        2.21309519       0.42172081       0.97036958       0.00000000 NULL
P        3.54672334       5.29966341       4.92581958       0.00000000 NULL
P        7.10433147       1.70573625       8.88126958       0.00000000 NULL
P        7.83572529       0.88862377       5.47462838       0.00000000 NULL
P        1.13975811       0.19687143       9.43007838       0.00000000 NULL
P        3.88866660       6.34162528       1.51917838       0.00000000 NULL
P       -1.06946111       3.70373267       5.61696169       0.00000000 NULL
P       -0.54579286       6.50143462       9.57241169       0.00000000 NULL
P        1.61525398       4.64907364       1.66151169       0.00000000 NULL
P        3.00051453       4.24304336       6.74035379       0.00000000 NULL
P        6.46237607       2.70707698      10.69580379       0.00000000 NULL
P        3.40125940       0.47700013       2.78490379       0.00000000 NULL
P        4.54122891       3.86606650       9.67426730       0.00000000 NULL
P        5.36554735       1.56126762       1.76336730       0.00000000 NULL
P        2.95737375       1.99978635       5.71881730       0.00000000 NULL
33
Lattice="8.603649263076571 -1.0603820761577276e-15 0.0 -4.3018246315382855 7.450978827075577 0.0 0.0 0.0 11.954975067810514" Properties=species:S:1:pos:R:3:initial_magmoms:R:1:castep_labels:S:1 n_minim_iter=2 pbc="T T T"
P        1.16572393       0.84298300       7.50340160       0.00000000 NULL
P        4.44900736       6.01994079      11.48839329       0.00000000 NULL
P        7.29074260       0.58805504       3.51840991       0.00000000 NULL
P        2.12408552       1.94468266       8.97284871       0.00000000 NULL
P        4.92392646       4.63912548       1.00286533       0.00000000 NULL
P        5.85746192       0.86717069       4.98785702       0.00000000 NULL
P        4.84542300       2.08789671       3.69251116       0.00000000 NULL
P        3.68728473       2.21077107       7.67750285       0.00000000 NULL
P        4.37276617       3.15231105      11.66249454       0.00000000 NULL
P        7.25752793       2.15730535       6.96893668       0.00000000 NULL
P        2.54134190       0.08712260      10.95392837       0.00000000 NULL
P        3.10660407       5.20655088       2.98394500       0.00000000 NULL
P        1.28408215       6.54662075       6.57251360       0.00000000 NULL
P        0.72567417       3.06562070      10.55750529       0.00000000 NULL
P       -2.00975631       5.28971622       2.58752191       0.00000000 NULL
P       -3.27862597       5.78694817       4.07804867       0.00000000 NULL
P        2.34913248       7.39687813       8.06304036       0.00000000 NULL
P        0.92949350       1.71813136       0.09305698       0.00000000 NULL
P        2.22027402       0.42295940       0.97790403       0.00000000 NULL
P        3.55798121       5.31668543       4.96289572       0.00000000 NULL
P        7.12721867       1.71133401       8.94788740       0.00000000 NULL
P        7.86131249       0.89135607       5.51545590       0.00000000 NULL
P        1.14310539       0.19720447       9.50044759       0.00000000 NULL
P        3.90105602       6.36241829       1.53046421       0.00000000 NULL
P       -1.07287572       3.71568281       5.65889924       0.00000000 NULL
P       -0.54751107       6.52227505       9.64389093       0.00000000 NULL
P        1.62038679       4.66399980       1.67390755       0.00000000 NULL
P        3.01008893       4.25662790       6.79069407       0.00000000 NULL
P        6.48312806       2.71585141      10.77568576       0.00000000 NULL
P        3.41225691       0.47849953       2.80570238       0.00000000 NULL
P        4.55589608       3.87859005       9.74635473       0.00000000 NULL
P        5.38283411       1.56616206       1.77637135       0.00000000 NULL
P        2.96674371       2.00622672       5.76136304       0.00000000 NULL
33
Lattice="8.781122608521438 1.2633311509321045e-16 0.0 -4.39056130426072 7.604675252725443 0.0 0.0 0.0 12.550366327222983" Properties=species:S:1:pos:R:3:initial_magmoms:R:1:castep_labels:S:1 n_minim_iter=3 pbc="T T T"
P        1.18959967       0.86025517       7.87505517       0.00000000 NULL
P        4.54076430       6.14432414      12.05851062       0.00000000 NULL
P        7.44131995       0.60009595       3.69159973       0.00000000 NULL
P        2.16741490       1.98733403       9.42130423       0.00000000 NULL
P        5.02793561       4.73397188       1.05439334       0.00000000 NULL
P        5.97633341       0.88336935       5.23784879       0.00000000 NULL
P        4.94367592       2.13334549       3.87654615       0.00000000 NULL
P        3.76625473       2.25665357       8.06000159       0.00000000 NULL
P        4.46175326       3.21467620      12.24345703       0.00000000 NULL
P        7.40648544       2.20347209       7.31615436       0.00000000 NULL
P        2.59558139       0.08873467      11.49960980       0.00000000 NULL
P        3.16961709       5.31246850       3.13269891       0.00000000 NULL
P        1.30991019       6.68119926       6.89882592       0.00000000 NULL
P        0.74057189       3.12966013      11.08228136       0.00000000 NULL
P       -2.05048207       5.39849112       2.71537048       0.00000000 NULL
P       -3.34536626       5.90721968       4.28198171       0.00000000 NULL
P        2.39792413       7.54823758       8.46543715       0.00000000 NULL
P        0.94744213       1.75389325       0.09852627       0.00000000 NULL
P        2.26662322       0.43086540       1.02865302       0.00000000 NULL
P        3.63039007       5.42628927       5.21210846       0.00000000 NULL
P        7.27467062       1.74752060       9.39556390       0.00000000 NULL
P        8.02646720       0.90888466       5.78960282       0.00000000 NULL
P        1.16444490       0.19910843       9.97305826       0.00000000 NULL
P        3.98077181       6.49668218       1.60614738       0.00000000 NULL
P       -1.09485228       3.79260742       5.94077319       0.00000000 NULL
P       -0.55864079       6.65654144      10.12422863       0.00000000 NULL
P        1.65349308       4.76020165       1.75731774       0.00000000 NULL
P        3.07170862       4.34406958       7.12876862       0.00000000 NULL
P        6.61678161       2.77246277      11.31222407       0.00000000 NULL
P        3.48319369       0.48814291       2.94531318       0.00000000 NULL
P        4.65050300       3.95930570      10.23067240       0.00000000 NULL
P        5.49416912       1.59756867       1.86376152       0.00000000 NULL
P        3.02701180       2.04780089       6.04721696       0.00000000 NULL
33
Lattice="8.777177154326196 1.5717448841874972e-15 -4.553081723095788e-61 -4.3885885771631 7.601258389162895 -4.297210605429313e-45 -4.344935087303731e-63 -5.615623565328232e-47 12.6796362999626" Properties=species:S:1:pos:R:3:initial_magmoms:R:1:castep_labels:S:1 n_minim_iter=4 pbc="T T T"
P        1.18910134       0.86018768       7.95525677       0.00000000 NULL
P        4.53898229       6.14137259      12.18180221       0.00000000 NULL
P        7.43768211       0.59969813       3.72871134       0.00000000 NULL
P        2.16574396       1.98835076       9.51947766       0.00000000 NULL
P        5.02767887       4.73149372       1.06638679       0.00000000 NULL
P        5.97234290       0.88141391       5.29293222       0.00000000 NULL
P        4.93999406       2.13397036       3.91574321       0.00000000 NULL
P        3.76666409       2.25611286       8.14228864       0.00000000 NULL
P        4.45910758       3.21117517      12.36883408       0.00000000 NULL
P        7.40254113       2.20355036       7.39143638       0.00000000 NULL
P        2.59564860       0.08869454      11.61798181       0.00000000 NULL
P        3.16757600       5.30901349       3.16489095       0.00000000 NULL
P        1.30956282       6.67840604       6.96950542       0.00000000 NULL
P        0.74029930       3.12794070      11.19605085       0.00000000 NULL
P       -2.04986212       5.39617004       2.74295998       0.00000000 NULL
P       -3.34307837       5.90509950       4.32647549       0.00000000 NULL
P        2.39691678       7.54389944       8.55302092       0.00000000 NULL
P        0.94616159       1.75351785       0.09993006       0.00000000 NULL
P        2.26626685       0.43034029       1.04017471       0.00000000 NULL
P        3.62814077       5.42344358       5.26672014       0.00000000 NULL
P        7.27135811       1.74747453       9.49326558       0.00000000 NULL
P        8.02510409       0.90802146       5.84836553       0.00000000 NULL
P        1.16240618       0.19730366      10.07491096       0.00000000 NULL
P        3.97825547       6.49593328       1.62182010       0.00000000 NULL
P       -1.09403884       3.79054676       6.00298158       0.00000000 NULL
P       -0.55885937       6.65345045      10.22952701       0.00000000 NULL
P        1.65289822       4.75851958       1.77643614       0.00000000 NULL
P        3.06986301       4.34143583       7.20140076       0.00000000 NULL
P        6.61345079       2.77196113      11.42794619       0.00000000 NULL
P        3.48245194       0.48786144       2.97485532       0.00000000 NULL
P        4.64936295       3.95770388      10.33634664       0.00000000 NULL
P        5.49137920       1.59594003       1.88325578       0.00000000 NULL
P        3.02502358       2.04761449       6.10980121       0.00000000 NULL
33
Lattice="8.743788019696497 1.0472602840973786e-15 -2.7966557375437285e-47 -4.3718940098482495 7.572342550363198 -5.1888850526903246e-45 -4.0400890838551243e-47 -1.216700056226066e-44 12.738487795653544" Properties=species:S:1:pos:R:3:initial_magmoms:R:1:castep_labels:S:1 n_minim_iter=5 pbc="T T T"
P        1.18464600       0.85734215       7.99135564       0.00000000 NULL
P        4.52205110       6.11773795      12.23751824       0.00000000 NULL
P        7.40898494       0.59726245       3.74519304       0.00000000 NULL
P        2.15671727       1.98290127       9.56487453       0.00000000 NULL
P        5.01077825       4.71311998       1.07254933       0.00000000 NULL
P        5.94818652       0.87632131       5.31871193       0.00000000 NULL
P        4.91961287       2.12751991       3.93290862       0.00000000 NULL
P        3.75457386       2.24807288       8.17907122       0.00000000 NULL
P        4.44149530       3.19674977      12.42523382       0.00000000 NULL
P        7.37370303       2.19620563       7.42568185       0.00000000 NULL
P        2.58701237       0.08842560      11.67184444       0.00000000 NULL
P        3.15496664       5.28771133       3.17951925       0.00000000 NULL
P        1.30500531       6.65332461       7.00153534       0.00000000 NULL
P        0.73755147       3.11551250      11.24769794       0.00000000 NULL
P       -2.04255677       5.37584800       2.75537274       0.00000000 NULL
P       -3.32946891       5.88319318       4.34689799       0.00000000 NULL
P        2.38783519       7.51415062       8.59306059       0.00000000 NULL
P        0.94163372       1.74734131       0.10073539       0.00000000 NULL
P        2.25842122       0.42838163       1.04583524       0.00000000 NULL
P        3.61367277       5.40230160       5.29199784       0.00000000 NULL
P        7.24358805       1.74165934       9.53816044       0.00000000 NULL
P        7.99701772       0.90415056       5.87445067       0.00000000 NULL
P        1.15640250       0.19464678      10.12061327       0.00000000 NULL
P        3.96226181       6.47354522       1.62828807       0.00000000 NULL
P       -1.08947982       3.77565716       6.03210523       0.00000000 NULL
P       -0.55733908       6.62803118      10.27826783       0.00000000 NULL
P        1.64681891       4.74099677       1.78594263       0.00000000 NULL
P        3.05765528       4.32406583       7.23381257       0.00000000 NULL
P        6.58781723       2.76230249      11.47997517       0.00000000 NULL
P        3.47020953       0.48597424       2.98764998       0.00000000 NULL
P        4.63280434       3.94272047      10.38495969       0.00000000 NULL
P        5.46998793       1.58885607       1.89263450       0.00000000 NULL
P        3.01288976       2.04076602       6.13879710       0.00000000 NULL
33
Lattice="8.581469225248195 6.971479297982513e-16 -3.3775864506337447e-46 -4.290734612624099 7.4317703508593045 -1.3268432713186216e-43 -4.902515616292473e-46 -5.210982895985423e-44 12.96468647681153" Properties=species:S:1:pos:R:3:initial_magmoms:R:1:castep_labels:S:1 n_minim_iter=6 pbc="T T T"
P        1.16306063       0.84353480       8.12950458       0.00000000 NULL
P        4.43972686       6.00276291      12.45106674       0.00000000 NULL
P        7.26941635       0.58547265       3.80794242       0.00000000 NULL
P        2.11303365       1.95641092       9.74069651       0.00000000 NULL
P        4.92851935       4.62362408       1.09757219       0.00000000 NULL
P        5.83065085       0.85173536       5.41913435       0.00000000 NULL
P        4.82086582       2.09602644       3.99741912       0.00000000 NULL
P        3.69551385       2.20876487       8.31898128       0.00000000 NULL
P        4.35582418       3.12697905      12.64054344       0.00000000 NULL
P        7.23358918       2.15997200       7.55775180       0.00000000 NULL
P        2.54453065       0.08731237      11.87931395       0.00000000 NULL
P        3.09408401       5.18448599       3.23618964       0.00000000 NULL
P        1.28286406       6.53131128       7.12439954       0.00000000 NULL
P        0.72411485       3.05512185      11.44596170       0.00000000 NULL
P       -2.00697890       5.27710758       2.80283738       0.00000000 NULL
P       -3.26320571       5.77666511       4.42557065       0.00000000 NULL
P        2.34360698       7.36945684       8.74713281       0.00000000 NULL
P        0.91959873       1.71741876       0.10400849       0.00000000 NULL
P        2.22038296       0.41862766       1.06821774       0.00000000 NULL
P        3.54308532       5.29954848       5.38977990       0.00000000 NULL
P        7.10873556       1.71359422       9.71134206       0.00000000 NULL
P        7.86038507       0.88558463       5.97327102       0.00000000 NULL
P        1.12748087       0.18168489      10.29483317       0.00000000 NULL
P        3.88433791       6.36450084       1.65170886       0.00000000 NULL
P       -1.06745555       3.70336191       6.14529386       0.00000000 NULL
P       -0.54980134       6.50453303      10.46685602       0.00000000 NULL
P        1.61725690       4.65564577       1.82373171       0.00000000 NULL
P        2.99838360       4.23966507       7.35713412       0.00000000 NULL
P        6.46320047       2.71526145      11.67869628       0.00000000 NULL
P        3.41061977       0.47684383       3.03557197       0.00000000 NULL
P        4.55218803       3.86970974      10.57297271       0.00000000 NULL
P        5.36590753       1.55460501       1.92984839       0.00000000 NULL
P        2.95410828       2.00745562       6.25141055       0.00000000 NULL
33
Lattice="8.382994283737844 6.233436245984287e-17 -5.680397175609917e-45 -4.191497141868923 7.25988600949671 -1.552712566587442e-43 -8.53934313791978e-45 4.073716245680498e-44 13.246838260933753" Properties=species:S:1:pos:R:3:initial_magmoms:R:1:castep_labels:S:1 n_minim_iter=7 pbc="T T T"
P        1.13791470       0.82842181       8.30095571       0.00000000 NULL
P        4.33997413       5.86021207      12.71656847       0.00000000 NULL
P        7.09660260       0.57125213       3.88534296       0.00000000 NULL
P        2.05847097       1.93366127       9.96447805       0.00000000 NULL
P        4.83686144       4.51036723       1.13325254       0.00000000 NULL
P        5.67915903       0.81585752       5.54886529       0.00000000 NULL
P        4.69672042       2.06366246       4.07121844       0.00000000 NULL
P        3.63032105       2.16057559       8.48683119       0.00000000 NULL
P        4.24744996       3.03564797      12.90244395       0.00000000 NULL
P        7.06051774       2.11549953       7.72798880       0.00000000 NULL
P        2.49331461       0.08754852      12.14360155       0.00000000 NULL
P        3.02065908       5.05683796       3.31237604       0.00000000 NULL
P        1.25662363       6.38244368       7.27730496       0.00000000 NULL
P        0.70754941       2.98039619      11.69291772       0.00000000 NULL
P       -1.96417304       5.15693215       2.86169221       0.00000000 NULL
P       -3.17710529       5.64866445       4.52312475       0.00000000 NULL
P        2.28894241       7.18700768       8.93873751       0.00000000 NULL
P        0.88816288       1.68409989       0.10751200       0.00000000 NULL
P        2.17846923       0.40230145       1.09769559       0.00000000 NULL
P        3.45066580       5.17212560       5.51330834       0.00000000 NULL
P        6.94535640       1.68545897       9.92892109       0.00000000 NULL
P        7.70362972       0.86330184       6.09046446       0.00000000 NULL
P        1.08732361       0.15669605      10.50607721       0.00000000 NULL
P        3.78353810       6.23988812       1.67485170       0.00000000 NULL
P       -1.03977245       3.61439832       6.28854091       0.00000000 NULL
P       -0.54145015       6.35315621      10.70415367       0.00000000 NULL
P        1.58122261       4.55221750       1.87292816       0.00000000 NULL
P        2.92426546       4.13394088       7.50625713       0.00000000 NULL
P        6.30946223       2.66042739      11.92186988       0.00000000 NULL
P        3.34076373       0.46551774       3.09064438       0.00000000 NULL
P        4.45668590       3.77949286      10.81315338       0.00000000 NULL
P        5.23629102       1.51053638       1.98192787       0.00000000 NULL
P        2.88151451       1.96985678       6.39754063       0.00000000 NULL
33
Lattice="8.142471288010675 -9.912121760018261e-16 -9.853134611172984e-45 -4.071235644005338 7.051586985002648 -1.7057485080278147e-43 -1.468395588629544e-44 -1.2558777912457695e-43 13.548122823060007" Properties=species:S:1:pos:R:3:initial_magmoms:R:1:castep_labels:S:1 n_minim_iter=8 pbc="T T T"
P        1.11227003       0.81463715       8.48376387       0.00000000 NULL
P        4.22059710       5.68101431      12.99980481       0.00000000 NULL
P        6.88083981       0.55593552       3.96772293       0.00000000 NULL
P        1.99220552       1.92128713      10.20948183       0.00000000 NULL
P        4.73901635       4.36564283       1.17739995       0.00000000 NULL
P        5.48248506       0.76465702       5.69344089       0.00000000 NULL
P        4.54530929       2.03319425       4.13569869       0.00000000 NULL
P        3.55937887       2.09863655       8.65173963       0.00000000 NULL
P        4.10901878       2.91975619      13.16778057       0.00000000 NULL
P        6.85115954       2.05561558       7.92661514       0.00000000 NULL
P        2.42587119       0.09050099      12.44265608       0.00000000 NULL
P        2.93667621       4.90547042       3.41057420       0.00000000 NULL
P        1.22365079       6.19949080       7.44083554       0.00000000 NULL
P        0.68585548       2.89212892      11.95687648       0.00000000 NULL
P       -1.90950627       5.01155426       2.92479460       0.00000000 NULL
P       -3.06461577       5.49753395       4.62548352       0.00000000 NULL
P        2.22207630       6.95685512       9.14152446       0.00000000 NULL
P        0.84253948       1.64878491       0.10944258       0.00000000 NULL
P        2.13576562       0.37267129       1.13169724       0.00000000 NULL
P        3.32609564       5.01562406       5.64773818       0.00000000 NULL
P        6.75184567       1.66329164      10.16377912       0.00000000 NULL
P        7.52909974       0.84049711       6.20337504       0.00000000 NULL
P        1.03457762       0.11094679      10.71941598       0.00000000 NULL
P        3.65002957       6.10014309       1.68733410       0.00000000 NULL
P       -1.00360192       3.50730420       6.44076736       0.00000000 NULL
P       -0.53202015       6.16707965      10.95680831       0.00000000 NULL
P        1.53562207       4.42879013       1.92472642       0.00000000 NULL
P        2.83085279       4.00380991       7.65534609       0.00000000 NULL
P        6.12321034       2.59809160      12.17138704       0.00000000 NULL
P        3.25964380       0.44968548       3.13930515       0.00000000 NULL
P        4.34616851       3.66891092      11.08345928       0.00000000 NULL
P        5.07552144       1.45323919       2.05137740       0.00000000 NULL
P        2.79201698       1.92943689       6.56741834       0.00000000 NULL
33
Lattice="8.06705360405497 1.4061570339451173e-15 -3.5406595233439e-44 -4.033526802027486 6.986273354802418 -2.0614293103379612e-43 -5.584914521121968e-44 4.3491170566122377e-44 14.553652673984912" Properties=species:S:1:pos:R:3:initial_magmoms:R:1:castep_labels:S:1 n_minim_iter=9 pbc="T T T"
P        1.11093618       0.81783098       9.11133806       0.00000000 NULL
P        4.18632112       5.61525891      13.96255561       0.00000000 NULL
P        6.80332311       0.55318347       4.26012050       0.00000000 NULL
P        1.97016614       1.93505902      10.97664453       0.00000000 NULL
P        4.72425400       4.31252993       1.27420941       0.00000000 NULL
P        5.40616027       0.73868442       6.12542697       0.00000000 NULL
P        4.49766300       2.03757085       4.42171949       0.00000000 NULL
P        3.54928342       2.07239752       9.27293704       0.00000000 NULL
P        4.05363399       2.87630499      14.12415460       0.00000000 NULL
P        6.78918100       2.03058413       8.54345420       0.00000000 NULL
P        2.39747374       0.09137808      13.39467175       0.00000000 NULL
P        2.91392567       4.86431116       3.69223664       0.00000000 NULL
P        1.20891383       6.13537604       7.99205845       0.00000000 NULL
P        0.67540780       2.87163525      12.84327601       0.00000000 NULL
P       -1.88432163       4.96553543       3.14084089       0.00000000 NULL
P       -3.02075561       5.45604969       4.96821762       0.00000000 NULL
P        2.20192864       6.87429961       9.81943518       0.00000000 NULL
P        0.81882697       1.64219742       0.11700006       0.00000000 NULL
P        2.13227987       0.35222100       1.22515207       0.00000000 NULL
P        3.27241920       4.96355432       6.07636963       0.00000000 NULL
P        6.69588133       1.67049804      10.92758718       0.00000000 NULL
P        7.49283209       0.84034096       6.63902512       0.00000000 NULL
P        1.01486738       0.07711994      11.49024268       0.00000000 NULL
P        3.59288094       6.06881246       1.78780757       0.00000000 NULL
P       -0.98834379       3.47283011       6.91752571       0.00000000 NULL
P       -0.53179581       6.10578913      11.76874327       0.00000000 NULL
P        1.52013960       4.39392747       2.06630816       0.00000000 NULL
P        2.79591528       3.96356454       8.20681119       0.00000000 NULL
P        6.06811675       2.58315743      13.05802874       0.00000000 NULL
P        3.23654838       0.43955139       3.35559363       0.00000000 NULL
P        4.31941653       3.63697383      11.92598822       0.00000000 NULL
P        5.02353027       1.42706199       2.22355310       0.00000000 NULL
P        2.75763361       1.92223753       7.07477066       0.00000000 NULL
33
Lattice="7.873540577089429 7.236527058607994e-16 -3.815187653085893e-44 -3.936770288544716 6.818686157487037 -8.486097176835677e-44 -6.18875942030641e-44 -1.2351536942429172e-43 14.001039291597152" Properties=species:S:1:pos:R:3:initial_magmoms:R:1:castep_labels:S:1 n_minim_iter=10 pbc="T T T"
P        1.08486373       0.79934501       8.76598414       0.00000000 NULL
P        4.08659151       5.47949411      13.43299724       0.00000000 NULL
P        6.63885564       0.53984705       4.09897105       0.00000000 NULL
P        1.92267444       1.88956728      10.55919088       0.00000000 NULL
P        4.61184633       4.20881762       1.22516468       0.00000000 NULL
P        5.27579010       0.72030127       5.89217778       0.00000000 NULL
P        4.39010067       1.98908443       4.25194125       0.00000000 NULL
P        3.46431760       2.02220524       8.91895435       0.00000000 NULL
P        3.95589260       2.80739650      13.58596745       0.00000000 NULL
P        6.62693556       1.98126750       8.21993353       0.00000000 NULL
P        2.33913050       0.08895787      12.88694663       0.00000000 NULL
P        2.84424481       4.74846079       3.55292044       0.00000000 NULL
P        1.18022252       5.98809271       7.68956554       0.00000000 NULL
P        0.65895886       2.80253712      12.35657864       0.00000000 NULL
P       -1.83918138       4.84674248       3.02255244       0.00000000 NULL
P       -2.94789520       5.32548714       4.77881418       0.00000000 NULL
P        2.14918446       6.70889473       9.44582728       0.00000000 NULL
P        0.79871074       1.60299046       0.11180108       0.00000000 NULL
P        2.08157997       0.34342113       1.17848751       0.00000000 NULL
P        3.19339172       4.84427446       5.84550061       0.00000000 NULL
P        6.53533917       1.63099057      10.51251370       0.00000000 NULL
P        7.31375429       0.82107310       6.38586205       0.00000000 NULL
P        0.99096330       0.07425260      11.05287515       0.00000000 NULL
P        3.50559327       5.92336047       1.71884895       0.00000000 NULL
P       -0.96463196       3.38869525       6.65530894       0.00000000 NULL
P       -0.51975814       5.95973432      11.32232204       0.00000000 NULL
P        1.48439010       4.28894276       1.98829585       0.00000000 NULL
P        2.72843671       3.86794378       7.89407049       0.00000000 NULL
P        5.92228951       2.52181877      12.56108358       0.00000000 NULL
P        3.15958465       0.42892361       3.22705739       0.00000000 NULL
P        4.21663604       3.54941261      11.47588023       0.00000000 NULL
P        4.90233375       1.39226593       2.14185404       0.00000000 NULL
P        2.69134108       1.87700763       6.80886713       0.00000000 NULL
33
Lattice="7.875244827430539 4.495071502739519e-16 -3.7925216491645266e-44 -3.93762241371527 6.820162081576847 4.1829958492150253e-45 -6.14109681012245e-44 -2.2305772472550676e-43 14.018986791271145" Properties=species:S:1:pos:R:3:initial_magmoms:R:1:castep_labels:S:1 n_minim_iter=11 pbc="T T T"
P        1.08557973       0.80014613       8.77699852       0.00000000 NULL
P        4.08777942       5.47994940      13.44999412       0.00000000 NULL
P        6.63950809       0.54006656       4.10400293       0.00000000 NULL
P        1.92315566       1.89161723      10.57260774       0.00000000 NULL
P        4.61423316       4.20885181       1.22661654       0.00000000 NULL
P        5.27547843       0.71969305       5.89961214       0.00000000 NULL
P        4.39121288       1.99045465       4.25642244       0.00000000 NULL
P        3.46580027       2.02203285       8.92941804       0.00000000 NULL
P        3.95585410       2.80767458      13.60241364       0.00000000 NULL
P        6.62887076       1.98134193       8.23225176       0.00000000 NULL
P        2.33907948       0.08872064      12.90524736       0.00000000 NULL
P        2.84491700       4.75009951       3.55925616       0.00000000 NULL
P        1.18023216       5.98883002       7.69961260       0.00000000 NULL
P        0.65874045       2.80363604      12.37260820       0.00000000 NULL
P       -1.83897260       4.84785810       3.02661701       0.00000000 NULL
P       -2.94760364       5.32712480       4.78460325       0.00000000 NULL
P        2.14960481       6.70929932       9.45759885       0.00000000 NULL
P        0.79799884       1.60390005       0.11160765       0.00000000 NULL
P        2.08285251       0.34267973       1.18073888       0.00000000 NULL
P        3.19296551       4.84501904       5.85373448       0.00000000 NULL
P        6.53704923       1.63246332      10.52673008       0.00000000 NULL
P        7.31706459       0.82190360       6.39299521       0.00000000 NULL
P        0.99087951       0.07244647      11.06599081       0.00000000 NULL
P        3.50492314       5.92581202       1.71999962       0.00000000 NULL