15
Lattice="6.566849999999999 0.0 0.0 0.0 7.4844899999999965 -5.141462325345801e-16 0.0 -3.742244999999998 6.48175847437059" Properties=species:S:1:pos:R:3:initial_magmoms:R:1:castep_labels:S:1 n_minim_iter=1 pbc="T T T"
P        0.42986403       4.11653574       0.12216754       0.00000000 NULL
P        4.80776403       1.78977807       2.85565019       0.00000000 NULL
P        2.61881403       5.32042232       3.50394011       0.00000000 NULL
P        0.03732007       3.23492756       6.10504386       0.00000000 NULL
P        4.41522007      -0.07258495       0.62770711       0.00000000 NULL
P        2.22627007      -3.16234147       6.23076534       0.00000000 NULL
P        1.70664814       5.52882607       0.82120185       0.00000000 NULL
P        6.08454814       1.68901438       1.28305373       0.00000000 NULL
P        3.89559814       4.00889568       4.37750226       0.00000000 NULL
P        2.84321358       1.26870675       3.11668550       0.00000000 NULL
P        0.65426358      -1.67746880       3.82468346       0.00000000 NULL
P        5.03216358       0.40876319       6.02214735       0.00000000 NULL
P        4.82097675       2.38124401       5.62469564       0.00000000 NULL
P        2.63202675      -0.06173694       1.60719286       0.00000000 NULL
P        0.44307675      -2.31950593       5.73162781       0.00000000 NULL
15
Lattice="6.586240200487796 7.721112455190609e-63 8.583547026894424e-47 -2.9822004466326795e-63 7.5041096979927335 1.3652073764246292e-15 -1.2149368594229317e-46 -3.752054848996368 6.498749631246878" Properties=species:S:1:pos:R:3:initial_magmoms:R:1:castep_labels:S:1 n_minim_iter=2 pbc="T T T"
P        0.43115525       4.12710686       0.12244008       0.00000000 NULL
P        4.82198205       1.79453839       2.86335022       0.00000000 NULL
P        2.62656865       5.33452044       3.51295870       0.00000000 NULL
P        0.03767813       3.24312554       6.12115760       0.00000000 NULL
P        4.42850493      -0.07253888       0.62954174       0.00000000 NULL
P        2.23309153      -3.17058552       6.24679929       0.00000000 NULL
P        1.71166957       5.54328477       0.82339271       0.00000000 NULL
P        6.10249637       1.69349223       1.28642786       0.00000000 NULL
P        3.90708297       4.01938869       4.38892842       0.00000000 NULL
P        2.85151767       1.27216708       3.12504590       0.00000000 NULL
P        0.65610427      -1.68176849       3.83449768       0.00000000 NULL
P        5.04693107       0.40960255       6.03795504       0.00000000 NULL
P        4.83505106       2.38734770       5.63909723       0.00000000 NULL
P        2.63963766      -0.06212649       1.61169727       0.00000000 NULL
P        0.44422426      -2.32522008       5.74670412       0.00000000 NULL
15
Lattice="6.870838035779088 2.6885953579567175e-48 1.2162195035862993e-46 3.0632825231802546e-48 7.7956101935465565 -1.3922482972658947e-15 1.4064757696200786e-47 -3.8978050967732774 6.751196465612242" Properties=species:S:1:pos:R:3:initial_magmoms:R:1:castep_labels:S:1 n_minim_iter=3 pbc="T T T"
P        0.45005842       4.28399081       0.12639773       0.00000000 NULL
P        5.03061711       1.86527412       2.97795274       0.00000000 NULL
P        2.74033777       5.54415154       3.64684533       0.00000000 NULL
P        0.04315395       3.36467207       6.36066382       0.00000000 NULL
P        4.62371264      -0.07164390       0.65697308       0.00000000 NULL
P        2.33343330      -3.29302699       6.48475537       0.00000000 NULL
P        1.78521698       5.75799447       0.85594689       0.00000000 NULL
P        6.36577567       1.76008040       1.33665354       0.00000000 NULL
P        4.07549633       4.17534161       4.55859537       0.00000000 NULL
P        2.97347142       1.32369834       3.24934026       0.00000000 NULL
P        0.68319207      -1.74564227       3.98016995       0.00000000 NULL
P        5.26375077       0.42194511       6.27288205       0.00000000 NULL
P        5.04153667       2.47793309       5.85284768       0.00000000 NULL
P        2.75125733      -0.06805609       1.67881963       0.00000000 NULL
P        0.46097798      -2.40987582       5.97072496       0.00000000 NULL
15
Lattice="6.876500045622801 2.6728173580569458e-48 2.9641854467091303e-46 3.0251230182033845e-48 7.853831292793364 2.304275855926933e-15 2.7134218679421848e-46 -3.9269156463966843 6.8016174165962315" Properties=species:S:1:pos:R:3:initial_magmoms:R:1:castep_labels:S:1 n_minim_iter=4 pbc="T T T"
P        0.44999631       4.31368980       0.12644031       0.00000000 NULL
P        5.03432967       1.87957205       3.00263232       0.00000000 NULL
P        2.74216299       5.58748627       3.67254412       0.00000000 NULL
P        0.04554586       3.38611939       6.40979715       0.00000000 NULL
P        4.62987923      -0.06892739       0.66425344       0.00000000 NULL
P        2.33771254      -3.31719081       6.52918358       0.00000000 NULL
P        1.78447100       5.79956676       0.86228967       0.00000000 NULL
P        6.36880436       1.77389781       1.34790045       0.00000000 NULL
P        4.07663768       4.20728356       4.59142663       0.00000000 NULL
P        2.97708141       1.33517512       3.27466736       0.00000000 NULL
P        0.68491473      -1.75855729       4.00798818       0.00000000 NULL
P        5.26924810       0.42338337       6.32057863       0.00000000 NULL
P        5.04482531       2.49505551       5.89344213       0.00000000 NULL
P        2.75265863      -0.07057201       1.69411490       0.00000000 NULL
P        0.46049194      -2.42448231       6.01567713       0.00000000 NULL
15
Lattice="6.848994335123631 2.2535473096417034e-48 -6.983178643139993e-44 2.5253459841872155e-48 7.876516124754903 -1.4064722117103971e-15 4.30072737925802e-44 -3.9382580623774506 6.821263057355507" Properties=species:S:1:pos:R:3:initial_magmoms:R:1:castep_labels:S:1 n_minim_iter=5 pbc="T T T"
P        0.44779882       4.32342021       0.12585415       0.00000000 NULL
P        5.01379505       1.88554164       3.01414426       0.00000000 NULL
P        2.73079694       5.60581353       3.68126397       0.00000000 NULL
P        0.04829967       3.39167626       6.43034981       0.00000000 NULL
P        4.61429589      -0.06524911       0.66881036       0.00000000 NULL
P        2.33129778      -3.32642596       6.54336528       0.00000000 NULL
P        1.77424999       5.81450063       0.86457535       0.00000000 NULL
P        6.34024621       1.77975276       1.35347014       0.00000000 NULL
P        4.05724810       4.22052200       4.60321690       0.00000000 NULL
P        2.96678055       1.34084527       3.28507414       0.00000000 NULL
P        0.68378244      -1.76372225       4.01751993       0.00000000 NULL
P        5.24977866       0.42287817       6.33993138       0.00000000 NULL
P        5.02358361       2.50065357       5.90704150       0.00000000 NULL
P        2.74058550      -0.07293605       1.70211280       0.00000000 NULL
P        0.45758739      -2.42771632       6.03337114       0.00000000 NULL
15
Lattice="6.784739146283096 -7.740765484626639e-47 -1.0865891213350192e-43 -8.911908877754627e-47 7.901900392046533 -2.1846384277976314e-16 9.301827289555876e-44 -3.9509501960232667 6.843246477686512" Properties=species:S:1:pos:R:3:initial_magmoms:R:1:castep_labels:S:1 n_minim_iter=6 pbc="T T T"
P        0.44302905       4.32964408       0.12379910       0.00000000 NULL
P        4.96618849       1.89334212       3.03176518       0.00000000 NULL
P        2.70460877       5.62986559       3.68768153       0.00000000 NULL
P        0.05624295       3.39158557       6.45668217       0.00000000 NULL
P        4.57940238      -0.05509141       0.67770614       0.00000000 NULL
P        2.31782267      -3.33649297       6.55210398       0.00000000 NULL
P        1.74887622       5.82820956       0.86661803       0.00000000 NULL
P        6.27203565       1.78735944       1.36255994       0.00000000 NULL
P        4.01045594       4.23728279       4.61406784       0.00000000 NULL
P        2.94301052       1.34994289       3.29800721       0.00000000 NULL
P        0.68143080      -1.76976282       4.02515804       0.00000000 NULL
P        5.20459023       0.41982113       6.36332703       0.00000000 NULL
P        4.97329101       2.50436148       5.91717321       0.00000000 NULL
P        2.71171129      -0.07870783       1.71581922       0.00000000 NULL
P        0.45013157      -2.42565246       6.05349985       0.00000000 NULL
15
Lattice="6.795773678800849 -4.057889999093558e-47 -6.90271933954736e-44 -4.643201297341646e-47 7.896563830706424 6.506068304553502e-16 1.2428717010311548e-43 -3.948281915353213 6.838624879997123" Properties=species:S:1:pos:R:3:initial_magmoms:R:1:castep_labels:S:1 n_minim_iter=7 pbc="T T T"
P        0.44464424       4.31523404       0.12053163       0.00000000 NULL
P        4.97516003       1.89504914       3.04125678       0.00000000 NULL
P        2.70990214       5.63456376       3.67683580       0.00000000 NULL
P        0.06888435       3.37581084       6.45980494       0.00000000 NULL
P        4.59940013      -0.04183136       0.68518447       0.00000000 NULL
P        2.33414224      -3.33397828       6.53225967       0.00000000 NULL
P        1.73923422       5.81750317       0.86459884       0.00000000 NULL
P        6.26975000       1.78829568       1.36821994       0.00000000 NULL
P        4.00449211       4.23904810       4.60580543       0.00000000 NULL
P        2.95174972       1.35500993       3.29878528       0.00000000 NULL
P        0.68649183      -1.76895424       4.01575922       0.00000000 NULL
P        5.21700761       0.41394550       6.36270458       0.00000000 NULL
P        4.97646844       2.49711069       5.90221839       0.00000000 NULL
P        2.71121054      -0.08536540       1.72495441       0.00000000 NULL
P        0.44595265      -2.41174408       6.05007630       0.00000000 NULL
15
Lattice="6.723106656003255 5.1242870299112016e-46 -7.043635008369137e-44 5.962882182301101e-46 7.836121534004208 -5.12441445385237e-16 1.23439143328861e-43 -3.918060767002104 6.786280315589929" Properties=species:S:1:pos:R:3:initial_magmoms:R:1:castep_labels:S:1 n_minim_iter=8 pbc="T T T"
P        0.44100692       4.26873900       0.11549297       0.00000000 NULL
P        4.92307802       1.88371190       3.03169742       0.00000000 NULL
P        2.68204247       5.60173259       3.63908926       0.00000000 NULL
P        0.08095057       3.33602216       6.41770692       0.00000000 NULL
P        4.56302168      -0.02817383       0.68834692       0.00000000 NULL
P        2.32198612      -3.30784714       6.46650612       0.00000000 NULL
P        1.70614930       5.76580091       0.85586823       0.00000000 NULL
P        6.18822040       1.77636473       1.36501614       0.00000000 NULL
P        3.94718485       4.21201785       4.56539527       0.00000000 NULL
P        2.92442394       1.35126155       3.27671671       0.00000000 NULL
P        0.68338838      -1.75597084       3.97769514       0.00000000 NULL
P        5.16545949       0.40471048       6.31814811       0.00000000 NULL
P        4.91958529       2.47384459       5.84657614       0.00000000 NULL
P        2.67854973      -0.09169881       1.72058000       0.00000000 NULL
P        0.43751418      -2.38214459       6.00540383       0.00000000 NULL
15
Lattice="6.786427894381152 3.5527085103350883e-47 -2.0567170391815673e-44 4.206492804465061e-47 7.88842337010026 1.1219252432616576e-15 1.2621436749543043e-43 -3.9442116850501314 6.83157503431368" Properties=species:S:1:pos:R:3:initial_magmoms:R:1:castep_labels:S:1 n_minim_iter=9 pbc="T T T"
P        0.44575394       4.29378713       0.11508834       0.00000000 NULL
P        4.97003921       1.89698834       3.05550214       0.00000000 NULL
P        2.70789657       5.64186078       3.66098389       0.00000000 NULL
P        0.08456714       3.35550093       6.46187182       0.00000000 NULL
P        4.60885241      -0.02581621       0.69469009       0.00000000 NULL
P        2.34670978      -3.32968353       6.50658749       0.00000000 NULL
P        1.71952518       5.80302051       0.86121331       0.00000000 NULL
P        6.24381045       1.78853483       1.37540521       0.00000000 NULL
P        3.98166781       4.24108092       4.59495584       0.00000000 NULL
P        2.95204073       1.36165731       3.29965470       0.00000000 NULL
P        0.68989810      -1.76745475       4.00251787       0.00000000 NULL
P        5.21418336       0.40579864       6.36097682       0.00000000 NULL
P        4.96509272       2.48961770       5.88339323       0.00000000 NULL
P        2.70295009      -0.09385174       1.73380625       0.00000000 NULL
P        0.44080746      -2.39576476       6.04594991       0.00000000 NULL
15
Lattice="6.771602582500665 1.5540271302800279e-46 3.568574304233246e-44 1.813818567624437e-46 7.875525828404761 -3.869683150000699e-16 1.6873626417479544e-43 -3.9377629142023807 6.820405435559009" Properties=species:S:1:pos:R:3:initial_magmoms:R:1:castep_labels:S:1 n_minim_iter=10 pbc="T T T"
P        0.44506619       4.28437447       0.11409639       0.00000000 NULL
P        4.95946791       1.89438684       3.05298012       0.00000000 NULL
P        2.70226705       5.63452863       3.65332825       0.00000000 NULL
P        0.08633568       3.34795986       6.45232415       0.00000000 NULL
P        4.60073740      -0.02386543       0.69482508       0.00000000 NULL
P        2.34353654      -3.32409324       6.49366097       0.00000000 NULL
P        1.71331440       5.79247593       0.85935398       0.00000000 NULL
P        6.22771612       1.78574811       1.37429715       0.00000000 NULL
P        3.97051526       4.23506589       4.58675364       0.00000000 NULL
P        2.94612620       1.36044564       3.29473561       0.00000000 NULL
P        0.68892534      -1.76466020       3.99485716       0.00000000 NULL
P        5.20332706       0.40421576       6.35121743       0.00000000 NULL
P        4.95392694       2.48511916       5.87236746       0.00000000 NULL
P        2.69672608      -0.09470231       1.73204539       0.00000000 NULL
P        0.43952522      -2.39041566       6.03639735       0.00000000 NULL
15
Lattice="6.769572975292476 1.751803836888642e-46 5.363762792401748e-44 2.0436584716249823e-46 7.873936238667949 -6.118796858003842e-17 2.2725195237506383e-43 -3.936968119333975 6.819028810465334" Properties=species:S:1:pos:R:3:initial_magmoms:R:1:castep_labels:S:1 n_minim_iter=11 pbc="T T T"
P        0.44531047       4.28072381       0.11311237       0.00000000 NULL
P        4.95835912       1.89456519       3.05525706       0.00000000 NULL
P        2.70183480       5.63561655       3.65065870       0.00000000 NULL
P        0.08853446       3.34498792       6.45213807       0.00000000 NULL
P        4.60158311      -0.02174582       0.69611527       0.00000000 NULL
P        2.34505878      -3.32324091       6.48980361       0.00000000 NULL
P        1.71011961       5.79016030       0.85869288       0.00000000 NULL
P        6.22316826       1.78553861       1.37525646       0.00000000 NULL
P        3.96664393       4.23520664       4.58507880       0.00000000 NULL
P        2.94570319       1.36130890       3.29467670       0.00000000 NULL
P        0.68917887      -1.76434806       3.99276238       0.00000000 NULL
P        5.20222752       0.40304035       6.35061787       0.00000000 NULL
P        4.95206106       2.48413856       5.86958385       0.00000000 NULL
P        2.69553674      -0.09582788       1.73290980       0.00000000 NULL
P        0.43901241      -2.38830948       6.03556330       0.00000000 NULL
15
Lattice="6.733178810828745 6.3168619980799796e-46 5.846728782659601e-45 7.349501984144107e-46 7.846709897465658 -1.61120620899563e-15 2.6324111496566667e-43 -3.923354948732828 6.795450107332048" Properties=species:S:1:pos:R:3:initial_magmoms:R:1:castep_labels:S:1 n_minim_iter=12 pbc="T T T"
P        0.45202715       4.20093980       0.09004074       0.00000000 NULL
P        4.94081302       1.90086341       3.11230916       0.00000000 NULL
P        2.69642008       5.66826283       3.59309954       0.00000000 NULL
P        0.13880873       3.28123461       6.45493401       0.00000000 NULL
P        4.62759460       0.02616537       0.72635059       0.00000000 NULL
P        2.38320166      -3.30739878       6.40961495       0.00000000 NULL
P        1.63905370       5.74430691       0.84408941       0.00000000 NULL
P        6.12783957       1.78220516       1.39868970       0.00000000 NULL
P        3.88344663       4.24355397       4.55267032       0.00000000 NULL
P        2.93973479       1.38250368       3.29705908       0.00000000 NULL
P        0.69534186      -1.75926908       3.94963727       0.00000000 NULL
P        5.18412773       0.37676659       6.34420320       0.00000000 NULL
P        4.91758109       2.46512448       5.81341712       0.00000000 NULL
P        2.67318815      -0.12134949       1.75388113       0.00000000 NULL
P        0.42879521      -2.34377380       6.02360129       0.00000000 NULL
15
Lattice="6.8546254010478 -4.6292701862129154e-45 5.102053192212618e-44 -5.4082463828086964e-45 8.117888376196044 -3.1161231005706254e-15 2.513006160299631e-43 -4.058944188098019 7.030297558872179" Properties=species:S:1:pos:R:3:initial_magmoms:R:1:castep_labels:S:1 n_minim_iter=13 pbc="T T T"
P        0.47883857       4.27006121       0.06121963       0.00000000 NULL
P        5.04858884       1.97693215       3.30170627       0.00000000 NULL
P        2.76371371       5.92984043       3.66737097       0.00000000 NULL
P        0.17268849       3.36537759       6.68577614       0.00000000 NULL
P        4.74243876       0.04841981       0.77290701       0.00000000 NULL
P        2.45756362      -3.41379617       6.60191128       0.00000000 NULL
P        1.61136556       5.93648091       0.85444562       0.00000000 NULL
P        6.18111583       1.83067616       1.46193148       0.00000000 NULL
P        3.89624070       4.40967673       4.71391977       0.00000000 NULL
P        2.98437347       1.44381957       3.41608442       0.00000000 NULL
P        0.69949834      -1.82243727       4.07187094       0.00000000 NULL
P        5.26924861       0.37861893       6.57263907       0.00000000 NULL
P        5.02188264       2.54983609       6.00472869       0.00000000 NULL
P        2.73700750      -0.13361384       1.81971039       0.00000000 NULL
P        0.45213237      -2.41622103       6.23615535       0.00000000 NULL
15
Lattice="6.64696004095665 -5.557856218177188e-46 5.039752174552614e-44 -5.646610665545143e-46 7.903980903161321 -2.3066426066738586e-15 2.297035584084331e-43 -3.9519904515806585 6.845048253164774" Properties=species:S:1:pos:R:3:initial_magmoms:R:1:castep_labels:S:1 n_minim_iter=14 pbc="T T T"
P        0.46415843       4.15535040       0.05881789       0.00000000 NULL
P        4.89546512       1.92525383       3.21700031       0.00000000 NULL
P        2.67981177       5.77536832       3.56922938       0.00000000 NULL
P        0.16840290       3.27569623       6.50962720       0.00000000 NULL
P        4.59970959       0.04766476       0.75339852       0.00000000 NULL
P        2.38405625      -3.32335978       6.42707012       0.00000000 NULL
P        1.55853282       5.78000693       0.82978821       0.00000000 NULL
P        5.98983952       1.78060545       1.42452132       0.00000000 NULL
P        3.77418617       4.29536017       4.59073805       0.00000000 NULL
P        2.89527950       1.40565364       3.32473635       0.00000000 NULL
P        0.67962616      -1.77551034       3.96534832       0.00000000 NULL
P        5.11093285       0.36985790       6.40001116       0.00000000 NULL
P        4.87166451       2.48175869       5.84685529       0.00000000 NULL
P        2.65601116      -0.12934379       1.77235455       0.00000000 NULL
P        0.44035782      -2.35241370       6.07088600       0.00000000 NULL
15
Lattice="6.670907906729387 -4.235696665787758e-46 7.156823165583219e-44 -4.1010175645681195e-46 7.8964952836456 6.884634912529051e-16 2.857934187089585e-43 -3.948247641822801 6.838565516501093" Properties=species:S:1:pos:R:3:initial_magmoms:R:1:castep_labels:S:1 n_minim_iter=15 pbc="T T T"
P        0.46704216       4.14856623       0.05768116       0.00000000 NULL
P        4.91431410       1.92391867       3.21696120       0.00000000 NULL
P        2.69067813       5.77225922       3.56392248       0.00000000 NULL
P        0.17026610       3.27181413       6.50359371       0.00000000 NULL
P        4.61753804       0.04812346       0.75329452       0.00000000 NULL
P        2.39390207      -3.31993639       6.42024213       0.00000000 NULL
P        1.56165258       5.77443785       0.82784316       0.00000000 NULL
P        6.00892452       1.77796272       1.42383408       0.00000000 NULL
P        3.78528855       4.29234356       4.58688761       0.00000000 NULL
P        2.90505196       1.40441684       3.32125178       0.00000000 NULL
P        0.68141599      -1.77416686       3.96167897       0.00000000 NULL
P        5.12868793       0.36975121       6.39419961       0.00000000 NULL
P        4.88990248       2.47888421       5.84104108       0.00000000 NULL
P        2.66626651      -0.12919899       1.77126829       0.00000000 NULL
P        0.44263054      -2.34968402       6.06482099       0.00000000 NULL
15
Lattice="6.678402202958026 -1.684182982678797e-46 6.22882154453586e-45 -1.0928550748338782e-46 7.884665686108877 -1.7651722905867479e-15 3.4972668047549972e-43 -3.9423328430544373 6.8283207845177465" Properties=species:S:1:pos:R:3:initial_magmoms:R:1:castep_labels:S:1 n_minim_iter=16 pbc="T T T"
P        0.46891157       4.13856844       0.05602114       0.00000000 NULL
P        4.92117970       1.92156515       3.21620482       0.00000000 NULL
P        2.69504563       5.76686614       3.55609415       0.00000000 NULL
P        0.17201481       3.26588055       6.49396760       0.00000000 NULL
P        4.62428294       0.04866859       0.75300147       0.00000000 NULL
P        2.39814888      -3.31454794       6.40967182       0.00000000 NULL
P        1.55994922       5.76564831       0.82499840       0.00000000 NULL
P        6.01221736       1.77397905       1.42262369       0.00000000 NULL
P        3.78608329       4.28737237       4.58069803       0.00000000 NULL
P        2.90775713       1.40255801       3.31581981       0.00000000 NULL
P        0.68162306      -1.77202687       3.95576002       0.00000000 NULL
P        5.13389120       0.36947005       6.38506107       0.00000000 NULL
P        4.89651001       2.47457573       5.83196555       0.00000000 NULL
P        2.67037595      -0.12898960       1.76929258       0.00000000 NULL
P        0.44424188      -2.34558493       6.05538277       0.00000000 NULL
15
Lattice="6.685697111237773 -1.1296699719432845e-46 3.360794313167786e-44 -4.399111285973147e-47 7.8825547861664 -1.5904195601454922e-15 3.2154622898657903e-43 -3.941277393083199 6.826492691542714" Properties=species:S:1:pos:R:3:initial_magmoms:R:1:castep_labels:S:1 n_minim_iter=17 pbc="T T T"
P        0.47128130       4.13164179       0.05346272       0.00000000 NULL
P        4.92841271       1.92175736       3.22165459       0.00000000 NULL
P        2.69984701       5.77043422       3.55137471       0.00000000 NULL
P        0.17448206       3.26346611       6.49233120       0.00000000 NULL
P        4.63161347       0.04951409       0.75408255       0.00000000 NULL
P        2.40304776      -3.31297901       6.40657096       0.00000000 NULL
P        1.55637775       5.76391870       0.82233699       0.00000000 NULL
P        6.01350916       1.77148356       1.42362419       0.00000000 NULL
P        3.78494346       4.28843112       4.58053084       0.00000000 NULL
P        2.91026119       1.40270292       3.31430958       0.00000000 NULL
P        0.68169548      -1.77235177       3.95456155       0.00000000 NULL
P        5.13882689       0.36965005       6.38411359       0.00000000 NULL
P        4.90366919       2.47312801       5.82989110       0.00000000 NULL
P        2.67510348      -0.12900682       1.76975547       0.00000000 NULL
P        0.44653778      -2.34412000       6.05333815       0.00000000 NULL
15
Lattice="6.678371626409086 -9.827523507782409e-47 1.7121719627876235e-44 -2.663140829268879e-47 7.881942666284922 1.5430228541936325e-15 3.160580509556216e-43 -3.9409713331424623 6.825962580175191" Properties=species:S:1:pos:R:3:initial_magmoms:R:1:castep_labels:S:1 n_minim_iter=18 pbc="T T T"
P        0.47283605       4.12414509       0.05020200       0.00000000 NULL
P        4.92508380       1.92237579       3.22924717       0.00000000 NULL
P        2.69895993       5.77639432       3.54651274       0.00000000 NULL
P        0.17699225       3.26136043       6.49186528       0.00000000 NULL
P        4.62924000       0.05046950       0.75560897       0.00000000 NULL
P        2.40311612      -3.31182873       6.40445024       0.00000000 NULL
P        1.54803643       5.76323986       0.81917136       0.00000000 NULL
P        6.00028418       1.76877540       1.42526478       0.00000000 NULL
P        3.77416030       4.29089993       4.58152577       0.00000000 NULL
P        2.90651558       1.40334639       3.31326162       0.00000000 NULL
P        0.68039171      -1.77327500       3.95399816       0.00000000 NULL
P        5.13263946       0.36992981       6.38466471       0.00000000 NULL
P        4.90071662       2.47202309       5.82878962       0.00000000 NULL
P        2.67459274      -0.12910220       1.77073298       0.00000000 NULL
P        0.44846887      -2.34291970       6.05240188       0.00000000 NULL
15
Lattice="6.683918828434056 -3.0644530927862193e-46 1.1680576723356035e-44 -2.7221047641785525e-46 7.890734696988267 -1.886896500878716e-15 3.1806879691324294e-43 -3.945367348494132 6.833576702115141" Properties=species:S:1:pos:R:3:initial_magmoms:R:1:castep_labels:S:1 n_minim_iter=19 pbc="T T T"
P        0.47481122       4.12335806       0.04781398       0.00000000 NULL
P        4.93075710       1.92509723       3.23873689       0.00000000 NULL
P        2.70278416       5.78764795       3.54702516       0.00000000 NULL
P        0.17915332       3.26367407       6.49908444       0.00000000 NULL
P        4.63509920       0.05116863       0.75760984       0.00000000 NULL
P        2.40712626      -3.31484151       6.41045845       0.00000000 NULL
P        1.54438723       5.76950824       0.81775398       0.00000000 NULL
P        6.00033312       1.76880975       1.42815902       0.00000000 NULL
P        3.77236017       4.29778526       4.58766303       0.00000000 NULL
P        2.90846924       1.40549396       3.31637039       0.00000000 NULL
P        0.68049630      -1.77605253       3.95819804       0.00000000 NULL
P        5.13644218       0.37055976       6.39258430       0.00000000 NULL
P        4.90658638       2.47406816       5.83473039       0.00000000 NULL
P        2.67861344      -0.12937590       1.77360564       0.00000000 NULL
P        0.45064049      -2.34469106       6.05881670       0.00000000 NULL
15
Lattice="6.677011043218133 -2.391755452658777e-46 7.428440759756791e-45 -1.9264313194447825e-46 7.887906914744577 -1.6941335271990103e-15 3.0598373374436693e-43 -3.9439534573722868 6.831127770855734" Properties=species:S:1:pos:R:3:initial_magmoms:R:1:castep_labels:S:1 n_minim_iter=20 pbc="T T T"
P        0.47514729       4.11890900       0.04642609       0.00000000 NULL
P        4.92648799       1.92470592       3.24083490       0.00000000 NULL
P        2.70081764       5.78824664       3.54386610       0.00000000 NULL
P        0.18006559       3.26177918       6.49672083       0.00000000 NULL
P        4.63140629       0.05148303       0.75798373       0.00000000 NULL
P        2.40573594      -3.31326101       6.40755030       0.00000000 NULL
P        1.53994248       5.76733198       0.81609376       0.00000000 NULL
P        5.99128317       1.76704619       1.42842489       0.00000000 NULL
P        3.76561283       4.29748340       4.58660844       0.00000000 NULL
P        2.90530639       1.40531012       3.31479651       0.00000000 NULL
P        0.67963605      -1.77590974       3.95669526       0.00000000 NULL
P        5.13097674       0.37060082       6.39076310       0.00000000 NULL
P        4.90259684       2.47275293       5.83232663       0.00000000 NULL
P        2.67692649      -0.12938611       1.77349761       0.00000000 NULL
P        0.45125615      -2.34336563       6.05643063       0.00000000 NULL
15
Lattice="6.6777654512678355 -3.0212562092907494e-46 -2.1941541796724858e-45 -2.6693297110533467e-46 7.890647964876524 -1.1853295095401462e-16 3.121494411065488e-43 -3.9453239824382615 6.8335015899030465" Properties=species:S:1:pos:R:3:initial_magmoms:R:1:castep_labels:S:1 n_minim_iter=21 pbc="T T T"
P        0.47597234       4.11766361       0.04521691       0.00000000 NULL
P        4.92781597       1.92565196       3.24489185       0.00000000 NULL
P        2.70189415       5.79265757       3.54339216       0.00000000 NULL
P        0.18107464       3.26228088       6.49893681       0.00000000 NULL
P        4.63291827       0.05178074       0.75881508       0.00000000 NULL
P        2.40699645      -3.31406043       6.40925062       0.00000000 NULL
P        1.53760596       5.76924566       0.81517173       0.00000000 NULL
P        5.98944960       1.76666138       1.42960243       0.00000000 NULL
P        3.76352778       4.30006611       4.58872675       0.00000000 NULL
P        2.90544585       1.40609121       3.31562138       0.00000000 NULL
P        0.67952404      -1.77695645       3.95798020       0.00000000 NULL
P        5.13136767       0.37086643       6.39340093       0.00000000 NULL
P        4.90409001       2.47322526       5.83404482       0.00000000 NULL