16
Lattice="6.44508 -4.0851658260882327e-16 1.1077436388193417e-15 1.025004123455806 6.949304016014738 -1.645500653854058e-15 2.32466651682879 2.683753374047243 7.925020134638467" Properties=species:S:1:pos:R:3:initial_magmoms:R:1:castep_labels:S:1 n_minim_iter=1 pbc="T T T"
P        6.81580503       3.39416715       2.99572894       0.00000000 NULL
P        5.13397747       8.31342138       5.69782795       0.00000000 NULL
P        6.64583835       7.76263797       4.48264974       0.00000000 NULL
P        6.31690478       5.82370570       1.25420180       0.00000000 NULL
P        7.95449200       5.27128888       5.29483513       0.00000000 NULL
P        2.21706642       1.40784432       1.02599213       0.00000000 NULL
P        3.35720453       7.58108511       2.89889787       0.00000000 NULL
P        7.26550545       8.60939305       7.52314078       0.00000000 NULL
P        2.00274576       3.28846972       1.83133743       0.00000000 NULL
P        6.94085234       3.25737623       5.06957119       0.00000000 NULL
P        4.08782863       5.13115014       7.29457290       0.00000000 NULL
P        5.13603717       2.90456834       0.24331080       0.00000000 NULL
P        3.06881964       4.16191731       0.36730170       0.00000000 NULL
P        7.37782307       1.66999172       3.90530410       0.00000000 NULL
P        6.32192049       4.61063201       6.45134758       0.00000000 NULL
P        6.12931476       0.98908310       2.48862116       0.00000000 NULL
16
Lattice="6.454847992535222 -0.002249368370982497 -0.007567270735192488 1.0241322472296832 6.960740636948439 -0.000724422200816256 2.3179481831987205 2.6880432292077416 7.946782706683748" Properties=species:S:1:pos:R:3:initial_magmoms:R:1:castep_labels:S:1 n_minim_iter=2 pbc="T T T"
P        6.82099869       3.39807848       2.99693166       0.00000000 NULL
P        5.13203774       8.32617605       5.71000818       0.00000000 NULL
P        6.64785319       7.77355667       4.48929123       0.00000000 NULL
P        6.32298951       5.83147749       1.25099349       0.00000000 NULL
P        7.95853475       5.27781641       5.30207016       0.00000000 NULL
P        2.21875871       1.40930423       1.02662682       0.00000000 NULL
P        3.35650022       7.59264356       2.90440845       0.00000000 NULL
P        7.26465154       8.62199127       7.53831879       0.00000000 NULL
P        2.00266468       3.29350000       1.83497437       0.00000000 NULL
P        6.94438750       3.26097467       5.07746567       0.00000000 NULL
P        4.08359383       5.13908764       7.31223335       0.00000000 NULL
P        5.14240983       2.90773653       0.23816000       0.00000000 NULL
P        3.07183571       4.16813676       0.36485803       0.00000000 NULL
P        7.38423568       1.67036401       3.90896750       0.00000000 NULL
P        6.32219137       4.61686348       6.46431016       0.00000000 NULL
P        6.13504746       0.98868872       2.48867847       0.00000000 NULL
16
Lattice="6.595200604510778 -0.03750344270951338 -0.12342729779073747 1.0084413210706729 7.12564392188182 -0.011983397665948171 2.2114276635836227 2.7493500795443064 8.269835157542445" Properties=species:S:1:pos:R:3:initial_magmoms:R:1:castep_labels:S:1 n_minim_iter=3 pbc="T T T"
P        6.89042040       3.45214075       3.01150640       0.00000000 NULL
P        5.09408777       8.50858938       5.88908759       0.00000000 NULL
P        6.66818502       7.92857240       4.58513532       0.00000000 NULL
P        6.40638884       5.94120732       1.20005434       0.00000000 NULL
P        8.00830331       5.36888986       5.40599376       0.00000000 NULL
P        2.24129981       1.42935875       1.03507649       0.00000000 NULL
P        3.33994431       7.75812874       2.98483022       0.00000000 NULL
P        7.24009632       8.80130029       7.76097865       0.00000000 NULL
P        1.99813042       3.36541213       1.88821442       0.00000000 NULL
P        6.98811935       3.31044809       5.19192218       0.00000000 NULL
P        4.01236779       5.25253573       7.57317005       0.00000000 NULL
P        5.23219281       2.95138072       0.15886743       0.00000000 NULL
P        3.11316775       4.25685744       0.32670514       0.00000000 NULL
P        7.47167192       1.67255238       3.96004216       0.00000000 NULL
P        6.31671640       4.70469609       6.65459309       0.00000000 NULL
P        6.21400708       0.98037684       2.48630793       0.00000000 NULL
16
Lattice="6.579230621391664 -0.07044234853714534 -0.2010481335391552 0.9703856616995398 7.116431978287174 -0.0359678916262112 2.096507217156688 2.7226606488488923 8.34102425739457" Properties=species:S:1:pos:R:3:initial_magmoms:R:1:castep_labels:S:1 n_minim_iter=4 pbc="T T T"
P        6.81550184       3.41389521       2.96065756       0.00000000 NULL
P        4.97164252       8.46775305       5.88897593       0.00000000 NULL
P        6.55642147       7.88007160       4.55287680       0.00000000 NULL
P        6.34580965       5.90367828       1.12927451       0.00000000 NULL
P        7.89670442       5.31502667       5.37102335       0.00000000 NULL
P        2.21611217       1.41382113       1.02022901       0.00000000 NULL
P        3.26009214       7.72843609       2.97000290       0.00000000 NULL
P        7.08696296       8.74629742       7.75853985       0.00000000 NULL
P        1.95679170       3.34979177       1.88325741       0.00000000 NULL
P        6.89447043       3.26787549       5.17307812       0.00000000 NULL
P        3.88820385       5.21887268       7.60785873       0.00000000 NULL
P        5.19870846       2.92321380       0.09371317       0.00000000 NULL
P        3.08303820       4.23960254       0.28400675       0.00000000 NULL
P        7.40289373       1.62514292       3.92224621       0.00000000 NULL
P        6.19939618       4.66156082       6.65841155       0.00000000 NULL
P        6.15979511       0.94299808       2.43864491       0.00000000 NULL
16
Lattice="6.5138820939045825 -0.11840260652332671 -0.31482065606577386 0.9082804708301491 7.0450799323045015 -0.07791614736041294 1.9130685988996694 2.653548607992467 8.399237709342204" Properties=species:S:1:pos:R:3:initial_magmoms:R:1:castep_labels:S:1 n_minim_iter=5 pbc="T T T"
P        6.66111180       3.32726095       2.86624597       0.00000000 NULL
P        4.76067298       8.33265519       5.84901819       0.00000000 NULL
P        6.34872961       7.73987593       4.47433101       0.00000000 NULL
P        6.21631852       5.79915444       1.01271843       0.00000000 NULL
P        7.68107721       5.18703383       5.28620809       0.00000000 NULL
P        2.16458090       1.37825293       0.99207588       0.00000000 NULL
P        3.12128828       7.61875487       2.92495562       0.00000000 NULL
P        6.81501041       8.58669156       7.70539126       0.00000000 NULL
P        1.88400761       3.29792398       1.86227855       0.00000000 NULL
P        6.71203035       3.17459696       5.11508408       0.00000000 NULL
P        3.68031146       5.12037576       7.61291404       0.00000000 NULL
P        5.11523176       2.85793929      -0.00631051       0.00000000 NULL
P        3.01975069       4.17925126       0.21428130       0.00000000 NULL
P        7.25612955       1.53809974       3.84476108       0.00000000 NULL
P        5.98661334       4.55472560       6.62462767       0.00000000 NULL
P        6.03948694       0.87762402       2.35291774       0.00000000 NULL
16
Lattice="6.357635092114144 -0.18227590398599358 -0.4736880900106893 0.8145611091331294 6.870532614682754 -0.14154401432875538 1.6347679472792263 2.5232764218851362 8.567545906598712" Properties=species:S:1:pos:R:3:initial_magmoms:R:1:castep_labels:S:1 n_minim_iter=6 pbc="T T T"
P        6.37430221       3.17379665       2.76281176       0.00000000 NULL
P        4.42188165       8.04976673       5.84998399       0.00000000 NULL
P        5.99115790       7.45711176       4.41418485       0.00000000 NULL
P        5.97603738       5.59127814       0.85999064       0.00000000 NULL
P        7.30124759       4.95107404       5.22582052       0.00000000 NULL
P        2.07005026       1.31032741       0.96577022       0.00000000 NULL
P        2.89809326       7.37923615       2.88921449       0.00000000 NULL
P        6.36283971       8.26776273       7.70970711       0.00000000 NULL
P        1.76784093       3.19136517       1.85053083       0.00000000 NULL
P        6.38832293       3.01158314       5.09339178       0.00000000 NULL
P        3.35216537       4.92653665       7.69238759       0.00000000 NULL
P        4.94380363       2.73867562      -0.14711432       0.00000000 NULL
P        2.90619747       4.05207948       0.11287353       0.00000000 NULL
P        6.98838978       1.39712889       3.78625040       0.00000000 NULL
P        5.62694730       4.35805507       6.65088610       0.00000000 NULL
P        5.80435791       0.77507762       2.25104014       0.00000000 NULL
16
Lattice="6.237590187146301 -0.14095402061941545 -0.5251334376052108 0.8400242232351693 6.840987689264472 -0.12028573691009799 1.545417304198357 2.557806355976207 8.897639243763964" Properties=species:S:1:pos:R:3:initial_magmoms:R:1:castep_labels:S:1 n_minim_iter=7 pbc="T T T"
P        6.23527776       3.22060604       2.84042678       0.00000000 NULL
P        4.34185104       8.05939706       6.08538639       0.00000000 NULL
P        5.87079594       7.47023360       4.59629453       0.00000000 NULL
P        5.88881724       5.60376450       0.88909961       0.00000000 NULL
P        7.14276573       5.00074223       5.41609564       0.00000000 NULL
P        2.02707678       1.31167245       1.00206195       0.00000000 NULL
P        2.86407841       7.36374034       3.01657554       0.00000000 NULL
P        6.21494144       8.29922679       8.00909763       0.00000000 NULL
P        1.74775630       3.20140449       1.92450504       0.00000000 NULL
P        6.23794562       3.06521233       5.28127101       0.00000000 NULL
P        3.25183644       4.96229800       7.97699471       0.00000000 NULL
P        4.85424054       2.76038235      -0.17029607       0.00000000 NULL
P        2.88271752       4.05632382       0.11200311       0.00000000 NULL
P        6.85404229       1.44777832       3.91716957       0.00000000 NULL
P        5.48505491       4.41280047       6.90684448       0.00000000 NULL
P        5.66426576       0.81529809       2.28932500       0.00000000 NULL
16
Lattice="6.132332171567269 -0.12187349150655095 -0.5649182568306593 0.843857612052129 6.732964391387787 -0.14469278788030157 1.466476803308718 2.501180747129176 8.864104143601951" Properties=species:S:1:pos:R:3:initial_magmoms:R:1:castep_labels:S:1 n_minim_iter=8 pbc="T T T"
P        6.11418259       3.17934798       2.78108336       0.00000000 NULL
P        4.24996945       7.92579788       6.02312868       0.00000000 NULL
P        5.75454387       7.35159420       4.53186647       0.00000000 NULL
P        5.79587431       5.52545976       0.83300053       0.00000000 NULL
P        6.99477357       4.92797901       5.34837465       0.00000000 NULL
P        1.98689716       1.29133156       0.98501841       0.00000000 NULL
P        2.81377768       7.24243042       2.97021848       0.00000000 NULL
P        6.07308796       8.16239466       7.93180620       0.00000000 NULL
P        1.71690654       3.15140513       1.89868321       0.00000000 NULL
P        6.10206530       3.02119650       5.22586696       0.00000000 NULL
P        3.15612576       4.87463529       7.92276684       0.00000000 NULL
P        4.77463173       2.72939914      -0.21251032       0.00000000 NULL
P        2.84506866       3.99917802       0.07916112       0.00000000 NULL
P        6.71804465       1.43256477       3.86417315       0.00000000 NULL
P        5.35565632       4.34399269       6.84999166       0.00000000 NULL
P        5.55121666       0.81058989       2.24102845       0.00000000 NULL
16
Lattice="6.102193830240709 -0.105752641467198 -0.5893796065130575 0.8564465580056643 6.739791316857287 -0.13235878581066468 1.4322407820300933 2.5271439461360905 8.950594503917465" Properties=species:S:1:pos:R:3:initial_magmoms:R:1:castep_labels:S:1 n_minim_iter=9 pbc="T T T"
P        6.07814444       3.20716391       2.79338286       0.00000000 NULL
P        4.22654141       7.95650532       6.08695449       0.00000000 NULL
P        5.72340403       7.38103069       4.57808763       0.00000000 NULL
P        5.77687651       5.54681568       0.83747127       0.00000000 NULL
P        6.95034831       4.96558699       5.39212754       0.00000000 NULL
P        1.97513755       1.29750207       0.99209880       0.00000000 NULL
P        2.80670480       7.25969234       3.00617983       0.00000000 NULL
P        6.03045384       8.20242680       8.00928038       0.00000000 NULL
P        1.71107090       3.16496820       1.91856072       0.00000000 NULL
P        6.05750955       3.05249038       5.26774503       0.00000000 NULL
P        3.12233016       4.90584804       7.99729373       0.00000000 NULL
P        4.75531964       2.74535270      -0.22408373       0.00000000 NULL
P        2.84155545       4.01171794       0.07993689       0.00000000 NULL
P        6.67622073       1.46083745       3.88753955       0.00000000 NULL
P        5.31280016       4.38004925       6.91255466       0.00000000 NULL
P        5.51491817       0.83118912       2.24334408       0.00000000 NULL
16
Lattice="6.054986285550216 -0.0896312475554346 -0.6129810947466001 0.8663214609531521 6.720003754780067 -0.1298709251218992 1.3929056267431288 2.531444515243117 9.004842066910905" Properties=species:S:1:pos:R:3:initial_magmoms:R:1:castep_labels:S:1 n_minim_iter=10 pbc="T T T"
P        6.02486517       3.21730726       2.79058619       0.00000000 NULL
P        4.19028790       7.94723637       6.11885940       0.00000000 NULL
P        5.67533619       7.37437523       4.59786975       0.00000000 NULL
P        5.74127150       5.54416680       0.82986636       0.00000000 NULL
P        6.88536142       4.97527292       5.41050678       0.00000000 NULL
P        1.95743485       1.29732080       0.99403441       0.00000000 NULL
P        2.79078591       7.24403745       3.02117727       0.00000000 NULL
P        5.96968804       8.19857277       8.04830329       0.00000000 NULL
P        1.70005475       3.16293823       1.92701921       0.00000000 NULL
P        5.99528701       3.06395147       5.28730615       0.00000000 NULL
P        3.07878480       4.90691518       8.03872850       0.00000000 NULL
P        4.72266061       2.74979338      -0.24027748       0.00000000 NULL
P        2.82968447       4.00767145       0.07394311       0.00000000 NULL
P        6.61468484       1.47738376       3.89510653       0.00000000 NULL
P        5.25429942       4.38894656       6.94579082       0.00000000 NULL
P        5.46340842       0.84458769       2.23647621       0.00000000 NULL
16
Lattice="5.86469539028703 -0.030181812400412327 -0.7030787261526701 0.9001586276247455 6.647547259849679 -0.11886562073215089 1.2382386880131917 2.5501451324822413 9.223906201551499" Properties=species:S:1:pos:R:3:initial_magmoms:R:1:castep_labels:S:1 n_minim_iter=11 pbc="T T T"
P        5.81071131       3.25626097       2.78305313       0.00000000 NULL
P        4.04085737       7.91589070       6.25050208       0.00000000 NULL
P        5.47863455       7.35112771       4.68261176       0.00000000 NULL
P        5.59353035       5.53502007       0.80455339       0.00000000 NULL
P        6.62284655       5.01401190       5.49053038       0.00000000 NULL
P        1.88560996       1.29677395       1.00351053       0.00000000 NULL
P        2.72208924       7.18744726       3.08322059       0.00000000 NULL
P        5.72379436       8.18692953       8.21000928       0.00000000 NULL
P        1.65330608       3.15683189       1.96234213       0.00000000 NULL
P        5.74545575       3.10761373       5.37083478       0.00000000 NULL
P        2.90452617       4.91359929       8.20790116       0.00000000 NULL
P        4.59025444       2.76649714      -0.30184163       0.00000000 NULL
P        2.77752886       3.99368146       0.05294704       0.00000000 NULL
P        6.36629870       1.54048501       3.93099345       0.00000000 NULL
P        5.01984425       4.42425695       7.08321629       0.00000000 NULL
P        5.25854103       0.89456735       2.21294510       0.00000000 NULL
16
Lattice="5.632720789915569 -0.0014593309445610813 -0.772614601210111 0.89423571182126 6.584610923406837 -0.1032325248480207 1.0810253191131867 2.564875030824357 9.359254880756021" Properties=species:S:1:pos:R:3:initial_magmoms:R:1:castep_labels:S:1 n_minim_iter=12 pbc="T T T"
P        5.54807388       3.27065660       2.75981521       0.00000000 NULL
P        3.83590952       7.87977561       6.33299091       0.00000000 NULL
P        5.21579059       7.31269584       4.74044763       0.00000000 NULL
P        5.38109577       5.50755339       0.78750723       0.00000000 NULL
P        6.29971766       5.02855581       5.53740892       0.00000000 NULL
P        1.79589753       1.28974571       1.00910971       0.00000000 NULL
P        2.60459385       7.13160591       3.12128204       0.00000000 NULL
P        5.41514603       8.15919870       8.30861125       0.00000000 NULL
P        1.58144980       3.14787431       1.98422073       0.00000000 NULL
P        5.45084510       3.12354568       5.41770605       0.00000000 NULL
P        2.70176811       4.91199722       8.30970487       0.00000000 NULL
P        4.41686751       2.76406709      -0.35096824       0.00000000 NULL
P        2.68307321       3.97479151       0.04127836       0.00000000 NULL
P        6.07071162       1.57407539       3.94633265       0.00000000 NULL
P        4.74427274       4.43826852       7.16419767       0.00000000 NULL
P        5.02137938       0.91869008       2.18070743       0.00000000 NULL
16
Lattice="5.5271276973222525 -0.004441711878014189 -0.8206549080457348 0.8742268326274094 6.620756610381239 -0.08155427242307045 0.9826257491156953 2.6113764774547086 9.533712389705936" Properties=species:S:1:pos:R:3:initial_magmoms:R:1:castep_labels:S:1 n_minim_iter=13 pbc="T T T"
P        5.41180627       3.30299477       2.77804900       0.00000000 NULL
P        3.70788194       7.94570150       6.45753581       0.00000000 NULL
P        5.06134788       7.36158586       4.83888850       0.00000000 NULL
P        5.26746741       5.53725746       0.79876179       0.00000000 NULL
P        6.12551480       5.08407769       5.63004595       0.00000000 NULL
P        1.74843402       1.29544755       1.02645413       0.00000000 NULL
P        2.52682616       7.17550265       3.18545783       0.00000000 NULL
P        5.23329622       8.22882584       8.46108299       0.00000000 NULL
P        1.53640675       3.17705589       2.02260300       0.00000000 NULL
P        5.29405607       3.15548223       5.50451229       0.00000000 NULL
P        2.57739093       4.96889205       8.45916068       0.00000000 NULL
P        4.33390241       2.77822084      -0.37940216       0.00000000 NULL
P        2.62731632       4.00364474       0.04433384       0.00000000 NULL
P        5.92404804       1.59788541       3.99842731       0.00000000 NULL
P        4.59090023       4.49025597       7.28761980       0.00000000 NULL
P        4.90557271       0.92917061       2.18249474       0.00000000 NULL
16
Lattice="5.456216480218565 -0.009295889922985703 -0.8291216314971445 0.8577154085779223 6.574291053841328 -0.09871272475246795 0.9446167092586559 2.573947217519868 9.493368287853931" Properties=species:S:1:pos:R:3:initial_magmoms:R:1:castep_labels:S:1 n_minim_iter=14 pbc="T T T"
P        5.33037890       3.26986749       2.74471772       0.00000000 NULL
P        3.63864397       7.87455448       6.40797465       0.00000000 NULL
P        4.97298848       7.29223589       4.80063420       0.00000000 NULL
P        5.19260524       5.49019484       0.77449169       0.00000000 NULL
P        6.02610371       5.03452225       5.59062860       0.00000000 NULL
P        1.72038258       1.28138716       1.01948431       0.00000000 NULL
P        2.48117060       7.11451535       3.14904382       0.00000000 NULL
P        5.13617069       8.14781963       8.40196849       0.00000000 NULL
P        1.51017988       3.15084699       2.00379616       0.00000000 NULL
P        5.20734567       3.11550523       5.47044122       0.00000000 NULL
P        2.51864497       4.91598243       8.41155409       0.00000000 NULL
P        4.27724038       2.75452322      -0.39757025       0.00000000 NULL
P        2.58931499       3.97596946       0.02920410       0.00000000 NULL
P        5.83770259       1.57385334       3.97273413       0.00000000 NULL
P        4.50961374       4.44111312       7.24408577       0.00000000 NULL
P        4.83583849       0.91217943       2.15860372       0.00000000 NULL
16
Lattice="5.436931508018483 -0.011958766913609361 -0.8427847709370521 0.85177718627642 6.58640592781863 -0.09498585096512145 0.9197514958829643 2.5845571207898517 9.538899682809138" Properties=species:S:1:pos:R:3:initial_magmoms:R:1:castep_labels:S:1 n_minim_iter=15 pbc="T T T"
P        5.30192436       3.27705515       2.74752058       0.00000000 NULL
P        3.60838191       7.89255703       6.43819617       0.00000000 NULL
P        4.93741204       7.30446492       4.82505921       0.00000000 NULL
P        5.16922708       5.49811483       0.77572162       0.00000000 NULL
P        5.98834066       5.04849599       5.61360043       0.00000000 NULL
P        1.71010906       1.28250573       1.02444026       0.00000000 NULL
P        2.46304505       7.12711449       3.16283470       0.00000000 NULL
P        5.09408389       8.16527868       8.43897347       0.00000000 NULL
P        1.49967803       3.15902211       2.01266599       0.00000000 NULL
P        5.17324418       3.12138845       5.49198752       0.00000000 NULL
P        2.48853417       4.92989550       8.44929212       0.00000000 NULL
P        4.26205593       2.75757413      -0.40747723       0.00000000 NULL
P        2.57726524       3.98535124       0.02850647       0.00000000 NULL
P        5.80835400       1.57823172       3.98532980       0.00000000 NULL
P        4.47511945       4.45314190       7.27446395       0.00000000 NULL
P        4.81255870       0.91280248       2.15733198       0.00000000 NULL
16
Lattice="5.404479779375712 -0.01600935158095568 -0.8545373851495479 0.8422486932293017 6.582383558999862 -0.09651906845955024 0.8919085642939716 2.5821745405458945 9.55995420246395" Properties=species:S:1:pos:R:3:initial_magmoms:R:1:castep_labels:S:1 n_minim_iter=16 pbc="T T T"
P        5.25975949       3.27256324       2.74044643       0.00000000 NULL
P        3.56763608       7.88593438       6.44643294       0.00000000 NULL
P        4.88751954       7.29347031       4.83298660       0.00000000 NULL
P        5.13212283       5.49021277       0.77088078       0.00000000 NULL
P        5.93461461       5.04481023       5.61991712       0.00000000 NULL
P        1.69512883       1.27918496       1.02665639       0.00000000 NULL
P        2.43743228       7.11915446       3.16267536       0.00000000 NULL
P        5.03747889       8.15515135       8.44933107       0.00000000 NULL
P        1.48489089       3.15778513       2.01395981       0.00000000 NULL
P        5.12565300       3.11396662       5.49835194       0.00000000 NULL
P        2.45108167       4.92539040       8.46290840       0.00000000 NULL
P        4.23620852       2.75261110      -0.41951296       0.00000000 NULL
P        2.55807494       3.98466879       0.02421675       0.00000000 NULL
P        5.76482826       1.57438122       3.98759832       0.00000000 NULL
P        4.42864460       4.44803521       7.28412524       0.00000000 NULL
P        4.77746630       0.90792445       2.14961122       0.00000000 NULL
16
Lattice="5.192553757054676 -0.04947669810018978 -0.9394448937696539 0.7724590533306338 6.5667659434817125 -0.10146596243950878 0.6971291127321374 2.5758852832743178 9.728465707082123" Properties=species:S:1:pos:R:3:initial_magmoms:R:1:castep_labels:S:1 n_minim_iter=17 pbc="T T T"
P        4.97694646       3.24523841       2.69649237       0.00000000 NULL
P        3.28533247       7.85698610       6.52332548       0.00000000 NULL
P        4.54482828       7.22769922       4.90773075       0.00000000 NULL
P        4.88209362       5.44159390       0.74530051       0.00000000 NULL
P        5.57035693       5.03056741       5.68210915       0.00000000 NULL
P        1.59341626       1.25703276       1.04855076       0.00000000 NULL
P        2.26073851       7.07624408       3.17063545       0.00000000 NULL
P        4.64843108       8.10049193       8.54439789       0.00000000 NULL
P        1.38269704       3.15658479       2.02927063       0.00000000 NULL
P        4.80362117       3.06620174       5.55761990       0.00000000 NULL
P        2.19163323       4.90673924       8.57741057       0.00000000 NULL
P        4.06647049       2.71900161      -0.50568420       0.00000000 NULL
P        2.42749133       3.98878113      -0.00287008       0.00000000 NULL
P        5.47545534       1.54961070       4.01303771       0.00000000 NULL
P        4.11146717       4.42205269       7.36842643       0.00000000 NULL
P        4.54420144       0.87237744       2.09662155       0.00000000 NULL
16
Lattice="5.256867328820429 -0.06935820991293945 -0.9588674218392517 0.7612503493842535 6.6054754342637265 -0.10552215543840729 0.6881651598309686 2.5837814560573995 9.732675212229625" Properties=species:S:1:pos:R:3:initial_magmoms:R:1:castep_labels:S:1 n_minim_iter=18 pbc="T T T"
P        5.02135538       3.24823375       2.65858735       0.00000000 NULL
P        3.29367094       7.89424118       6.51259582       0.00000000 NULL
P        4.55479544       7.22651425       4.92005746       0.00000000 NULL
P        4.92731461       5.45154547       0.74902843       0.00000000 NULL
P        5.61348213       5.06558244       5.69140882       0.00000000 NULL
P        1.59978557       1.25001352       1.07340397       0.00000000 NULL
P        2.27945928       7.09368557       3.13494506       0.00000000 NULL
P        4.66499024       8.11602600       8.52747465       0.00000000 NULL
P        1.39149614       3.18109233       2.02206589       0.00000000 NULL
P        4.83806476       3.05201435       5.56011844       0.00000000 NULL
P        2.19269594       4.92349594       8.55882468       0.00000000 NULL
P        4.12337312       2.71703851      -0.54365097       0.00000000 NULL
P        2.44543411       4.03223010      -0.01857593       0.00000000 NULL
P        5.55054768       1.55037296       4.01190051       0.00000000 NULL
P        4.14056156       4.43140332       7.35145790       0.00000000 NULL
P        4.58793987       0.85478868       2.05693399       0.00000000 NULL
16
Lattice="5.1608738270195955 -0.07344973781511563 -0.9325010286702239 0.7415722373277661 6.504313647443424 -0.12126047141732643 0.6842584069994019 2.5207592646029684 9.63182152363474" Properties=species:S:1:pos:R:3:initial_magmoms:R:1:castep_labels:S:1 n_minim_iter=19 pbc="T T T"
P        4.93034508       3.18521597       2.63585294       0.00000000 NULL
P        3.23456468       7.75502274       6.43552258       0.00000000 NULL
P        4.46992928       7.09506030       4.86756817       0.00000000 NULL
P        4.83476117       5.35928191       0.74469554       0.00000000 NULL
P        5.51287450       4.97022422       5.64341430       0.00000000 NULL
P        1.56951682       1.22581204       1.06968701       0.00000000 NULL
P        2.23653236       6.97313738       3.08732328       0.00000000 NULL
P        4.58195865       7.96393252       8.43545454       0.00000000 NULL
P        1.36642723       3.12730491       1.99675022       0.00000000 NULL
P        4.75306663       2.98542076       5.51461858       0.00000000 NULL
P        2.15843847       4.82616299       8.46472442       0.00000000 NULL
P        4.04672827       2.67205285      -0.53486611       0.00000000 NULL
P        2.39909140       3.96994133      -0.02552921       0.00000000 NULL
P        5.45551026       1.51170032       3.98725524       0.00000000 NULL
P        4.06955973       4.34156297       7.27864972       0.00000000 NULL
P        4.50682966       0.82978936       2.04562855       0.00000000 NULL
16
Lattice="5.177816206654262 -0.07253459505225499 -0.9422667901223205 0.7452534351195439 6.545153450212028 -0.11105512474782626 0.6787421905973884 2.5502144787721845 9.713287030189147" Properties=species:S:1:pos:R:3:initial_magmoms:R:1:castep_labels:S:1 n_minim_iter=20 pbc="T T T"
P        4.94362314       3.21171501       2.65922602       0.00000000 NULL
P        3.23992425       7.81470051       6.50068580       0.00000000 NULL
P        4.48058737       7.14574843       4.91758537       0.00000000 NULL
P        4.85063797       5.39586415       0.76025089       0.00000000 NULL
P        5.52625006       5.01452544       5.69703004       0.00000000 NULL
P        1.57327793       1.23459556       1.08190272       0.00000000 NULL
P        2.24340687       7.02050446       3.12156913       0.00000000 NULL
P        4.59007226       8.02654865       8.51519539       0.00000000 NULL
P        1.37005071       3.15187412       2.01777175       0.00000000 NULL
P        4.76299007       3.01346228       5.56401208       0.00000000 NULL
P        2.15882136       4.86908274       8.53820073       0.00000000 NULL
P        4.06137177       2.69033105      -0.53661660       0.00000000 NULL
P        2.40772373       3.99815599      -0.02070119       0.00000000 NULL
P        5.47118125       1.53030822       4.02060325       0.00000000 NULL
P        4.07683606       4.38080769       7.34175379       0.00000000 NULL
P        4.51887968       0.83962215       2.05943977       0.00000000 NULL
16