8
Lattice="2.9459599999999995 1.0492874870987283e-15 5.26240682890032e-16 1.2583860844906507 6.270048856967566 -5.557333397020415e-16 0.8815859334720947 1.0027034681831128 9.906473019112182" Properties=species:S:1:pos:R:3:initial_magmoms:R:1:castep_labels:S:1 n_minim_iter=1 pbc="T T T"
P        2.20525145       2.13593788       8.85906955       0.00000000 NULL
P        3.42294247       1.38912151       5.28860133       0.00000000 NULL
P        1.86035190       5.90730842       6.51507321       0.00000000 NULL
P        1.21838704       3.13846123       3.55164196       0.00000000 NULL
P        1.95006901       1.44317527       6.70997515       0.00000000 NULL
P        1.59385912       1.06665359       1.28727286       0.00000000 NULL
P        0.76942019       2.66857383       0.24662462       0.00000000 NULL
P        3.20048432       3.60127542       7.80318515       0.00000000 NULL
8
Lattice="2.9486357845991065 0.0002141621171074207 0.00041162412201335225 1.2599848764098176 6.274144017328708 0.00046986319991078687 0.8838437436324174 1.003872389567294 9.915833553740276" Properties=species:S:1:pos:R:3:initial_magmoms:R:1:castep_labels:S:1 n_minim_iter=2 pbc="T T T"
P        2.20857953       2.13770604       8.86782441       0.00000000 NULL
P        3.42692041       1.39062212       5.29356093       0.00000000 NULL
P        1.86337110       5.91126783       6.52174419       0.00000000 NULL
P        1.22021880       3.14064946       3.55529176       0.00000000 NULL
P        1.95289531       1.44459095       6.71665195       0.00000000 NULL
P        1.59557131       1.06747243       1.28887407       0.00000000 NULL
P        0.77029836       2.67055393       0.24715947       0.00000000 NULL
P        3.20482148       3.60434481       7.81095568       0.00000000 NULL
8
Lattice="3.0412295310822945 0.008002200200733764 0.015324116472320707 1.3161126111277248 6.414418831641954 0.018070703916423625 0.9643501457356 1.045848072336639 10.240477950376102" Properties=species:S:1:pos:R:3:initial_magmoms:R:1:castep_labels:S:1 n_minim_iter=3 pbc="T T T"
P        2.32596940       2.20008639       9.17216838       0.00000000 NULL
P        3.56594885       1.44356161       5.46585961       0.00000000 NULL
P        1.97006981       6.04794620       6.75431111       0.00000000 NULL
P        1.28482579       3.21622721       3.68258598       0.00000000 NULL
P        2.05239843       1.49462087       6.94866992       0.00000000 NULL
P        1.65524663       1.09604761       1.34496301       0.00000000 NULL
P        0.80107605       2.73858146       0.26638995       0.00000000 NULL
P        3.35721916       3.71146395       8.08143628       0.00000000 NULL
8
Lattice="3.0456620028316967 0.014843791730817252 0.03378679588659252 1.3325673063450303 6.382433003923784 0.05519960332014835 1.030090253468862 1.0885150334669462 10.272357132738838" Properties=species:S:1:pos:R:3:initial_magmoms:R:1:castep_labels:S:1 n_minim_iter=4 pbc="T T T"
P        2.38856364       2.23392106       9.22051402       0.00000000 NULL
P        3.60946202       1.47039079       5.49486195       0.00000000 NULL
P        2.02720260       6.04505083       6.80933159       0.00000000 NULL
P        1.31638824       3.21483845       3.71389667       0.00000000 NULL
P        2.09992838       1.52280159       6.98221577       0.00000000 NULL
P        1.66766645       1.10268119       1.36414143       0.00000000 NULL
P        0.80894971       2.72760297       0.28585492       0.00000000 NULL
P        3.42090562       3.73782336       8.13490219       0.00000000 NULL
8
Lattice="3.060153919519145 0.03755930618971067 0.09677127973068651 1.387104303373335 6.280451462454689 0.1681208733663469 1.2539584950113223 1.213356267889307 10.395335335480777" Properties=species:S:1:pos:R:3:initial_magmoms:R:1:castep_labels:S:1 n_minim_iter=5 pbc="T T T"
P        2.59974930       2.33059761       9.39873319       0.00000000 NULL
P        3.76015256       1.55193780       5.59511269       0.00000000 NULL
P        2.22058039       6.02591811       6.99610449       0.00000000 NULL
P        1.42203823       3.20384643       3.81952862       0.00000000 NULL
P        2.25797642       1.60580279       7.10305752       0.00000000 NULL
P        1.71130939       1.12404465       1.43163802       0.00000000 NULL
P        0.83371341       2.69419436       0.34670885       0.00000000 NULL
P        3.63875680       3.81587414       8.32183045       0.00000000 NULL
8
Lattice="3.05427854648082 0.031006444278346465 0.12489415291345858 1.3706477825754166 6.17582866966966 0.19693740992235254 1.3445395826077338 1.2216609539466137 10.372644815366385" Properties=species:S:1:pos:R:3:initial_magmoms:R:1:castep_labels:S:1 n_minim_iter=6 pbc="T T T"
P        2.66582326       2.30733675       9.41749921       0.00000000 NULL
P        3.82002928       1.54452500       5.57737519       0.00000000 NULL
P        2.26711868       5.92915434       7.01534880       0.00000000 NULL
P        1.44130845       3.14385212       3.83059324       0.00000000 NULL
P        2.29987257       1.59653717       7.09552027       0.00000000 NULL
P        1.72611698       1.11499156       1.45745815       0.00000000 NULL
P        0.81935582       2.65858711       0.36254491       0.00000000 NULL
P        3.70915577       3.78232559       8.33109827       0.00000000 NULL
8
Lattice="3.0749514750627767 0.023365562688654515 0.1394205229205325 1.3632158502937577 6.148276303739155 0.22710188095693395 1.3969735997404382 1.253345322860613 10.383241883977979" Properties=species:S:1:pos:R:3:initial_magmoms:R:1:castep_labels:S:1 n_minim_iter=7 pbc="T T T"
P        2.71627955       2.32356803       9.44562284       0.00000000 NULL
P        3.87298357       1.55296246       5.58931079       0.00000000 NULL
P        2.29797196       5.92198206       7.05113119       0.00000000 NULL
P        1.45700434       3.13644722       3.85086473       0.00000000 NULL
P        2.33779641       1.61163637       7.10859265       0.00000000 NULL
P        1.74472156       1.11409945       1.47467512       0.00000000 NULL
P        0.81479990       2.65162378       0.37826457       0.00000000 NULL
P        3.76420145       3.79406168       8.36037443       0.00000000 NULL
8
Lattice="3.0766314688697602 0.022181861682520062 0.14147622107939492 1.3614141346181352 6.1412217329521415 0.23077340151307082 1.4039862123185616 1.2563572986656848 10.37790903488929" Properties=species:S:1:pos:R:3:initial_magmoms:R:1:castep_labels:S:1 n_minim_iter=8 pbc="T T T"
P        2.72244874       2.32401364       9.44327824       0.00000000 NULL
P        3.87883306       1.55278692       5.58768202       0.00000000 NULL
P        2.30139572       5.91752724       7.05113983       0.00000000 NULL
P        1.45863153       3.13353253       3.85097799       0.00000000 NULL
P        2.34237163       1.61230443       7.10572896       0.00000000 NULL
P        1.74664120       1.11329174       1.47598864       0.00000000 NULL
P        0.81377101       2.64905375       0.37999996       0.00000000 NULL
P        3.77043186       3.79299019       8.35888237       0.00000000 NULL
8
Lattice="3.1005775407234384 0.007127467143605363 0.1674299261910087 1.3396017591370812 6.054819268052245 0.2758224074541677 1.4933034827250724 1.2927231424248264 10.316545594432387" Properties=species:S:1:pos:R:3:initial_magmoms:R:1:castep_labels:S:1 n_minim_iter=9 pbc="T T T"
P        2.80234351       2.32866640       9.41854674       0.00000000 NULL
P        3.95562326       1.54974569       5.57052225       0.00000000 NULL
P        2.34629499       5.86253865       7.05401158       0.00000000 NULL
P        1.48025014       3.09750888       3.85381712       0.00000000 NULL
P        2.40180285       1.61987494       7.07349164       0.00000000 NULL
P        1.77249631       1.10310060       1.49321684       0.00000000 NULL
P        0.80125133       2.61767291       0.40146598       0.00000000 NULL
P        3.85190748       3.77926686       8.34412875       0.00000000 NULL
8
Lattice="3.1059256961907904 0.005793053919467357 0.16988721921807456 1.339046153598335 6.049530067259913 0.2783194576755258 1.5027129604283909 1.2938559710513895 10.317131924306713" Properties=species:S:1:pos:R:3:initial_magmoms:R:1:castep_labels:S:1 n_minim_iter=10 pbc="T T T"
P        2.81216404       2.32742548       9.42166020       0.00000000 NULL
P        3.96646565       1.54876949       5.57211604       0.00000000 NULL
P        2.35280431       5.85823549       7.05701967       0.00000000 NULL
P        1.48367481       3.09453195       3.85552265       0.00000000 NULL
P        2.40947300       1.61938746       7.07457209       0.00000000 NULL
P        1.77682120       1.10230417       1.49549239       0.00000000 NULL
P        0.80078667       2.61589703       0.40295769       0.00000000 NULL
P        3.86313970       3.77770094       8.34677254       0.00000000 NULL
8
Lattice="3.1195973581563408 0.002201469144843032 0.17653235135717746 1.3372419258282562 6.03380940179456 0.2848300928889668 1.5279275840521533 1.2963143176017822 10.315699056109095" Properties=species:S:1:pos:R:3:initial_magmoms:R:1:castep_labels:S:1 n_minim_iter=11 pbc="T T T"
P        2.83820531       2.32333709       9.42724440       0.00000000 NULL
P        3.99478393       1.54558447       5.57498241       0.00000000 NULL
P        2.36997029       5.84509553       7.06294250       0.00000000 NULL
P        1.49265154       3.08569318       3.85890428       0.00000000 NULL
P        2.42974085       1.61748421       7.07542786       0.00000000 NULL
P        1.78808228       1.09989697       1.50113056       0.00000000 NULL
P        0.79935691       2.61038402       0.40680217       0.00000000 NULL
P        3.89260306       3.77227319       8.35148014       0.00000000 NULL
8
Lattice="3.1271244020634876 5.655445178781898e-06 0.18060805004415995 1.3357836806831849 6.02263890556303 0.28830501825886923 1.5431381724829842 1.2967604381896347 10.311520774945011" Properties=species:S:1:pos:R:3:initial_magmoms:R:1:castep_labels:S:1 n_minim_iter=12 pbc="T T T"
P        2.85362569       2.31966341       9.42750274       0.00000000 NULL
P        4.01102051       1.54281883       5.57516212       0.00000000 NULL
P        2.38001866       5.83515384       7.06394733       0.00000000 NULL
P        1.49784617       3.07928369       3.85950567       0.00000000 NULL
P        2.44167227       1.61540366       7.07367680       0.00000000 NULL
P        1.79450532       1.09809978       1.50396551       0.00000000 NULL
P        0.79828740       2.60620762       0.40885464       0.00000000 NULL
P        3.90965013       3.76731821       8.35158011       0.00000000 NULL
8
Lattice="3.179756964955201 -0.015316762606706788 0.20930116106013535 1.325654478298155 5.943152744816688 0.3098449948899245 1.6501606084564706 1.295178128633739 10.279073776684797" Properties=species:S:1:pos:R:3:initial_magmoms:R:1:castep_labels:S:1 n_minim_iter=13 pbc="T T T"
P        2.96232038       2.28968804       9.42556216       0.00000000 NULL
P        4.12452171       1.52062358       5.57526635       0.00000000 NULL
P        2.45113228       5.76163487       7.06655375       0.00000000 NULL
P        1.53454465       3.03246076       3.86106125       0.00000000 NULL
P        2.52550466       1.59754834       7.05901903       0.00000000 NULL
P        1.83973347       1.08479980       1.52284251       0.00000000 NULL
P        0.79064738       2.57603705       0.42196483       0.00000000 NULL
P        4.02911368       3.72802550       8.34872405       0.00000000 NULL
8
Lattice="3.228908853739171 -0.028652224305795775 0.2359713903184931 1.3182674317967296 5.8667859743078 0.3090373163078096 1.7500153269935457 1.2606102040078309 10.247523447587954" Properties=species:S:1:pos:R:3:initial_magmoms:R:1:castep_labels:S:1 n_minim_iter=14 pbc="T T T"
P        3.06525508       2.23133857       9.41746283       0.00000000 NULL
P        4.22875448       1.48282147       5.57433163       0.00000000 NULL
P        2.52099046       5.67007020       7.05102591       0.00000000 NULL
P        1.57021649       2.97672541       3.85104250       0.00000000 NULL
P        2.60424855       1.55883572       7.04226243       0.00000000 NULL
P        1.88306814       1.06933577       1.53610446       0.00000000 NULL
P        0.78340299       2.54519547       0.42619958       0.00000000 NULL
P        4.14006332       3.66408558       8.33513787       0.00000000 NULL
8
Lattice="3.320497327428797 -0.05214605761682607 0.2839081327321053 1.307386828561503 5.7215955864286885 0.2835864651200338 1.9306253173789105 1.1594020035718844 10.216559574069695" Properties=species:S:1:pos:R:3:initial_magmoms:R:1:castep_labels:S:1 n_minim_iter=15 pbc="T T T"
P        3.25576600       2.08615818       9.42024643       0.00000000 NULL
P        4.41844713       1.39317955       5.58473386       0.00000000 NULL
P        2.65366392       5.47293833       7.02163737       0.00000000 NULL
P        1.63627251       2.85942387       3.82780107       0.00000000 NULL
P        2.74706875       1.46343806       7.02668253       0.00000000 NULL
P        1.96515441       1.03875028       1.55930692       0.00000000 NULL
P        0.76794009       2.48579027       0.42797219       0.00000000 NULL
P        4.34084892       3.51423635       8.31844857       0.00000000 NULL
8
Lattice="3.322857629088486 -0.05009290130914246 0.29065935917971414 1.3127648924605095 5.6079739367057675 0.249518050720674 1.954733030430511 1.0833224950511013 10.184312234673715" Properties=species:S:1:pos:R:3:initial_magmoms:R:1:castep_labels:S:1 n_minim_iter=16 pbc="T T T"
P        3.28279409       1.97497274       9.39668009       0.00000000 NULL
P        4.43815646       1.34179389       5.56162133       0.00000000 NULL
P        2.68954635       5.32270759       6.98059415       0.00000000 NULL
P        1.64404399       2.77193957       3.78820519       0.00000000 NULL
P        2.75640605       1.40262633       6.99685094       0.00000000 NULL
P        1.98278082       1.03178217       1.55767614       0.00000000 NULL
P        0.75047226       2.44202581       0.43101272       0.00000000 NULL
P        4.36110452       3.41020666       8.27028068       0.00000000 NULL
8
Lattice="3.3448950867063747 -0.04440192387520693 0.2966038463483599 1.3342907572239784 5.61073559929819 0.2533607053232778 1.9832545233239713 1.0871377974774177 10.265499169302773" Properties=species:S:1:pos:R:3:initial_magmoms:R:1:castep_labels:S:1 n_minim_iter=17 pbc="T T T"
P        3.32316227       1.97438353       9.47458344       0.00000000 NULL
P        4.47849377       1.34956757       5.60784964       0.00000000 NULL
P        2.73194031       5.32537454       7.04028325       0.00000000 NULL
P        1.66547894       2.77240083       3.81445407       0.00000000 NULL
P        2.78504418       1.41023374       7.05288294       0.00000000 NULL
P        2.00427130       1.04095655       1.57456764       0.00000000 NULL
P        0.75406576       2.44634398       0.44106401       0.00000000 NULL
P        4.40667460       3.41962492       8.33628502       0.00000000 NULL
8
Lattice="3.341343152283032 -0.042214582692080935 0.2992332277377449 1.3374289638641577 5.581892061727907 0.2558105875702499 1.991777997830457 1.0851264821041835 10.248143523173079" Properties=species:S:1:pos:R:3:initial_magmoms:R:1:castep_labels:S:1 n_minim_iter=18 pbc="T T T"
P        3.33163285       1.96511788       9.46128512       0.00000000 NULL
P        4.48044524       1.34643575       5.60083769       0.00000000 NULL
P        2.74217271       5.29936751       7.03240777       0.00000000 NULL
P        1.66895768       2.75772803       3.80681832       0.00000000 NULL
P        2.78891345       1.40746110       7.04156919       0.00000000 NULL
P        2.00648426       1.04063875       1.57482191       0.00000000 NULL
P        0.75147828       2.43481795       0.44475750       0.00000000 NULL
P        4.41127671       3.40648325       8.32387168       0.00000000 NULL
8
Lattice="3.3439449148140032 -0.03900603878185443 0.3017537563813626 1.34536924439783 5.564839097367223 0.2566717501599397 2.0021245213263836 1.0827998871375346 10.257525343596942" Properties=species:S:1:pos:R:3:initial_magmoms:R:1:castep_labels:S:1 n_minim_iter=19 pbc="T T T"
P        3.34489951       1.95790336       9.47176666       0.00000000 NULL
P        4.48999782       1.34576851       5.60727456       0.00000000 NULL
P        2.75803073       5.28280533       7.04091766       0.00000000 NULL
P        1.67595394       2.74831982       3.80788204       0.00000000 NULL
P        2.79700554       1.40646651       7.04818711       0.00000000 NULL
P        2.01269642       1.04237756       1.57868532       0.00000000 NULL
P        0.75105104       2.42862234       0.44852628       0.00000000 NULL
P        4.42375253       3.39933465       8.33147777       0.00000000 NULL
8
Lattice="3.3523372876883895 -0.02801352986300767 0.3095431895418852 1.372350063289735 5.509566931951867 0.25898664451693476 2.0345712056433163 1.0748998371985568 10.289396755498808" Properties=species:S:1:pos:R:3:initial_magmoms:R:1:castep_labels:S:1 n_minim_iter=20 pbc="T T T"
P        3.38719282       1.93479143       9.50664780       0.00000000 NULL
P        4.52045861       1.34390309       5.62851201       0.00000000 NULL
P        2.80958650       5.22903189       7.06909092       0.00000000 NULL
P        1.69876661       2.71800139       3.81152644       0.00000000 NULL
P        2.82278188       1.40331600       7.07060491       0.00000000 NULL
P        2.03304738       1.04786270       1.59136302       0.00000000 NULL
P        0.75000571       2.40842408       0.46032579       0.00000000 NULL
P        4.46387980       3.37609300       8.35680332       0.00000000 NULL
8
Lattice="3.3608879396405986 -0.014759081733894695 0.3178665878799378 1.4042127018766999 5.451954167144764 0.2628928355320985 2.069630723306241 1.0693016833149667 10.336201523349189" Properties=species:S:1:pos:R:3:initial_magmoms:R:1:castep_labels:S:1 n_minim_iter=21 pbc="T T T"
P        3.43322448       1.91476220       9.55498378       0.00000000 NULL
P        4.55294467       1.34479005       5.65819496       0.00000000 NULL
P        2.86658865       5.17504826       7.10874503       0.00000000 NULL
P        1.72464104       2.68821312       3.82082286       0.00000000 NULL
P        2.85120077       1.40278369       7.10374981       0.00000000 NULL
P        2.05540686       1.05368459       1.60761227       0.00000000 NULL
P        0.75026841       2.38728290       0.47288738       0.00000000 NULL
P        4.50833840       3.35463208       8.39477300       0.00000000 NULL
8
Lattice="3.366717899494222 -0.0003732921673267877 0.3275097860077189 1.4373210753038241 5.3866267150547635 0.2692054293158855 2.1086992693019098 1.0656423878883097 10.386462338739843" Properties=species:S:1:pos:R:3:initial_magmoms:R:1:castep_labels:S:1 n_minim_iter=22 pbc="T T T"
P        3.48238959       1.89618338       9.60685982       0.00000000 NULL
P        4.58486292       1.34649238       5.69107430       0.00000000 NULL
P        2.92670251       5.11616535       7.15303294       0.00000000 NULL
P        1.75207663       2.65630407       3.83230147       0.00000000 NULL
P        2.88154607       1.40339595       7.14013983       0.00000000 NULL
P        2.07808703       1.05843465       1.62650294       0.00000000 NULL
P        0.75051921       2.36271885       0.48633439       0.00000000 NULL
P        4.55457939       3.33142156       8.43720289       0.00000000 NULL
8
Lattice="3.3748470254827527 0.015609467039711937 0.3368434107489771 1.4748104709915897 5.3266984595639855 0.2751502657356735 2.147958387850961 1.0628432210865386 10.45143852432235" Properties=species:S:1:pos:R:3:initial_magmoms:R:1:castep_labels:S:1 n_minim_iter=23 pbc="T T T"
P        3.53340429       1.88024620       9.67132594       0.00000000 NULL
P        4.61960211       1.35090122       5.73081705       0.00000000 NULL
P        2.99037095       5.06222363       7.20690517       0.00000000 NULL
P        1.78171044       2.62762071       3.84845619       0.00000000 NULL
P        2.91356995       1.40636274       7.18655158       0.00000000 NULL
P        2.10334931       1.06431116       1.64845180       0.00000000 NULL
P        0.75217796       2.34050141       0.49998285       0.00000000 NULL
P        4.60473089       3.31221145       8.49046606       0.00000000 NULL
8
Lattice="3.3749756576374423 0.027279302537326463 0.34380682457034245 1.4997029704268519 5.272729716256768 0.2816042747059941 2.175384984263345 1.0624051782036332 10.482350226036552" Properties=species:S:1:pos:R:3:initial_magmoms:R:1:castep_labels:S:1 n_minim_iter=24 pbc="T T T"
P        3.56728915       1.86815499       9.70346410       0.00000000 NULL
P        4.63823270       1.35349657       5.75124484       0.00000000 NULL
P        3.03373597       5.01516706       7.23751118       0.00000000 NULL
P        1.80107405       2.60265306       3.85448707       0.00000000 NULL
P        2.93336939       1.40902786       7.20950495       0.00000000 NULL
P        2.11964182       1.06753997       1.66400598       0.00000000 NULL
P        0.75087676       2.31983393       0.51086866       0.00000000 NULL
P        4.63514675       3.29435707       8.51695905       0.00000000 NULL
8
Lattice="3.382962329601687 0.04075842320063568 0.3503001298532914 1.5318028841965843 5.231620120501366 0.2845793102348337 2.2041980884081522 1.0592620125994245 10.540094133062176" Properties=species:S:1:pos:R:3:initial_magmoms:R:1:castep_labels:S:1 n_minim_iter=25 pbc="T T T"
P        3.60674986       1.85588517       9.75881348       0.00000000 NULL
P        4.66623057       1.35829358       5.78394091       0.00000000 NULL
P        3.08498943       4.97618299       7.28351335       0.00000000 NULL
P        1.82498813       2.58246949       3.86724381       0.00000000 NULL
P        2.95782119       1.41314222       7.24996767       0.00000000 NULL
P        2.14229184       1.07369651       1.68409481       0.00000000 NULL
P        0.75126664       2.30489523       0.52177165       0.00000000 NULL
P        4.67543460       3.28158536       8.56179079       0.00000000 NULL
8
Lattice="3.3783604633927857 0.04942796429585355 0.35509689337638645 1.5482890285551545 5.187320284237389 0.28884619035977604 2.221902010670125 1.0576839893167216 10.543704608133298" Properties=species:S:1:pos:R:3:initial_magmoms:R:1:castep_labels:S:1 n_minim_iter=26 pbc="T T T"
P        3.62734078       1.84502853       9.76432787       0.00000000 NULL
P        4.67380058       1.35898660       5.78811241       0.00000000 NULL
P        3.11367727       4.93635061       7.29345969       0.00000000 NULL
P        1.83698720       2.56162024       3.86371620       0.00000000 NULL
P        2.96831771       1.41455671       7.25353291       0.00000000 NULL
P        2.15271919       1.07562316       1.69451454       0.00000000 NULL
P        0.74804203       2.28743166       0.52950334       0.00000000 NULL
P        4.69193637       3.26507206       8.56533151       0.00000000 NULL
8
Lattice="3.3839295154084184 0.05689421039231213 0.3583802285952706 1.5665587081717274 5.1709516544007 0.28803147511430777 2.237150792233201 1.053287468795372 10.575612887486221" Properties=species:S:1:pos:R:3:initial_magmoms:R:1:castep_labels:S:1 n_minim_iter=27 pbc="T T T"
P        3.64869043       1.83713394       9.79394204       0.00000000 NULL
P        4.69009873       1.36122880       5.80532190       0.00000000 NULL
P        3.14204023       4.91793894       7.31693345       0.00000000 NULL
P        1.85040614       2.55249910       3.86951641       0.00000000 NULL
P        2.98174048       1.41607526       7.27536376       0.00000000 NULL
P        2.16607681       1.07955994       1.70588460       0.00000000 NULL
P        0.74844603       2.28162946       0.53440544       0.00000000 NULL
P        4.71496909       3.25887912       8.58878732       0.00000000 NULL
8
Lattice="3.3829515713038076 0.06363989039004118 0.36221612885366133 1.580498175071012 5.144471943731742 0.2894504307421496 2.2520532407988276 1.050263784534608 10.583597585174866" Properties=species:S:1:pos:R:3:initial_magmoms:R:1:castep_labels:S:1 n_minim_iter=28 pbc="T T T"
P        3.66649023       1.82859511       9.80218523       0.00000000 NULL
P        4.69928349       1.36200785       5.81096256       0.00000000 NULL
P        3.16617579       4.89209517       7.32655793       0.00000000 NULL
P        1.86099626       2.53933517       3.86778786       0.00000000 NULL
P        2.99166817       1.41703594       7.28132280       0.00000000 NULL
P        2.17588389       1.08193249       1.71502842       0.00000000 NULL
P        0.74670293       2.27130227       0.53967978       0.00000000 NULL
P        4.73119501       3.24839364       8.59493203       0.00000000 NULL
8
Lattice="3.387890875512989 0.07966176342572649 0.3706054161680938 1.6167082656349783 5.100222252919513 0.2882773906384442 2.2871955567846514 1.0393722739481166 10.625068846691958" Properties=species:S:1:pos:R:3:initial_magmoms:R:1:castep_labels:S:1 n_minim_iter=29 pbc="T T T"
P        3.71115960       1.80842029       9.84072249       0.00000000 NULL
P        4.72851328       1.36467145       5.83462487       0.00000000 NULL
P        3.22626010       4.84341541       7.36039651       0.00000000 NULL
P        1.88835341       2.51523681       3.86973228       0.00000000 NULL
P        3.01824152       1.41897691       7.30975457       0.00000000 NULL
P        2.20285294       1.08967772       1.73909091       0.00000000 NULL
P        0.74472708       2.25451843       0.55072633       0.00000000 NULL
P        4.77625443       3.22947404       8.62483805       0.00000000 NULL
8
Lattice="3.378126860757908 0.10738307984044031 0.39332853282268204 1.6715383067770948 4.98120929660353 0.2869582619369709 2.370120777798565 1.009321923078529 10.609918744380144" Properties=species:S:1:pos:R:3:initial_magmoms:R:1:castep_labels:S:1 n_minim_iter=30 pbc="T T T"
P        3.80178919       1.74993757       9.82619140       0.00000000 NULL
P        4.77354794       1.35662593       5.83351101       0.00000000 NULL
P        3.34362957       4.71052779       7.36852208       0.00000000 NULL
P        1.93669243       2.44926524       3.83227342       0.00000000 NULL
P        3.06541065       1.41682853       7.29859837       0.00000000 NULL
P        2.25550871       1.10313808       1.78985576       0.00000000 NULL
P        0.72393721       2.20717444       0.57693066       0.00000000 NULL
P        4.85354121       3.16715338       8.60953319       0.00000000 NULL
8
Lattice="3.431824059682397 0.11991150631747939 0.3889546817405154 1.7211403563686214 5.062168055066129 0.25856475540293145 2.375745957428633 0.9832532175845471 10.768618256450754" Properties=species:S:1:pos:R:3:initial_magmoms:R:1:castep_labels:S:1 n_minim_iter=31 pbc="T T T"
P        3.83587251       1.73686650       9.95923694       0.00000000 NULL
P        4.83878200       1.36578153       5.90181925       0.00000000 NULL
P        3.39881977       4.75252091       7.45539594       0.00000000 NULL
P        1.96639413       2.47607680       3.86343616       0.00000000 NULL
P        3.09094389       1.42244828       7.39604195       0.00000000 NULL
P        2.29862580       1.12580727       1.82035043       0.00000000 NULL
P        0.73421532       2.24340299       0.57972914       0.00000000 NULL
P        4.91708829       3.19385944       8.71253943       0.00000000 NULL
8
Lattice="3.391852835134762 0.11592076132142047 0.391054957185972 1.695572664053801 5.003426057768046 0.2687298848914816 2.3694888184586964 0.9875807046467178 10.634655064476792" Properties=species:S:1:pos:R:3:initial_magmoms:R:1:castep_labels:S:1 n_minim_iter=32 pbc="T T T"
P        3.81003448       1.72947093       9.83846188       0.00000000 NULL
P        4.79382892       1.35538081       5.83611041       0.00000000 NULL
P        3.37151954       4.70649250       7.37580362       0.00000000 NULL
P        1.94829965       2.45144151       3.82022909       0.00000000 NULL
P        3.06607353       1.41685661       7.30611635       0.00000000 NULL
P        2.27589102       1.11646496       1.80715771       0.00000000 NULL
P        0.72213227       2.21749240       0.58069419       0.00000000 NULL
P        4.87265782       3.16648131       8.61407409       0.00000000 NULL
8
Lattice="3.392781062013375 0.11712773270336416 0.3915367112681297 1.6985380258784806 5.0022850114888975 0.2677298862520085 2.3717974139476485 0.9857718712505233 10.63054012545712" Properties=species:S:1:pos:R:3:initial_magmoms:R:1:castep_labels:S:1 n_minim_iter=33 pbc="T T T"
P        3.81273024       1.72668933       9.83311118       0.00000000 NULL
P        4.79739079       1.35508317       5.83319089       0.00000000 NULL
P        3.37736590       4.70255419       7.37369306       0.00000000 NULL
P        1.95047234       2.45035202       3.81589564       0.00000000 NULL
P        3.06641291       1.41771322       7.30174087       0.00000000 NULL
P        2.27920925       1.11852050       1.81076458       0.00000000 NULL
P        0.72114691       2.21708907       0.58234586       0.00000000 NULL
P        4.87615118       3.16534161       8.60992600       0.00000000 NULL
8
Lattice="3.397087125533733 0.13114229010314457 0.39547599783859333 1.7302053431598963 4.9849890509405315 0.25442817997850115 2.3911028513815795 0.9625675949189039 10.580774007980981" Properties=species:S:1:pos:R:3:initial_magmoms:R:1:castep_labels:S:1 n_minim_iter=34 pbc="T T T"
P        3.83333846       1.69342913       9.76928927       0.00000000 NULL
P        4.82784468       1.35019992       5.79774782       0.00000000 NULL
P        3.43618125       4.65348565       7.34556935       0.00000000 NULL
P        1.97133890       2.43589163       3.76637585       0.00000000 NULL
P        3.06328388       1.42391227       7.24924147       0.00000000 NULL