6
Lattice="3.247310000000001 5.350923114890062e-16 9.53712766721667e-16 1.5062620654013104 5.857377723250652 1.172878423881597e-15 0.3765228571628246 2.4883419501894233 7.076425486173188" Properties=species:S:1:pos:R:3:initial_magmoms:R:1:castep_labels:S:1 n_minim_iter=1 pbc="T T T"
P        3.56876665       4.05494002       1.75859080       0.00000000 NULL
P        3.66846250       6.54662901       6.73066285       0.00000000 NULL
P        0.74039889       2.62492474       5.37667445       0.00000000 NULL
P        1.65510864       2.93225666       0.11413001       0.00000000 NULL
P        1.48088919       4.08323362       4.09041170       0.00000000 NULL
P        0.43450050       1.00682258       1.09443997       0.00000000 NULL
6
Lattice="3.2480362336718667 0.00023457449466566507 0.00022597400119948868 1.507022045092206 5.858234680572196 -0.0017563910120817253 0.3772792473177274 2.4864384124856875 7.07269641105067" Properties=species:S:1:pos:R:3:initial_magmoms:R:1:castep_labels:S:1 n_minim_iter=2 pbc="T T T"
P        3.57002401       4.05519167       1.75695876       0.00000000 NULL
P        3.67019611       6.54598955       6.72570359       0.00000000 NULL
P        0.74109431       2.62363212       5.37373664       0.00000000 NULL
P        1.65566363       2.93228566       0.11347625       0.00000000 NULL
P        1.48186142       4.08254879       4.08750547       0.00000000 NULL
P        0.43473813       1.00661736       1.09355184       0.00000000 NULL
6
Lattice="3.2969641718978737 0.016252992169437326 0.015536245992559936 1.558610658479309 5.917625059818965 -0.12023995624333768 0.4285905747523254 2.3586473431925 6.822502520277506" Properties=species:S:1:pos:R:3:initial_magmoms:R:1:castep_labels:S:1 n_minim_iter=3 pbc="T T T"
P        3.65520639       4.07324433       1.64710388       0.00000000 NULL
P        3.78756996       6.50560029       6.39224564       0.00000000 NULL
P        0.78824750       2.53701496       5.17646154       0.00000000 NULL
P        1.69312630       2.93428106       0.06976636       0.00000000 NULL
P        1.54785334       4.03745060       3.89231804       0.00000000 NULL
P        0.45074683       0.99322936       1.03398661       0.00000000 NULL
6
Lattice="3.2769723275539944 0.03349467015168224 0.04524774568883153 1.5804373592784549 5.938416529592649 -0.24292973044160815 0.5042307255065467 2.201207539903066 6.475814382998909" Properties=species:S:1:pos:R:3:initial_magmoms:R:1:castep_labels:S:1 n_minim_iter=4 pbc="T T T"
P        3.67629126       4.06137407       1.52848940       0.00000000 NULL
P        3.85759412       6.40850255       5.96736802       0.00000000 NULL
P        0.84495685       2.42443292       4.90977355       0.00000000 NULL
P        1.69754139       2.91876779       0.02729313       0.00000000 NULL
P        1.60323560       3.95764027       3.64437848       0.00000000 NULL
P        0.46020768       0.97130614       0.95392061       0.00000000 NULL
6
Lattice="3.266339784759162 0.039023403883302304 0.08012623733609711 1.585477988576785 6.0651590359754435 -0.42635030323438045 0.5832404387448233 2.0134623074531683 6.141585837497085" Properties=species:S:1:pos:R:3:initial_magmoms:R:1:castep_labels:S:1 n_minim_iter=5 pbc="T T T"
P        3.70000163       4.09214754       1.40395986       0.00000000 NULL
P        3.92021878       6.36102656       5.49033620       0.00000000 NULL
P        0.90209281       2.30054973       4.65473139       0.00000000 NULL
P        1.69836754       2.93849160      -0.03975989       0.00000000 NULL
P        1.65976343       3.91111618       3.37842690       0.00000000 NULL
P        0.46359364       0.95576094       0.85698899       0.00000000 NULL
6
Lattice="3.255217025387167 0.00954112128594682 0.0899935147526487 1.5271396544414675 6.041211553221223 -0.37524386836118634 0.5808615712135453 2.0618933370672456 5.865827041594138" Properties=species:S:1:pos:R:3:initial_magmoms:R:1:castep_labels:S:1 n_minim_iter=6 pbc="T T T"
P        3.66166076       4.06612074       1.41035904       0.00000000 NULL
P        3.86284736       6.38100162       5.24171915       0.00000000 NULL
P        0.89303324       2.33575357       4.46827549       0.00000000 NULL
P        1.67037761       2.89850571      -0.01424691       0.00000000 NULL
P        1.63696833       3.92685714       3.24800832       0.00000000 NULL
P        0.44491251       0.96098534       0.79099042       0.00000000 NULL
6
Lattice="3.3164400786403165 0.023982169328210706 0.09845563855784575 1.5815861457670266 6.158942445519864 -0.37949354190491486 0.6174665559996038 2.1008605813256636 5.9198869982606235" Properties=species:S:1:pos:R:3:initial_magmoms:R:1:castep_labels:S:1 n_minim_iter=7 pbc="T T T"
P        3.75491589       4.15605338       1.44813213       0.00000000 NULL
P        3.97779602       6.51827661       5.27925743       0.00000000 NULL
P        0.93097445       2.37753513       4.51789968       0.00000000 NULL
P        1.71457727       2.95124002      -0.01168986       0.00000000 NULL
P        1.69947290       4.01278146       3.27747086       0.00000000 NULL
P        0.45422224       0.98073781       0.78762995       0.00000000 NULL
6
Lattice="3.299881242472585 0.02272360665594099 0.10432201064563076 1.5716351944483975 6.1298901745714325 -0.34308061312296995 0.6273659589989703 2.1293244340523994 5.853725790618725" Properties=species:S:1:pos:R:3:initial_magmoms:R:1:castep_labels:S:1 n_minim_iter=8 pbc="T T T"
P        3.74060408       4.14574005       1.46427351       0.00000000 NULL
P        3.96808158       6.52145666       5.24311472       0.00000000 NULL
P        0.93648147       2.39565697       4.47586566       0.00000000 NULL
P        1.70402480       2.93620217       0.00612455       0.00000000 NULL
P        1.69971006       4.01757634       3.25710033       0.00000000 NULL
P        0.45055664       0.98247855       0.77551874       0.00000000 NULL
6
Lattice="3.3032002441920874 0.02614095789756829 0.11032298368508381 1.5793388024871489 6.142089840536577 -0.31667009437097493 0.6434465478622617 2.162774216765993 5.834754863213876" Properties=species:S:1:pos:R:3:initial_magmoms:R:1:castep_labels:S:1 n_minim_iter=9 pbc="T T T"
P        3.75425492       4.16485022       1.48904396       0.00000000 NULL
P        3.99054235       6.56362574       5.24207499       0.00000000 NULL
P        0.94985787       2.42191399       4.46923991       0.00000000 NULL
P        1.70791329       2.94067876       0.02028891       0.00000000 NULL
P        1.71607850       4.04638007       3.25883715       0.00000000 NULL
P        0.45039269       0.98962682       0.76911830       0.00000000 NULL
6
Lattice="3.3356727735857947 0.059155111269754104 0.1536991625755944 1.65395086776813 6.25838102173374 -0.11274300210155516 0.7670335937945036 2.4315610085675 5.738557363047158" Properties=species:S:1:pos:R:3:initial_magmoms:R:1:castep_labels:S:1 n_minim_iter=10 pbc="T T T"
P        3.87496183       4.33796028       1.68652620       0.00000000 NULL
P        4.17825555       6.91456016       5.28317986       0.00000000 NULL
P        1.05541803       2.63638286       4.45355361       0.00000000 NULL
P        1.74608550       2.98781075       0.12903511       0.00000000 NULL
P        1.85198255       4.28773639       3.30082693       0.00000000 NULL
P        0.44984051       1.04775020       0.73090651       0.00000000 NULL
6
Lattice="3.2892618110667096 0.11017997930338232 0.20632412018662594 1.7244599516223706 6.260001011526969 0.23284098695462863 0.9154299965608177 2.8161281224434482 5.881225954404697" Properties=species:S:1:pos:R:3:initial_magmoms:R:1:castep_labels:S:1 n_minim_iter=11 pbc="T T T"
P        3.92574678       4.50305707       2.02496592       0.00000000 NULL
P        4.32806685       7.27594484       5.66589184       0.00000000 NULL
P        1.17862559       2.92400070       4.62795625       0.00000000 NULL
P        1.75769399       2.98972351       0.31270743       0.00000000 NULL
P        2.00506853       4.55332683       3.54436724       0.00000000 NULL
P        0.44075764       1.11847757       0.76074640       0.00000000 NULL
6
Lattice="3.368866754967134 0.13384521370491953 0.19953265908624615 1.804071114096754 6.32200421844889 0.12203558936858733 0.927994552462475 2.7104885206531253 5.670746997708662" Properties=species:S:1:pos:R:3:initial_magmoms:R:1:castep_labels:S:1 n_minim_iter=12 pbc="T T T"
P        4.03725016       4.52829224       1.90322041       0.00000000 NULL
P        4.44844830       7.24540912       5.37956072       0.00000000 NULL
P        1.20693124       2.84729662       4.46259790       0.00000000 NULL
P        1.82310099       3.01377420       0.25877322       0.00000000 NULL
P        2.07771627       4.53733378       3.36176189       0.00000000 NULL
P        0.44037657       1.10945071       0.71198707       0.00000000 NULL
6
Lattice="3.3334302511305087 0.11936542582907064 0.20675998156444034 1.7615158149719528 6.278465959478508 0.17583662766442315 0.928539708825044 2.754115000497191 5.727184768432844" Properties=species:S:1:pos:R:3:initial_magmoms:R:1:castep_labels:S:1 n_minim_iter=13 pbc="T T T"
P        3.98187355       4.50653474       1.96117409       0.00000000 NULL
P        4.38995922       7.24071751       5.47068986       0.00000000 NULL
P        1.20182142       2.87333701       4.51444666       0.00000000 NULL
P        1.79656587       2.98529210       0.28849228       0.00000000 NULL
P        2.05746050       4.54179959       3.41889930       0.00000000 NULL
P        0.42802865       1.11386828       0.72545006       0.00000000 NULL
