6
Lattice="2.240899999999998 3.4952648169402207e-16 0.0 -1.0407462505457512 6.625517107333955 0.0 0.0 0.0 8.83451" Properties=species:S:1:pos:R:3:initial_magmoms:R:1:castep_labels:S:1 n_minim_iter=1 pbc="T T T"
P        0.93735124       0.17995633       6.48436248       0.00000000 NULL
P        0.93735124       0.17995633       2.35014752       0.00000000 NULL
P        1.28696800       5.33479946       5.42739729       0.00000000 NULL
P        1.28696800       5.33479946       3.40711271       0.00000000 NULL
P        0.07378379       4.28814134       2.04279845       0.00000000 NULL
P        0.07378379       4.28814134       6.79171155       0.00000000 NULL
6
Lattice="2.247389232043694 4.515207269968231e-05 0.0 -1.0436265611746458 6.639712505145655 0.0 0.0 0.0 8.855524676754923" Properties=species:S:1:pos:R:3:initial_magmoms:R:1:castep_labels:S:1 n_minim_iter=2 pbc="T T T"
P        0.94008800       0.18080006       6.50003599       0.00000000 NULL
P        0.94008800       0.18080006       2.35548869       0.00000000 NULL
P        1.29075551       5.34621790       5.44004279       0.00000000 NULL
P        1.29075551       5.34621790       3.41548189       0.00000000 NULL
P        0.07411192       4.29695954       2.04722233       0.00000000 NULL
P        0.07411192       4.29695954       6.80830235       0.00000000 NULL
6
Lattice="2.5571699999873188 0.001962377145921528 0.0 -1.1818302138174575 7.316183499155282 0.0 0.0 0.0 9.856443566196747" Properties=species:S:1:pos:R:3:initial_magmoms:R:1:castep_labels:S:1 n_minim_iter=3 pbc="T T T"
P        1.07066478       0.22168011       7.24719505       0.00000000 NULL
P        1.07066478       0.22168011       2.60924852       0.00000000 NULL
P        1.47098878       5.88998704       6.04208062       0.00000000 NULL
P        1.47098878       5.88998704       3.81436295       0.00000000 NULL
P        0.08937732       4.71647819       2.25703266       0.00000000 NULL
P        0.08937732       4.71647819       7.59941091       0.00000000 NULL
6
Lattice="2.5747923502460144 0.0041875047571672715 0.0 -1.1834357178128285 7.39116998877144 0.0 0.0 0.0 9.911495057032882" Properties=species:S:1:pos:R:3:initial_magmoms:R:1:castep_labels:S:1 n_minim_iter=4 pbc="T T T"
P        1.07774814       0.22663125       7.28674114       0.00000000 NULL
P        1.07774814       0.22663125       2.62475391       0.00000000 NULL
P        1.48869082       5.95199994       6.08031711       0.00000000 NULL
P        1.48869082       5.95199994       3.83117794       0.00000000 NULL
P        0.09239801       4.76427263       2.26973935       0.00000000 NULL
P        0.09239801       4.76427263       7.64175571       0.00000000 NULL
6
Lattice="2.575890453393168 0.005018851324653521 0.0 -1.1814877263041075 7.400951291026749 0.0 0.0 0.0 9.890698747937243" Properties=species:S:1:pos:R:3:initial_magmoms:R:1:castep_labels:S:1 n_minim_iter=5 pbc="T T T"
P        1.07758201       0.22814709       7.26972076       0.00000000 NULL
P        1.07758201       0.22814709       2.62097799       0.00000000 NULL
P        1.49371396       5.96054783       6.07235285       0.00000000 NULL
P        1.49371396       5.96054783       3.81834590       0.00000000 NULL
P        0.09230389       4.77010483       2.26597255       0.00000000 NULL
P        0.09230389       4.77010483       7.62472620       0.00000000 NULL
