14
Lattice="4.9431523479907735 -0.20574002858628052 1.9213589924764287e-07 -1.116330266097448 7.690309156909513 -2.797615210822102e-07 -1.9134113455439872 -3.742284313534854 8.104861973115414" Properties=species:S:1:pos:R:3:initial_magmoms:R:1:castep_labels:S:1:forces:R:3 n_minim_iter=1 energy=-74.7369305341531 stress="0.0005300697644827472 0.0006736469782731405 -3.25059311841271e-11 0.0006736469782731405 0.0002397877404069648 3.6760051980878546e-11 -3.25059311841271e-11 3.6760051980878546e-11 0.0008333578819752871" free_energy=-74.7369305341531 pbc="T T T"
P        1.01274606       7.76999429       0.79346931       0.00000000 NULL       0.02092333       0.00682372      -0.01055367
P        1.57091094       3.92483991       7.31139397       0.00000000 NULL       0.02092333       0.00682372       0.01055367
P        0.49362512      -0.40729949       2.22501602       0.00000000 NULL      -0.03454823      -0.01628102      -0.01357827
P       -0.06454015       3.43785520       5.87984744       0.00000000 NULL      -0.03454823      -0.01628102       0.01357827
P       -1.21935021       4.12058805       2.58877453       0.00000000 NULL      -0.01214308       0.02376263       0.02040613
P       -0.66118518       0.27543356       5.51608880       0.00000000 NULL      -0.01214308       0.02376263      -0.02040613
P        2.71797606       6.28771297       0.87188921       0.00000000 NULL       0.03002452       0.01893735       0.00723523
P       -1.66701140       2.64829862       7.23297409       0.00000000 NULL       0.03002452       0.01893735      -0.00723523
P        2.46144470       4.35233997       4.36638078       0.00000000 NULL      -0.01350207       0.01439353      -0.04349658
P        3.01960986       0.50718537       3.73848281       0.00000000 NULL      -0.01350208       0.01439354       0.04349658
P       -0.32688911       2.02196301       2.84763948       0.00000000 NULL      -0.01915505      -0.00606994       0.04094542
P        0.23127593      -1.82319149       5.25722405       0.00000000 NULL      -0.01915505      -0.00606994      -0.04094542
P        0.34153883       5.55435419       3.34440459       0.00000000 NULL       0.02840058      -0.04156628       0.05725358
P        0.89970391       1.70919966       4.76045877       0.00000000 NULL       0.02840059      -0.04156628      -0.05725357
14
Lattice="4.940371187883051 -0.20941800022179377 1.9214511138355418e-07 -1.1214750813911631 7.689086448540585 -2.7991706398326265e-07 -1.9094483575586967 -3.7398339737667823 8.097289965885228" Properties=species:S:1:pos:R:3:initial_magmoms:R:1:castep_labels:S:1:forces:R:3 n_minim_iter=2 energy=-74.73736858745104 stress="-0.0004958302915405795 0.00021171609917645896 -2.1443592126802324e-11 0.00021171609917645896 -0.0002430518307689808 1.7787018135283788e-11 -2.1443592126802324e-11 1.7787018135283788e-11 -0.00015928344757259327" free_energy=-74.73736858745104 pbc="T T T"
P        1.00635282       7.76716715       0.79268939       0.00000000 NULL       0.03725595       0.01628397      -0.01009233
P        1.56709012       3.92262413       7.30460188       0.00000000 NULL       0.03725594       0.01628397       0.01009233
P        0.49351307      -0.40762240       2.22288760       0.00000000 NULL      -0.03263468      -0.00766002       0.01166428
P       -0.06722461       3.43692094       5.87440385       0.00000000 NULL      -0.03263468      -0.00766002      -0.01166429
P       -1.22178236       4.12048910       2.58643062       0.00000000 NULL      -0.01515737       0.00462253      -0.00508381
P       -0.66104493       0.27594596       5.51086070       0.00000000 NULL      -0.01515737       0.00462253       0.00508380
P        2.71172256       6.28404049       0.87110112       0.00000000 NULL       0.00695132       0.00638832       0.00112470
P       -1.66791133       2.64891546       7.22619017       0.00000000 NULL       0.00695131       0.00638832      -0.00112470
P        2.45664595       4.34936460       4.36214231       0.00000000 NULL      -0.03175834       0.00680306      -0.04127230
P        3.01738352       0.50482136       3.73514927       0.00000000 NULL      -0.03175834       0.00680306       0.04127230
P       -0.32829207       2.02164457       2.84512888       0.00000000 NULL      -0.01328310       0.00411904       0.02049237
P        0.23244538      -1.82289858       5.25216264       0.00000000 NULL      -0.01328310       0.00411903      -0.02049237
P        0.33724517       5.55245194       3.34148956       0.00000000 NULL       0.04862622      -0.03055689       0.05421716
P        0.89798265       1.70790876       4.75580179       0.00000000 NULL       0.04862623      -0.03055689      -0.05421715
14
Lattice="4.943987397232558 -0.21349412712699167 1.924070620335155e-07 -1.128482236921755 7.6927129800449885 -2.8029255055411844e-07 -1.9077528844215679 -3.739609176104717 8.096050374393348" Properties=species:S:1:pos:R:3:initial_magmoms:R:1:castep_labels:S:1:forces:R:3 n_minim_iter=3 energy=-74.73757878500587 stress="0.00019141762266767527 -0.00020904724174658327 1.1299874968177778e-11 -0.00020904724174658327 0.00022815665034829304 -1.6668084703402587e-11 1.1299874968177778e-11 -1.6668084703402587e-11 2.0926388218943584e-05" free_energy=-74.73757878500587 pbc="T T T"
P        1.00105084       7.76921686       0.79248211       0.00000000 NULL       0.04520614       0.00606167      -0.00718612
P        1.56529171       3.92286057       7.30356956       0.00000000 NULL       0.04520613       0.00606167       0.00718613
P        0.49390849      -0.40824636       2.22259881       0.00000000 NULL      -0.01747850      -0.01006323       0.01803065
P       -0.07033276       3.43811024       5.87345305       0.00000000 NULL      -0.01747850      -0.01006323      -0.01803065
P       -1.22609300       4.12301024       2.58603910       0.00000000 NULL      -0.01134665      -0.00953320      -0.00177035
P       -0.66185199       0.27665385       5.51001263       0.00000000 NULL      -0.01134665      -0.00953320       0.00177035
P        2.70862849       6.28414219       0.87098858       0.00000000 NULL      -0.00987135       0.01534410      -0.00199140
P       -1.67111803       2.65128003       7.22506312       0.00000000 NULL      -0.00987135       0.01534410       0.00199140
P        2.45460446       4.34898406       4.36112251       0.00000000 NULL      -0.02791899       0.00727460      -0.04401433
P        3.01884560       0.50262755       3.73492948       0.00000000 NULL      -0.02791899       0.00727460       0.04401433
P       -0.33028082       2.02264127       2.84490400       0.00000000 NULL      -0.01598535       0.00731701       0.01389997
P        0.23396021      -1.82371515       5.25114793       0.00000000 NULL      -0.01598535       0.00731701      -0.01389997
P        0.33335892       5.55386223       3.34144065       0.00000000 NULL       0.03739470      -0.01640095       0.04629329
P        0.89759999       1.70750579       4.75461111       0.00000000 NULL       0.03739471      -0.01640095      -0.04629329
14
Lattice="4.945899513234181 -0.21292982994880996 1.92461473505042e-07 -1.12849089549467 7.68178721391089 -2.799550183113088e-07 -1.9087046130264471 -3.7344284417168363 8.093137405242995" Properties=species:S:1:pos:R:3:initial_magmoms:R:1:castep_labels:S:1:forces:R:3 n_minim_iter=4 energy=-74.73834578491062 stress="0.0006713334021485216 0.00014005638583942356 3.102352968915068e-11 0.00014005638583942356 -0.0005500856417537182 7.635483697221328e-12 3.102352968915068e-11 7.635483697221328e-12 -0.0004315036763862886" free_energy=-74.73834578491062 pbc="T T T"
P        1.00463261       7.75893744       0.79162881       0.00000000 NULL      -0.00697822       0.01637867       0.02188078
P        1.56887782       3.91804403       7.30150989       0.00000000 NULL      -0.00697821       0.01637867      -0.02188078
P        0.49246449      -0.40829382       2.22271740       0.00000000 NULL       0.02497307       0.01078766      -0.00106060
P       -0.07178110       3.43259990       5.87042149       0.00000000 NULL       0.02497307       0.01078766       0.00106060
P       -1.22719844       4.11696606       2.58501951       0.00000000 NULL       0.00504765      -0.00024936      -0.02086027
P       -0.66295310       0.27607255       5.50811925       0.00000000 NULL       0.00504765      -0.00024935       0.02086027
P        2.70994449       6.27625812       0.87065695       0.00000000 NULL       0.00087437      -0.00905609      -0.00453987
P       -1.67170981       2.64829454       7.22248179       0.00000000 NULL       0.00087437      -0.00905609       0.00453987
P        2.45389302       4.34349171       4.35664828       0.00000000 NULL      -0.02379857       0.00045249      -0.02193578
P        3.01813850       0.50259808       3.73649075       0.00000000 NULL      -0.02379858       0.00045249       0.02193578
P       -0.33133203       2.02012582       2.84510052       0.00000000 NULL      -0.01784762      -0.01118993      -0.00679156
P        0.23291333      -1.82076772       5.24803844       0.00000000 NULL      -0.01784762      -0.01118993       0.00679156
P        0.33655023       5.54447242       3.34359818       0.00000000 NULL       0.01772932      -0.00712344       0.02450722
P        0.90079562       1.70357886       4.74954061       0.00000000 NULL       0.01772932      -0.00712344      -0.02450722
14
Lattice="4.936922970385272 -0.21465157647406333 1.921773582408165e-07 -1.128865519056909 7.6884371364854 -2.801747331230886e-07 -1.9040290302058707 -3.7368925294246824 8.103381625614604" Properties=species:S:1:pos:R:3:initial_magmoms:R:1:castep_labels:S:1:forces:R:3 n_minim_iter=5 energy=-74.73887410001664 stress="-5.474922301891045e-05 -1.0663907805901589e-05 -8.497447979964813e-12 -1.0663907805901589e-05 -4.903504566212769e-05 3.627461101872894e-12 -8.497447979964813e-12 3.627461101872894e-12 0.00019733037409078017" free_energy=-74.73887410001664 pbc="T T T"
P        1.00218735       7.76560508       0.79246696       0.00000000 NULL      -0.02796291       0.01058763       0.03672965
P        1.56661986       3.92138671       7.31091597       0.00000000 NULL      -0.02796291       0.01058762      -0.03672965
P        0.49084026      -0.40911974       2.22617393       0.00000000 NULL       0.04472776       0.00938086      -0.00490896
P       -0.07359264       3.43509894       5.87720918       0.00000000 NULL       0.04472776       0.00938086       0.00490896
P       -1.22680572       4.12060100       2.58799818       0.00000000 NULL       0.00675965       0.00021155      -0.01109548
P       -0.66237307       0.27638252       5.51538481       0.00000000 NULL       0.00675965       0.00021155       0.01109548
P        2.70292869       6.28104850       0.87169456       0.00000000 NULL       0.00303319      -0.01120563       0.00220461
P       -1.66956176       2.65148170       7.23168840       0.00000000 NULL       0.00303319      -0.01120563      -0.00220461
P        2.44643810       4.34665042       4.35990190       0.00000000 NULL      -0.04331287      -0.00441040      -0.01456321
P        3.01087088       0.50243183       3.74348134       0.00000000 NULL      -0.04331287      -0.00441040       0.01456321
P       -0.33227566       2.02202379       2.84947097       0.00000000 NULL      -0.00941035      -0.02040477      -0.00779433
P        0.23215701      -1.82219470       5.25391221       0.00000000 NULL      -0.00941035      -0.02040477       0.00779433
P        0.33628411       5.54775350       3.35043268       0.00000000 NULL       0.02616552       0.01584078       0.00510563
P        0.90071682       1.70353498       4.75295033       0.00000000 NULL       0.02616553       0.01584078      -0.00510563
14
Lattice="4.934138258372819 -0.21343798537117392 1.9203517515010047e-07 -1.1259844969931816 7.6971849816088564 -2.803369681264118e-07 -1.904077184898198 -3.741873247812106 8.094512782685472" Properties=species:S:1:pos:R:3:initial_magmoms:R:1:castep_labels:S:1:forces:R:3 n_minim_iter=6 energy=-74.73926937557354 stress="1.1255128351338536e-05 0.0002588432590950255 -1.189899846776871e-12 0.0002588432590950255 0.0005933713762280993 -2.3325737310665534e-11 -1.189899846776871e-12 -2.3325737310665534e-11 -0.0004432052215108286" free_energy=-74.73926937557354 pbc="T T T"
P        1.00427807       7.77597692       0.79292845       0.00000000 NULL      -0.02204383       0.00417321       0.02724856
P        1.56727008       3.92738463       7.30158563       0.00000000 NULL      -0.02204383       0.00417321      -0.02724856
P        0.49157790      -0.40934573       2.22408560       0.00000000 NULL       0.02390789       0.00097403       0.00934491
P       -0.07141449       3.43924687       5.87042867       0.00000000 NULL       0.02390789       0.00097403      -0.00934491
P       -1.22507203       4.12496739       2.58447300       0.00000000 NULL       0.03087691       0.00968559      -0.02723571
P       -0.66207990       0.27637499       5.51004113       0.00000000 NULL       0.03087691       0.00968559       0.02723571
P        2.70329397       6.28920644       0.87076593       0.00000000 NULL       0.01190245      -0.00041924       0.00841556
P       -1.66785227       2.65405213       7.22374818       0.00000000 NULL       0.01190245      -0.00041924      -0.00841556
P        2.44341104       4.35261572       4.35281247       0.00000000 NULL      -0.03250522       0.00488538       0.00608189
P        3.00640331       0.50402321       3.74170193       0.00000000 NULL      -0.03250522       0.00488537      -0.00608189
P       -0.33256043       2.02363435       2.84659945       0.00000000 NULL      -0.02438933      -0.02478538      -0.01621754
P        0.23043172      -1.82495807       5.24791489       0.00000000 NULL      -0.02438933      -0.02478538       0.01621754
P        0.34039861       5.55417644       3.34895405       0.00000000 NULL       0.01225112       0.00548642      -0.01313910
P        0.90339081       1.70558399       4.74556012       0.00000000 NULL       0.01225111       0.00548642       0.01313910
14
Lattice="4.92932589936379 -0.21741063860335852 1.9197716324389669e-07 -1.1315226781204344 7.686504884292483 -2.802148435450615e-07 -1.8989019150779238 -3.7345468723338797 8.101108110035105" Properties=species:S:1:pos:R:3:initial_magmoms:R:1:castep_labels:S:1:forces:R:3 n_minim_iter=7 energy=-74.74008522886888 stress="5.448844216652057e-05 1.8171379692104278e-05 -4.230399913805648e-12 1.8171379692104278e-05 -3.101514578539955e-05 -4.677465096336613e-12 -4.230399913805648e-12 -4.677465096336613e-12 2.595845644806345e-05" free_energy=-74.74008522886888 pbc="T T T"
P        0.99678914       7.76519927       0.79679946       0.00000000 NULL       0.00982562       0.00374194      -0.01223822
P        1.56255024       3.92194703       7.30430995       0.00000000 NULL       0.00982562       0.00374194       0.01223822
P        0.49419234      -0.40891333       2.22681349       0.00000000 NULL      -0.02087059       0.00885218       0.00348712
P       -0.07156914       3.43433923       5.87429611       0.00000000 NULL      -0.02087059       0.00885218      -0.00348712
P       -1.22706851       4.11968987       2.58461105       0.00000000 NULL       0.02343425       0.01323504      -0.01046718
P       -0.66130728       0.27643752       5.51649841       0.00000000 NULL       0.02343425       0.01323505       0.01046718
P        2.69534040       6.27718355       0.87169845       0.00000000 NULL       0.00571984       0.00854806       0.00891537
P       -1.66822440       2.65134195       7.22941099       0.00000000 NULL       0.00571984       0.00854806      -0.00891537
P        2.43057912       4.34420511       4.35186455       0.00000000 NULL      -0.00089335      -0.01007732      -0.00307887
P        2.99634048       0.50095265       3.74924518       0.00000000 NULL      -0.00089335      -0.01007732       0.00307887
P       -0.33659790       2.01899751       2.84905276       0.00000000 NULL      -0.01501471      -0.02912881      -0.01273951
P        0.22916335      -1.82425486       5.25205690       0.00000000 NULL      -0.01501471      -0.02912881       0.01273951
P        0.34081785       5.54513638       3.35576086       0.00000000 NULL      -0.00220106       0.00482890      -0.01241929
P        0.90657914       1.70188398       4.74534863       0.00000000 NULL      -0.00220107       0.00482890       0.01241929
14
Lattice="4.925472150939021 -0.2169792699838325 1.9181899224676754e-07 -1.1298661638269694 7.689270454385463 -2.802381080931795e-07 -1.8978032977611898 -3.7361453418967265 8.094427208548023" Properties=species:S:1:pos:R:3:initial_magmoms:R:1:castep_labels:S:1:forces:R:3 n_minim_iter=8 energy=-74.740627682402 stress="4.932147855928124e-05 3.879279967607408e-05 5.458744081505138e-13 3.879279967607408e-05 -6.877782601118725e-07 -6.208948576977919e-13 5.458744081505138e-13 -6.208948576977919e-13 -2.1081058110165836e-05" free_energy=-74.740627682402 pbc="T T T"
P        0.99872760       7.77007327       0.79631202       0.00000000 NULL      -0.01211946      -0.00445325       0.00031128
P        1.56366044       3.92543824       7.29811648       0.00000000 NULL      -0.01211946      -0.00445325      -0.00031128
P        0.49226336      -0.40740708       2.22629934       0.00000000 NULL       0.00704149       0.01747233       0.00839195
P       -0.07266986       3.43722826       5.86812935       0.00000000 NULL       0.00704149       0.01747233      -0.00839195
P       -1.22181651       4.12300441       2.57947221       0.00000000 NULL       0.00906340      -0.00152893      -0.00962622
P       -0.65688353       0.27836927       5.51495636       0.00000000 NULL       0.00906340      -0.00152893       0.00962622
P        2.69476952       6.28108978       0.87255240       0.00000000 NULL      -0.00790935       0.00472296      -0.01105689
P       -1.66576979       2.65343402       7.22187613       0.00000000 NULL      -0.00790935       0.00472296       0.01105689
P        2.42439434       4.34460414       4.34468318       0.00000000 NULL       0.02018517      -0.01037716      -0.02210194
P        2.98932744       0.49996890       3.74974564       0.00000000 NULL       0.02018517      -0.01037716       0.02210194
P       -0.34018360       2.01385420       2.84469501       0.00000000 NULL      -0.00248134       0.00140497       0.00123598
P        0.22474939      -1.83078095       5.24973375       0.00000000 NULL      -0.00248134       0.00140497      -0.00123598
P        0.34470283       5.54796735       3.35372999       0.00000000 NULL      -0.01377992      -0.00724091       0.01105870
P        0.90963586       1.70333217       4.74069860       0.00000000 NULL      -0.01377992      -0.00724091      -0.01105870
14
Lattice="4.926735191580033 -0.21820623598556377 1.91904401399355e-07 -1.1321603145724832 7.68686636085769 -2.802499851589008e-07 -1.8972877424411827 -3.734329812352288 8.08730265035323" Properties=species:S:1:pos:R:3:initial_magmoms:R:1:castep_labels:S:1:forces:R:3 n_minim_iter=9 energy=-74.74106372634431 stress="9.262009251564837e-05 5.672276992151588e-05 1.2638448691458034e-11 5.672276992151588e-05 -2.8121835170731184e-05 -1.554514530416161e-12 1.2638448691458034e-11 -1.554514530416161e-12 -2.5897953153238787e-05" free_energy=-74.74106372634431 pbc="T T T"
P        0.99636856       7.76771142       0.79579456       0.00000000 NULL      -0.00929343       0.00534369       0.00645928
P        1.56244847       3.92427844       7.29150938       0.00000000 NULL      -0.00929343       0.00534369      -0.00645928
P        0.49260921      -0.40279693       2.22713468       0.00000000 NULL      -0.01042241      -0.02010947      -0.00729916
P       -0.07347108       3.44063636       5.86016946       0.00000000 NULL      -0.01042241      -0.02010947       0.00729916
P       -1.21852424       4.12293215       2.57305480       0.00000000 NULL      -0.00471107      -0.00878090      -0.02672786
P       -0.65244420       0.27949906       5.51424920       0.00000000 NULL      -0.00471107      -0.00878090       0.02672786
P        2.69280053       6.28011250       0.87094578       0.00000000 NULL       0.00778465       0.01066692       0.01506364
P       -1.66785475       2.65488575       7.21635819       0.00000000 NULL       0.00778465       0.01066691      -0.01506364
P        2.42360411       4.33915901       4.33360870       0.00000000 NULL       0.01220065      -0.00362344      -0.00504487
P        2.98968429       0.49572581       3.75369556       0.00000000 NULL       0.01220065      -0.00362344       0.00504487
P       -0.34437780       2.00887097       2.84084094       0.00000000 NULL       0.00745580       0.00103282       0.00163375
P        0.22170227      -1.83456214       5.24646326       0.00000000 NULL       0.00745580       0.00103282      -0.00163375
P        0.34391221       5.54533889       3.35351543       0.00000000 NULL      -0.00301419       0.01547038       0.00733409
P        0.90999231       1.70190575       4.73378860       0.00000000 NULL      -0.00301419       0.01547038      -0.00733409
14
Lattice="4.927386782453226 -0.21931124395968601 1.9196305969722354e-07 -1.1340819045585904 7.685537166442413 -2.8028109974222933e-07 -1.896652742650967 -3.733112711349929 8.081082676732608" Properties=species:S:1:pos:R:3:initial_magmoms:R:1:castep_labels:S:1:forces:R:3 n_minim_iter=10 energy=-74.74141046892869 stress="0.0001004459833019842 6.156774619541622e-05 -2.262892651731983e-12 6.156774619541622e-05 -2.2814372932004673e-05 8.172083316915305e-12 -2.262892651731983e-12 8.172083316915305e-12 -4.650076472728592e-06" free_energy=-74.74141046892869 pbc="T T T"
P        0.99307776       7.76708897       0.79627755       0.00000000 NULL       0.00520660       0.01173287       0.00224534
P        1.56011847       3.92432058       7.28480642       0.00000000 NULL       0.00520660       0.01173287      -0.00224534
P        0.49151649      -0.40201412       2.22680118       0.00000000 NULL       0.00018787      -0.00756621       0.01036020
P       -0.07552460       3.44075458       5.85428298       0.00000000 NULL       0.00018787      -0.00756621      -0.01036020
P       -1.21670133       4.12173268       2.56407737       0.00000000 NULL      -0.00021046       0.00480197      -0.00517026
P       -0.64966049       0.27896419       5.51700666       0.00000000 NULL      -0.00021046       0.00480197       0.00517026
P        2.69171715       6.28123520       0.87172262       0.00000000 NULL      -0.01871532      -0.00516158      -0.00435493
P       -1.66862892       2.65777806       7.20936137       0.00000000 NULL      -0.01871531      -0.00516158       0.00435492
P        2.42411179       4.33446528       4.32368122       0.00000000 NULL       0.00679928       0.00148899       0.00299326
P        2.99115276       0.49169668       3.75740307       0.00000000 NULL       0.00679928       0.00148899      -0.00299326
P       -0.34653356       2.00528711       2.83777284       0.00000000 NULL       0.00419145      -0.00314587      -0.00099580
P        0.22050730      -1.83748140       5.24331139       0.00000000 NULL       0.00419145      -0.00314587       0.00099580
P        0.34297935       5.54612640       3.35410251       0.00000000 NULL       0.00254057      -0.00215017      -0.00559377
P        0.91002025       1.70335786       4.72698155       0.00000000 NULL       0.00254057      -0.00215017       0.00559377
14
Lattice="4.927212551868362 -0.22227723395050394 1.9204822909832285e-07 -1.1386480317909171 7.685750146683173 -2.804592901610308e-07 -1.8942825634925038 -3.7317362066804947 8.074434074832878" Properties=species:S:1:pos:R:3:initial_magmoms:R:1:castep_labels:S:1:forces:R:3 n_minim_iter=11 energy=-74.74157601618717 stress="0.00010296016004043306 4.72376862961909e-05 1.2958892661733363e-11 4.72376862961909e-05 -1.4299944222478102e-05 -2.03826423941639e-12 1.2958892661733363e-11 -2.03826423941639e-12 -1.0382594892625859e-05" free_energy=-74.74157601618717 pbc="T T T"
P        0.98846282       7.76817137       0.79648209       0.00000000 NULL      -0.00473988       0.00009700       0.00129381
P        1.55778659       3.92529650       7.27795328       0.00000000 NULL      -0.00473988       0.00009700      -0.00129381
P        0.49139150      -0.40304423       2.22720239       0.00000000 NULL      -0.00920255       0.00604057      -0.01050835
P       -0.07793265       3.43983096       5.84723317       0.00000000 NULL      -0.00920255       0.00604057       0.01050835
P       -1.21804232       4.12242389       2.55832654       0.00000000 NULL       0.00387889      -0.00800453       0.00075131
P       -0.64871842       0.27954890       5.51610888       0.00000000 NULL       0.00387889      -0.00800453      -0.00075131
P        2.68486872       6.27973391       0.87098553       0.00000000 NULL      -0.00352274       0.00582432      -0.00224526
P       -1.67302005       2.65913627       7.20344987       0.00000000 NULL      -0.00352274       0.00582432       0.00224526
P        2.42251990       4.33149751       4.31775978       0.00000000 NULL       0.00012253       0.00125904      -0.00155499
P        2.99184394       0.48862242       3.75667591       0.00000000 NULL       0.00012253       0.00125904       0.00155499
P       -0.34763544       2.00364353       2.83485804       0.00000000 NULL       0.00506833       0.00370551      -0.00752144
P        0.22168849      -1.83923146       5.23957759       0.00000000 NULL       0.00506833       0.00370551       0.00752144
P        0.34037758       5.54641811       3.35176547       0.00000000 NULL       0.00839542      -0.00892191      -0.00567608
P        0.90970154       1.70354308       4.72266998       0.00000000 NULL       0.00839542      -0.00892191       0.00567608
14
Lattice="4.926079999212105 -0.2257822973021978 1.9211405256870192e-07 -1.1438682709473813 7.685197412909432 -2.8063838524757076e-07 -1.891106167348448 -3.729707308313357 8.068109370432495" Properties=species:S:1:pos:R:3:initial_magmoms:R:1:castep_labels:S:1:forces:R:3 n_minim_iter=12 energy=-74.74171467573073 stress="8.744070882242316e-05 3.164599977092805e-05 -4.337708679897978e-13 3.164599977092805e-05 -1.2083914775645032e-05 -7.439774892308018e-12 -4.337708679897978e-13 -7.439774892308018e-12 -3.3863100811738403e-05" free_energy=-74.74171467573073 pbc="T T T"
P        0.98190061       7.76803680       0.79699087       0.00000000 NULL      -0.00889742       0.00224249      -0.00464683
P        1.55383450       3.92543830       7.27111979       0.00000000 NULL      -0.00889742       0.00224249       0.00464683
P        0.48970710      -0.40287170       2.22572009       0.00000000 NULL      -0.00525626      -0.00064341       0.00434919
P       -0.08222717       3.43972712       5.84239076       0.00000000 NULL      -0.00525626      -0.00064341      -0.00434919
P       -1.21912778       4.12098454       2.55318851       0.00000000 NULL       0.00260204       0.00126568       0.00643957
P       -0.64719376       0.27838592       5.51492222       0.00000000 NULL       0.00260204       0.00126568      -0.00643957
P        2.67606595       6.27816043       0.86985513       0.00000000 NULL       0.00323848       0.00185330      -0.00224760
P       -1.67808015       2.66134421       7.19825556       0.00000000 NULL       0.00323848       0.00185330       0.00224760
P        2.41949770       4.32798636       4.31196736       0.00000000 NULL      -0.00172954       0.00425534      -0.00256238
P        2.99143186       0.48538764       3.75614363       0.00000000 NULL      -0.00172954       0.00425534       0.00256238
P       -0.34770937       2.00277122       2.83060239       0.00000000 NULL       0.00929686      -0.00909360       0.01117561
P        0.22422468      -1.83982742       5.23750852       0.00000000 NULL       0.00929687      -0.00909360      -0.01117560
P        0.33891265       5.54462667       3.34828278       0.00000000 NULL       0.00074583       0.00012020       0.00213683
P        0.91084673       1.70202801       4.71982798       0.00000000 NULL       0.00074583       0.00012020      -0.00213683
14
Lattice="4.922171695984213 -0.2284750439329469 1.920504383740913e-07 -1.1472508462722273 7.683372351094667 -2.8070907294189825e-07 -1.887460728043583 -3.727448404114048 8.067351110799343" Properties=species:S:1:pos:R:3:initial_magmoms:R:1:castep_labels:S:1:forces:R:3 n_minim_iter=13 energy=-74.74189365905612 stress="1.7157709917548726e-05 2.1990396383195216e-05 7.705364575406922e-12 2.1990396383195216e-05 3.221201051216284e-06 3.5615781359525054e-12 7.705364575406922e-12 3.5615781359525054e-12 -3.20030497146375e-05" free_energy=-74.74189365905612 pbc="T T T"
P        0.97266898       7.76838308       0.79719849       0.00000000 NULL      -0.00035575      -0.00095025       0.00145814
P        1.54629416       3.92669711       7.27015391       0.00000000 NULL      -0.00035575      -0.00095025      -0.00145814
P        0.48570539      -0.40248267       2.22744485       0.00000000 NULL       0.00078728      -0.00000578      -0.00839234
P       -0.08792017       3.43920361       5.83990774       0.00000000 NULL       0.00078728      -0.00000578       0.00839234
P       -1.21758926       4.11827652       2.55080097       0.00000000 NULL       0.00097094       0.00835251      -0.00136621
P       -0.64396395       0.27659043       5.51655150       0.00000000 NULL       0.00097094       0.00835251       0.00136621
P        2.66607067       6.27712121       0.86844085       0.00000000 NULL      -0.00496794       0.00134734       0.00743728
P       -1.68247584       2.66391027       7.19891158       0.00000000 NULL      -0.00496794       0.00134734      -0.00743728
P        2.41505497       4.32499138       4.30750403       0.00000000 NULL       0.00383010      -0.00341529       0.00031910