64
Lattice="13.068041646297026 -7.010901091504887e-16 8.014620117129531e-16 6.534020823148513 10.248272527704705 0.4386533947778214 6.534020823148515 1.0339862829719846 10.20540929945893" Properties=species:S:1:pos:R:3:initial_magmoms:R:1:castep_labels:S:1:forces:R:3 n_minim_iter=1 energy=-344.6989168640995 stress="-0.0014469262848261887 5.1068308918977686e-14 2.396741257768168e-12 5.1068308918977686e-14 -0.00011746627586013616 0.0014634713868719993 2.396741257768168e-12 0.0014634713868719993 -0.00028799623251914126" free_energy=-344.6989168640995 pbc="T T T"
P       10.80284837       3.92934597       4.58448850       0.00000000 NULL       0.07962115      -0.02475016       0.07949507
P       15.33323493       4.80527183       3.65604392       0.00000000 NULL      -0.07962115       0.07792093      -0.02933198
P       15.33323493       9.57047538       9.90651984       0.00000000 NULL      -0.07962115      -0.02475016       0.07949507
P       23.87089001      10.44640124       8.97807527       0.00000000 NULL       0.07962115       0.07792093      -0.02933198
P        4.25669223       0.34573492       1.22055254       0.00000000 NULL       0.03655295       0.06453069       0.04113692
P        8.81134941       1.23859539       0.27415799       0.00000000 NULL      -0.03655295       0.04482061       0.06202878
P        8.81134941       5.98686432       6.54258389       0.00000000 NULL      -0.03655295       0.06453069       0.04113692
P       17.32473388       6.87972480       5.59618934       0.00000000 NULL       0.03655295       0.04482061       0.06202878
P       14.07457144       7.62794619       5.24045526       0.00000000 NULL       0.07552344      -0.01168756      -0.07389398
P       12.06151185       5.67525167       7.31022933       0.00000000 NULL      -0.07552344      -0.07444867      -0.00736984
P       18.59553267       3.02080306      10.12383322       0.00000000 NULL      -0.07552344      -0.01168756      -0.07389398
P       20.60859226      10.28239479       2.42685138       0.00000000 NULL       0.07552344      -0.07444867      -0.00736984
P        3.70608404       6.39740563      -0.65931831       0.00000000 NULL       0.01870767       0.03789009       0.10306209
P        9.36195761      -0.28610657       6.42492353       0.00000000 NULL      -0.01870767       0.10509144       0.03183149
P       15.89597843       1.79026251       4.22405964       0.00000000 NULL      -0.01870767       0.03789009       0.10306210
P       10.24010486       4.32103656       1.54154558       0.00000000 NULL       0.01870767       0.10509144       0.03183149
P       20.10378774       5.59198408       7.75912076       0.00000000 NULL       0.07623986      -0.03719965       0.02889023
P       19.10033720       8.07123453       5.13121954       0.00000000 NULL      -0.07623986       0.02667766      -0.03881703
P       12.56631638      10.19912720       2.87574280       0.00000000 NULL      -0.07623986      -0.03719965       0.02889023
P       13.56976692       3.46409141      10.01459749       0.00000000 NULL       0.07623986       0.02667766      -0.03881703
P       10.90134829       3.78961701       6.82718001       0.00000000 NULL      -0.08218872       0.03672239       0.06812316
P       15.23473501       7.03603950       3.38610870       0.00000000 NULL       0.08218872       0.07014373       0.03269794
P        8.70071418       8.39676013       1.94380205       0.00000000 NULL       0.08218872       0.03672239       0.06812316
P       17.43536911       2.42889638       8.26948665       0.00000000 NULL      -0.08218872       0.07014373       0.03269794
P       12.61487810       9.80012168       7.86356745       0.00000000 NULL      -0.04319068      -0.07248897       0.01987156
P       13.52120519       8.42026445       9.32615807       0.00000000 NULL       0.04319069       0.01562170      -0.07352205
P       13.52120519       4.15899227       2.54153610       0.00000000 NULL       0.04319069      -0.07248897       0.01987156
P       12.61487810       2.77913505       4.00412673       0.00000000 NULL      -0.04319069       0.01562170      -0.07352205
P       16.13174597       3.64063238       5.40073346       0.00000000 NULL      -0.04719054      -0.09110541       0.00843145
P       10.00433732       5.60334235       3.32034343       0.00000000 NULL       0.04719054       0.00311817      -0.09144158
P       16.53835814       8.24777550       0.51735551       0.00000000 NULL       0.04719054      -0.09110541       0.00843145
P        9.59772515       0.99619923       8.20372138       0.00000000 NULL      -0.04719054       0.00311817      -0.09144158
P        9.07872106       7.99887772       7.73135644       0.00000000 NULL      -0.01988344       0.00080086      -0.10476225
P       17.05736223       8.18351060       7.53565336       0.00000000 NULL       0.01988344      -0.10453831       0.00689284
P        3.98932058       2.35774832       2.40932510       0.00000000 NULL       0.01988344       0.00080086      -0.10476225
P        9.07872106       2.54238120       2.21362201       0.00000000 NULL      -0.01988344      -0.10453831       0.00689284
P       11.83186452       0.90042098       8.48246466       0.00000000 NULL       0.02069802       0.00325886       0.06805595
P       14.30421877       8.52047609       0.40552671       0.00000000 NULL      -0.02069802       0.06813028      -0.00070503
P        7.77019795       5.50756411       3.59908670       0.00000000 NULL      -0.02069802       0.00325886       0.06805595
P        5.29784370       3.91333296       5.28890467       0.00000000 NULL       0.02069802       0.06813028      -0.00070503
P        7.01167196       3.37556634       1.80236731       0.00000000 NULL       0.00730532       0.01789031      -0.02083235
P        6.05636969       1.99565082       3.26501973       0.00000000 NULL      -0.00730532      -0.01975652       0.01907171
P       19.12441134       9.01669575       7.12439866       0.00000000 NULL      -0.00730532       0.01789031      -0.02083235
P       20.07971360       7.63678022       8.58705108       0.00000000 NULL       0.00730532      -0.01975652       0.01907171
P        5.61000167       2.03095169       6.45801277       0.00000000 NULL       0.02103809      -0.08493463      -0.00688262
P        7.45803998       6.56520709       1.65189274       0.00000000 NULL      -0.02103809      -0.01181107      -0.08439052
P       13.99206080       6.63809481       1.57463482       0.00000000 NULL      -0.02103809      -0.08493463      -0.00688262
P       12.14402249       1.95806397       6.53527069       0.00000000 NULL       0.02103809      -0.01181107      -0.08439052
P       18.67991521      10.20922297       1.33588594       0.00000000 NULL      -0.13983204      -0.12610997       0.12132426
P        7.45616808       1.92742862      10.11423965       0.00000000 NULL       0.13983204       0.11378387      -0.13295312
P       13.99018891       5.60207985       6.21926390       0.00000000 NULL       0.13983204      -0.12610997       0.12132426
P       12.14589439       6.53457175       5.23086170       0.00000000 NULL      -0.13983204       0.11378387      -0.13295312
P       15.42891058       6.45381112      10.38219586       0.00000000 NULL      -0.05457059       0.06624067      -0.00295790
P       23.77521435      10.73999584       5.83902032       0.00000000 NULL       0.05457059       0.00089990       0.06630057
P       10.70717271       0.81268172       5.06016451       0.00000000 NULL       0.05457059       0.06624067      -0.00295790
P       15.42891058       5.09886644       0.51698897       0.00000000 NULL      -0.05457059       0.00089990       0.06630057
P       16.93981384       4.72139394       2.15681147       0.00000000 NULL       0.04458951      -0.01037375       0.06241154
P        9.19626945       2.42777298       4.58795322       0.00000000 NULL      -0.04458951       0.06170250      -0.01398626
P       15.73029027       0.11425082       7.04018942       0.00000000 NULL      -0.04458951      -0.01037375       0.06241154
P       10.40579302       7.03491610      -0.29542473       0.00000000 NULL       0.04458951       0.06170250      -0.01398626
P       11.56154695       2.66506676       9.79159459       0.00000000 NULL      -0.13129192      -0.10779001      -0.03203479
P       14.57453635       9.93002774       2.09104148       0.00000000 NULL       0.13129192      -0.03825000      -0.10574427
P        8.04051552       7.27220989       4.90821663       0.00000000 NULL       0.13129192      -0.10779001      -0.03203479
P       18.09556777       5.32288462       6.97441943       0.00000000 NULL      -0.13129192      -0.03825000      -0.10574427
64
Lattice="13.08865679391713 -7.331467534312941e-16 9.472017897730776e-16 6.544328396958565 10.24889758451816 0.4224491092596233 6.544328396958567 1.017845785671727 10.206975796211461" Properties=species:S:1:pos:R:3:initial_magmoms:R:1:castep_labels:S:1:forces:R:3 n_minim_iter=2 energy=-344.7039200299205 stress="0.0002953456381033855 4.420666482195958e-12 -2.727300460351136e-12 4.420666482195958e-12 0.0005331276208814246 0.00011103407054868542 -2.727300460351136e-12 0.00011103407054868542 0.0005201894594064985" free_energy=-344.7039200299205 pbc="T T T"
P       10.81995396       3.92252322       4.57973063       0.00000000 NULL       0.07305626      -0.04062113       0.07269363
P       15.35735963       4.80012519       3.64950945       0.00000000 NULL      -0.07305626       0.07020790      -0.04478048
P       15.35735963       9.55589491       9.89444308       0.00000000 NULL      -0.07305626      -0.04062113       0.07269363
P       23.90861075      10.43349687       8.96422191       0.00000000 NULL       0.07305626       0.07020789      -0.04478048
P        4.26343658       0.34388485       1.22041863       0.00000000 NULL       0.06665883       0.07651476       0.02415209
P        8.82522022       1.23835410       0.27231885       0.00000000 NULL      -0.06665883       0.02856157       0.07498046
P        8.82522022       5.97725654       6.53513108       0.00000000 NULL      -0.06665883       0.07651476       0.02415209
P       17.35209337       6.87172578       5.58703130       0.00000000 NULL       0.06665883       0.02856157       0.07498046
P       14.09683497       7.62056608       5.22988322       0.00000000 NULL       0.05392924      -0.04918991      -0.05644594
P       12.08047862       5.66426826       7.30347663       0.00000000 NULL      -0.05392924      -0.05921144      -0.04582354
P       18.62480702       3.00504018      10.12214656       0.00000000 NULL      -0.05392924      -0.04918991      -0.05644594
P       20.64116336      10.27979416       2.41121328       0.00000000 NULL       0.05392924      -0.05921144      -0.04582354
P        3.71194547       6.39931407      -0.66964523       0.00000000 NULL      -0.02486772       0.00860956       0.08788672
P        9.37671132      -0.29630500       6.42742939       0.00000000 NULL       0.02486772       0.08823869       0.00348319
P       15.92103972       1.78378817       4.22261811       0.00000000 NULL       0.02486772       0.00860956       0.08788672
P       10.25627387       4.31922090       1.53516605       0.00000000 NULL      -0.02486772       0.08823869       0.00348319
P       20.13556307       5.58030386       7.75267125       0.00000000 NULL       0.06986623      -0.03982863      -0.01655763
P       19.13040731       8.06411658       5.11993422       0.00000000 NULL      -0.06986623      -0.01884617      -0.03879815
P       12.58607891      10.19582976       2.86040791       0.00000000 NULL      -0.06986623      -0.03982863      -0.01655763
P       13.59123468       3.44859068      10.01219757       0.00000000 NULL       0.06986623      -0.01884617      -0.03879815
P       10.91847952       3.77924910       6.82334236       0.00000000 NULL      -0.07165032       0.04713502       0.06825390
P       15.25883406       7.03160532       3.37598155       0.00000000 NULL       0.07165032       0.07087988       0.04308534
P        8.71450567       8.39477500       1.93107902       0.00000000 NULL       0.07165032       0.04713502       0.06825389
P       17.46280792       2.41607942       8.26824490       0.00000000 NULL      -0.07165032       0.07087988       0.04308534
P       12.63474374       9.78879055       7.85043313       0.00000000 NULL      -0.04473442      -0.08398415       0.04614723
P       13.54256985       8.40649332       9.31561007       0.00000000 NULL       0.04473442       0.04118429      -0.08652605
P       13.54256985       4.15541886       2.53572068       0.00000000 NULL       0.04473442      -0.08398415       0.04614723
P       12.63474374       2.77312163       4.00089761       0.00000000 NULL      -0.04473442       0.04118429      -0.08652605
P       16.15715635       3.63241765       5.39663634       0.00000000 NULL      -0.02261342      -0.06272158       0.00131225
P       10.02015724       5.59877437       3.31238090       0.00000000 NULL       0.02261342      -0.00233808      -0.06269172
P       16.56448563       8.24794355       0.50437299       0.00000000 NULL       0.02261342      -0.06272158       0.00131225
P        9.61282795       0.98324847       8.20464425       0.00000000 NULL      -0.02261342      -0.00233808      -0.06269172
P        9.09302702       7.98758346       7.72095294       0.00000000 NULL      -0.03040107      -0.01679500      -0.07967024
P       17.08428657       8.17246780       7.52498332       0.00000000 NULL       0.03040107      -0.08051222      -0.01213266
P        3.99562977       2.35421178       2.40624049       0.00000000 NULL       0.03040107      -0.01679500      -0.07967024
P        9.09302702       2.53909612       2.21027086       0.00000000 NULL      -0.03040107      -0.08051222      -0.01213266
P       11.85054616       0.88701325       8.48375580       0.00000000 NULL      -0.00540478       0.00981528       0.02228178
P       14.32676742       8.52098520       0.39206659       0.00000000 NULL       0.00540478       0.02281495       0.00850268
P        7.78243903       5.50253915       3.59149246       0.00000000 NULL       0.00540478       0.00981528       0.02228178
P        5.30621777       3.90545930       5.28432993       0.00000000 NULL      -0.00540478       0.02281495       0.00850268
P        7.02273889       3.37314282       1.79753559       0.00000000 NULL       0.01955645       0.00470251       0.01960082
P        6.06591790       1.99068632       3.26288134       0.00000000 NULL      -0.01955645       0.01984115       0.00355450
P       19.15457469       9.00651450       7.11224804       0.00000000 NULL      -0.01955645       0.00470251       0.01960082
P       20.11139569       7.62405800       8.57759379       0.00000000 NULL       0.01955645       0.01984115       0.00355450
P        5.61886845       2.02084787       6.45680338       0.00000000 NULL      -0.00110722      -0.07610515      -0.00913869
P        7.46978834       6.56341207       1.64187637       0.00000000 NULL       0.00110722      -0.01354977      -0.07544477
P       14.01411674       6.63637377       1.56454004       0.00000000 NULL       0.00110722      -0.07610515      -0.00913870
P       12.16319685       1.94788617       6.53413971       0.00000000 NULL      -0.00110722      -0.01354977      -0.07544477
P       18.70927110      10.20831108       1.32012393       0.00000000 NULL      -0.10036039      -0.08670330       0.10031523
P        7.46804248       1.91164026      10.11424608       0.00000000 NULL       0.10036039       0.09510243      -0.09239120
P       14.01237088       5.59278518       6.21238727       0.00000000 NULL       0.10036039      -0.08670330       0.10031523
P       12.16494271       6.52716616       5.22198273       0.00000000 NULL      -0.10036039       0.09510243      -0.09239120
P       15.45320630       6.43814225      10.37517284       0.00000000 NULL      -0.02823118       0.06097679       0.00999320
P       23.81276408      10.73207335       5.82378646       0.00000000 NULL       0.02823118       0.01352290       0.06029232
P       10.72410728       0.80477056       5.06046038       0.00000000 NULL       0.02823118       0.06097679       0.00999320
P       15.45320630       5.09870166       0.50907400       0.00000000 NULL      -0.02823118       0.01352290       0.06029232
P       16.96657256       4.71855641       2.15001198       0.00000000 NULL       0.01129915      -0.00339735       0.06469083
P        9.21074103       2.42081997       4.58551597       0.00000000 NULL      -0.01129915       0.06438371      -0.00715425
P       15.75506943       0.10303051       7.04227533       0.00000000 NULL      -0.01129915      -0.00339736       0.06469083
P       10.42224416       7.03634587      -0.30674737       0.00000000 NULL       0.01129915       0.06438371      -0.00715425
P       11.57968029       2.64971071       9.79040417       0.00000000 NULL      -0.11409913      -0.10772155       0.02534237
P       14.59763329       9.92794618       2.07578066       0.00000000 NULL       0.11409913       0.01903401      -0.10901318
P        8.05330490       7.26523661       4.89814083       0.00000000 NULL       0.11409913      -0.10772155       0.02534237
P       18.12400869       5.31242029       6.96804401       0.00000000 NULL      -0.11409913       0.01903401      -0.10901318
64
Lattice="13.08715601397499 -5.738176584211587e-16 1.036466895694878e-15 6.543578006987495 10.24225119932449 0.41824864315313703 6.543578006987497 1.0132658535709498 10.200584976732973" Properties=species:S:1:pos:R:3:initial_magmoms:R:1:castep_labels:S:1:forces:R:3 n_minim_iter=3 energy=-344.7048685384069 stress="-6.995808571295415e-05 -7.633811704472547e-13 2.571869894396168e-12 -7.633811704472547e-13 -0.00022926408790162775 -0.0001697800238686206 2.571869894396168e-12 -0.0001697800238686206 -0.00020948059510956943" free_energy=-344.7048685384069 pbc="T T T"
P       10.81878913       3.91823595       4.57560205       0.00000000 NULL       0.07289294      -0.02746265       0.06746768
P       15.35552289       4.79575424       3.64546957       0.00000000 NULL      -0.07289294       0.06575614      -0.03134031
P       15.35552289       9.54599447       9.88501886       0.00000000 NULL      -0.07289294      -0.02746265       0.06746768
P       23.90594515      10.42351277       8.95488638       0.00000000 NULL       0.07289294       0.06575614      -0.03134031
P        4.26301236       0.34327339       1.21959541       0.00000000 NULL       0.05855937       0.06749567       0.01945149
P        8.82414365       1.23749671       0.27175630       0.00000000 NULL      -0.05855937       0.02334435       0.06625004
P        8.82414365       5.97103192       6.52901222       0.00000000 NULL      -0.05855937       0.06749567       0.01945149
P       17.35016838       6.86525523       5.58117311       0.00000000 NULL       0.05855937       0.02334435       0.06625004
P       14.09527666       7.61368310       5.22381131       0.00000000 NULL       0.05160581      -0.04211167      -0.04674566
P       12.07903537       5.65780630       7.29695846       0.00000000 NULL      -0.05160581      -0.04911589      -0.03932149
P       18.62261337       2.99919042      10.11497948       0.00000000 NULL      -0.05160581      -0.04211167      -0.04674566
P       20.63885467      10.27229897       2.40579029       0.00000000 NULL       0.05160581      -0.04911589      -0.03932149
P        3.71149980       6.39553625      -0.67162759       0.00000000 NULL      -0.01983514      -0.01116521       0.07791067
P        9.37565621      -0.29850373       6.42377327       0.00000000 NULL       0.01983514       0.07712937      -0.01567787
P       15.91923422       1.78104358       4.21954058       0.00000000 NULL       0.01983514      -0.01116521       0.07791067
P       10.25507781       4.31598894       1.53260510       0.00000000 NULL      -0.01983514       0.07712937      -0.01567787
P       20.13332680       5.57374376       7.74595225       0.00000000 NULL       0.06826387      -0.05682518      -0.01940347
P       19.12814124       8.05702740       5.11377603       0.00000000 NULL      -0.06826387      -0.02267577      -0.05560041
P       12.58456324      10.18823643       2.85478408       0.00000000 NULL      -0.06826387      -0.05682518      -0.01940347
P       13.58974879       3.44253473      10.00494420       0.00000000 NULL       0.06826387      -0.02267577      -0.05560041
P       10.91715271       3.77427379       6.81794483       0.00000000 NULL      -0.07720480       0.04832285       0.07690554
P       15.25715932       7.02592754       3.37132861       0.00000000 NULL       0.07720480       0.07958597       0.04376795
P        8.71358131       8.38876647       1.92677666       0.00000000 NULL       0.07720480       0.04832285       0.07690554
P       17.46073071       2.41143487       8.26249678       0.00000000 NULL      -0.07720480       0.07958597       0.04376795
P       12.63324928       9.77948618       7.84208913       0.00000000 NULL      -0.03824010      -0.08475067       0.03578907
P       13.54106275       8.39762227       9.30680677       0.00000000 NULL       0.03824010       0.03079908      -0.08668881
P       13.54106275       4.15172766       2.53267232       0.00000000 NULL       0.03824010      -0.08475067       0.03578907
P       12.63324928       2.76986374       3.99738996       0.00000000 NULL      -0.03824010       0.03079908      -0.08668881
P       16.15527743       3.62797096       5.39206662       0.00000000 NULL      -0.01984541      -0.04837448       0.01500085
P       10.01903460       5.59395376       3.30820754       0.00000000 NULL       0.01984541       0.01216182      -0.04916508
P       16.56261261       8.24246363       0.50089846       0.00000000 NULL       0.01984541      -0.04837448       0.01500085
P        9.61169942       0.97946109       8.19937570       0.00000000 NULL      -0.01984541       0.01216182      -0.04916508
P        9.09195450       7.97953842       7.71325074       0.00000000 NULL      -0.03197394      -0.01701849      -0.07885604
P       17.08235752       8.16431071       7.51739989       0.00000000 NULL       0.03197394      -0.07971240      -0.01240314
P        3.99520151       2.35177990       2.40383393       0.00000000 NULL       0.03197394      -0.01701849      -0.07885604
P        9.09195450       2.53655219       2.20798308       0.00000000 NULL      -0.03197394      -0.07971240      -0.01240314
P       11.84918508       0.88318973       8.47845663       0.00000000 NULL      -0.00258484      -0.00604381       0.01617180
P       14.32512695       8.51547262       0.38855775       0.00000000 NULL       0.00258484       0.01579289      -0.00697418
P        7.78154894       5.49768240       3.58728847       0.00000000 NULL       0.00258484      -0.00604381       0.01617180
P        5.30560707       3.90097994       5.27972592       0.00000000 NULL      -0.00258484       0.01579289      -0.00697418
P        7.02195218       3.37032219       1.79519345       0.00000000 NULL       0.01727739       0.01686485       0.02960385
P        6.06520383       1.98818408       3.26020172       0.00000000 NULL      -0.01727739       0.03053465       0.01511443
P       19.15235984       8.99808072       7.10461026       0.00000000 NULL      -0.01727739       0.01686485       0.02960385
P       20.10910820       7.61594261       8.56961853       0.00000000 NULL       0.01727739       0.03053465       0.01511443
P        5.61822582       2.01700064       6.45222083       0.00000000 NULL       0.00774744      -0.07615552      -0.00989871
P        7.46893019       6.55861351       1.63830218       0.00000000 NULL      -0.00774744      -0.01431142      -0.07545085
P       14.01250820       6.63149331       1.56105266       0.00000000 NULL      -0.00774744      -0.07615552      -0.00989871
P       12.16180383       1.94412084       6.52947035       0.00000000 NULL       0.00774744      -0.01431143      -0.07545085
P       18.70701786      10.20125019       1.31551721       0.00000000 NULL      -0.09720349      -0.08547000       0.10153863
P        7.46729416       1.90663065      10.10746509       0.00000000 NULL       0.09720349       0.09639550      -0.09123114
P       14.01087217       5.58675752       6.20668538       0.00000000 NULL       0.09720349      -0.08547000       0.10153863
P       12.16343986       6.52112332       5.21629692       0.00000000 NULL      -0.09720349       0.09639550      -0.09123114
P       15.45140211       6.43013158      10.36660138       0.00000000 NULL      -0.02873722       0.04984697       0.00211920
P       23.81006593      10.72305047       5.81628790       0.00000000 NULL       0.02873722       0.00501488       0.04963932
P       10.72290992       0.80237306       5.05718457       0.00000000 NULL       0.02873722       0.04984697       0.00211920
P       15.45140211       5.09529195       0.50687109       0.00000000 NULL      -0.02873722       0.00501488       0.04963932
P       16.96464291       4.71473777       2.14699486       0.00000000 NULL       0.02157555      -0.00017034       0.05814119
P        9.20966912       2.41758584       4.58187929       0.00000000 NULL      -0.02157555       0.05803286      -0.00355174
P       15.75324713       0.10024510       7.03816302       0.00000000 NULL      -0.02157555      -0.00017034       0.05814119
P       10.42106490       7.03207852      -0.30928888       0.00000000 NULL       0.02157555       0.05803286      -0.00355174
P       11.57823325       2.64414879       9.78364799       0.00000000 NULL      -0.11272536      -0.08612911       0.03548441
P       14.59607878       9.92087794       2.07062112       0.00000000 NULL       0.11272536       0.03041476      -0.08804720
P        8.05250077       7.25864146       4.89247983       0.00000000 NULL       0.11272536      -0.08612911       0.03548441
P       18.12181125       5.30638527       6.96178929       0.00000000 NULL      -0.11272536       0.03041476      -0.08804720
64
Lattice="13.101506234648594 -5.680795420930941e-16 1.0608713868028759e-15 6.550753117324297 10.241476819520683 0.43033465937970583 6.550753117324299 1.0252863683717413 10.199108942778963" Properties=species:S:1:pos:R:3:initial_magmoms:R:1:castep_labels:S:1:forces:R:3 n_minim_iter=4 energy=-344.71783919456414 stress="0.001262993763451109 2.5740921776149853e-12 -5.1571957985927516e-12 2.5740921776149853e-12 -0.00048215617854360267 0.0005555254179805309 -5.1571957985927516e-12 0.0005555254179805309 -0.0005468883872765702" free_energy=-344.71783919456414 pbc="T T T"
P       10.83397839       3.92177627       4.58221158       0.00000000 NULL       0.00853419       0.04050908      -0.00644825
P       15.36903408       4.80255849       3.64861946       0.00000000 NULL      -0.00853419      -0.00408119       0.04081556
P       15.36903408       9.55515786       9.89693338       0.00000000 NULL      -0.00853419       0.04050908      -0.00644825
P       23.93548462      10.43594008       8.96334126       0.00000000 NULL       0.00853419      -0.00408119       0.04081556
P        4.27041557       0.34784757       1.22065834       0.00000000 NULL      -0.00283211      -0.00792964       0.04487159
P        8.83109066       1.23882389       0.27626091       0.00000000 NULL       0.00283211       0.04433441      -0.01052610
P        8.83109066       5.98122916       6.53538014       0.00000000 NULL       0.00283211      -0.00792964       0.04487159
P       17.37192181       6.87220549       5.59098271       0.00000000 NULL      -0.00283211       0.04433441      -0.01052610
P       14.11315269       7.61702087       5.22921397       0.00000000 NULL      -0.00007550      -0.09410028      -0.01514154
P       12.08985978       5.66339395       7.29997635       0.00000000 NULL       0.00007550      -0.02058910      -0.09306029
P       18.64061290       3.00892565      10.11360111       0.00000000 NULL       0.00007550      -0.09410028      -0.01514154
P       20.66390581      10.27148917       2.41558921       0.00000000 NULL      -0.00007551      -0.02058911      -0.09306029
P        3.71467220       6.39378453      -0.66013085       0.00000000 NULL      -0.04116841      -0.01091784       0.00987025
P        9.38683403      -0.28712834       6.42135582       0.00000000 NULL       0.04116841       0.00921852      -0.01147344
P       15.93758715       1.78568930       4.22425630       0.00000000 NULL       0.04116841      -0.01091784       0.00987025
P       10.26542532       4.32096689       1.53696868       0.00000000 NULL      -0.04116841       0.00921852      -0.01147344
P       20.15854100       5.57997278       7.74980861       0.00000000 NULL      -0.05086892      -0.03369711      -0.00172409
P       19.14597771       8.06123954       5.11977020       0.00000000 NULL       0.05086892      -0.00368112      -0.03353978
P       12.59522459      10.18806800       2.86542147       0.00000000 NULL       0.05086892      -0.03369711      -0.00172410
P       13.60778788       3.45314431      10.00415734       0.00000000 NULL      -0.05086892      -0.00368112      -0.03353978
P       10.92568170       3.78406185       6.82398571       0.00000000 NULL      -0.03544724      -0.01805444       0.05510733
P       15.27733076       7.03252751       3.38074873       0.00000000 NULL       0.03544724       0.05396393      -0.02122911
P        8.72657765       8.39215707       1.93959857       0.00000000 NULL       0.03544724      -0.01805444       0.05510733
P       17.47643482       2.42443228       8.26513588       0.00000000 NULL      -0.03544724       0.05396393      -0.02122911
P       12.64526762       9.78380643       7.85340969       0.00000000 NULL      -0.04897848      -0.01351911      -0.02675842
P       13.55774484       8.40917494       9.31046126       0.00000000 NULL       0.04897848      -0.02749944      -0.01193986