12
Lattice="6.640950000000003 -2.338526205651489e-16 2.1373910965419328e-15 1.0355066976107863 6.656143856866624 -4.730941547966689e-16 3.278757569497146 1.5414713259301855 5.757007179142671" Properties=species:S:1:pos:R:3:initial_magmoms:R:1:castep_labels:S:1 n_minim_iter=1 pbc="T T T"
P        3.32194926       2.90704076       1.28216322       0.00000000 NULL
P        6.89653621       6.56016060       0.46644596       0.00000000 NULL
P        3.14060420       2.95728052       3.47849197       0.00000000 NULL
P        6.25259753       4.10054615       1.26229176       0.00000000 NULL
P        4.76599859       4.84982205       0.14150954       0.00000000 NULL
P        4.02478814       3.03920930       5.30747818       0.00000000 NULL
P        5.85519685       7.84621653       5.70981411       0.00000000 NULL
P        4.76811885       2.06880290       2.42009095       0.00000000 NULL
P        8.69731320       3.76572125       5.21770917       0.00000000 NULL
P        6.43197885       2.07096459       1.24830050       0.00000000 NULL
P        7.15227343       6.21921563       4.08986713       0.00000000 NULL
P        8.45341879       4.58970529       3.39281101       0.00000000 NULL
12
Lattice="6.655202744404699 -0.009698872958711876 0.0019393445561577407 1.0280080292919038 6.6676744166339805 0.00023277251084438555 3.28522435204722 1.539643148512958 5.776361211353407" Properties=species:S:1:pos:R:3:initial_magmoms:R:1:castep_labels:S:1 n_minim_iter=2 pbc="T T T"
P        3.32503461       2.90800228       1.28700950       0.00000000 NULL
P        6.90195304       6.56282274       0.46993265       0.00000000 NULL
P        3.14399975       2.95828772       3.49017269       0.00000000 NULL
P        6.26070162       4.09968092       1.26835835       0.00000000 NULL
P        4.76898782       4.85254683       0.14342414       0.00000000 NULL
P        4.03099218       3.03927618       5.32549922       0.00000000 NULL
P        5.85795427       7.85277975       5.72981558       0.00000000 NULL
P        4.77605801       2.06570179       2.42946114       0.00000000 NULL
P        8.71162202       3.76034217       5.23691678       0.00000000 NULL
P        6.44337556       2.06539781       1.25450684       0.00000000 NULL
P        7.15959384       6.22096690       4.10476329       0.00000000 NULL
P        8.46570828       4.58652768       3.40574888       0.00000000 NULL
12
Lattice="6.932498301353281 -0.20384911843149522 0.04026194578858512 0.876651588229278 6.891906218410491 0.004718143814590631 3.4102864832834143 1.5014386641733461 6.158806815012605" Properties=species:S:1:pos:R:3:initial_magmoms:R:1:castep_labels:S:1 n_minim_iter=3 pbc="T T T"
P        3.38274462       2.92445243       1.38263483       0.00000000 NULL
P        7.00224017       6.60956448       0.53877693       0.00000000 NULL
P        3.20796435       2.97557685       3.72054757       0.00000000 NULL
P        6.41516310       4.07810776       1.38835875       0.00000000 NULL
P        4.82290391       4.90226187       0.18127917       0.00000000 NULL
P        4.14988674       3.03721415       5.68155195       0.00000000 NULL
P        5.90561820       7.97638471       6.12509398       0.00000000 NULL
P        4.92903836       2.00161834       2.61474499       0.00000000 NULL
P        8.98714308       3.64916725       5.61639656       0.00000000 NULL
P        6.66391390       1.95170011       1.37742510       0.00000000 NULL
P        7.29723588       6.24985936       4.39892608       0.00000000 NULL
P        8.70105728       4.51840629       3.66106000       0.00000000 NULL
12
Lattice="6.9329775890835625 -0.28355510354102537 0.037087517222139356 0.7968379776031623 6.907932564733589 0.029431711582694073 3.3892701783384216 1.4904793735316986 6.284164856949628" Properties=species:S:1:pos:R:3:initial_magmoms:R:1:castep_labels:S:1 n_minim_iter=4 pbc="T T T"
P        3.34908725       2.90259071       1.41885825       0.00000000 NULL
P        6.92735554       6.55486794       0.57028666       0.00000000 NULL
P        3.17010010       2.96332224       3.79662769       0.00000000 NULL
P        6.36833178       4.02732695       1.42983256       0.00000000 NULL
P        4.76206026       4.86597984       0.20264700       0.00000000 NULL
P        4.11587655       3.02151789       5.80106215       0.00000000 NULL
P        5.80584430       7.96047821       6.27373089       0.00000000 NULL
P        4.90060762       1.96311284       2.67193738       0.00000000 NULL
P        8.93548582       3.58201550       5.73658403       0.00000000 NULL
P        6.64200795       1.88586454       1.41325813       0.00000000 NULL
P        7.22193673       6.20525036       4.50454275       0.00000000 NULL
P        8.64318188       4.45144962       3.74261694       0.00000000 NULL
12
Lattice="6.866161450034981 -0.3548360644866588 0.022407116524922745 0.7149754594689911 6.877062413326397 0.07314591106031441 3.3270100120581296 1.4905005532405462 6.362585195598221" Properties=species:S:1:pos:R:3:initial_magmoms:R:1:castep_labels:S:1 n_minim_iter=5 pbc="T T T"
P        3.28444867       2.86760816       1.44895262       0.00000000 NULL
P        6.79148569       6.46236198       0.60613915       0.00000000 NULL
P        3.09780117       2.94499252       3.84716673       0.00000000 NULL
P        6.26108502       3.95863266       1.46356340       0.00000000 NULL
P        4.65821869       4.80048786       0.23027327       0.00000000 NULL
P        4.03556875       3.00526645       5.88024283       0.00000000 NULL
P        5.64563445       7.91361650       6.39100980       0.00000000 NULL
P        4.82104595       1.92445951       2.70723927       0.00000000 NULL
P        8.79119165       3.51539604       5.81137536       0.00000000 NULL
P        6.55546563       1.81721593       1.43435478       0.00000000 NULL
P        7.07603034       6.13642524       4.58523474       0.00000000 NULL
P        8.49968367       4.37234476       3.79777251       0.00000000 NULL
12
Lattice="6.746887682316946 -0.4592014117590217 -0.0008607888270835283 0.5917732744746761 6.817123583250245 0.1459151184819102 3.2237266780254736 1.4949384605068785 6.425933752784888" Properties=species:S:1:pos:R:3:initial_magmoms:R:1:castep_labels:S:1 n_minim_iter=6 pbc="T T T"
P        3.17805629       2.81195290       1.48433087       0.00000000 NULL
P        6.57017768       6.31243814       0.66108582       0.00000000 NULL
P        2.98090413       2.91645876       3.89287027       0.00000000 NULL
P        6.08319380       3.85038832       1.50576762       0.00000000 NULL
P        4.49070921       4.69442247       0.27456534       0.00000000 NULL
P        3.90226959       2.98183087       5.95074707       0.00000000 NULL
P        5.39079686       7.83615760       6.51904423       0.00000000 NULL
P        4.68877653       1.86695786       2.73857604       0.00000000 NULL
P        8.55127550       3.41656773       5.87525118       0.00000000 NULL
P        6.40773944       1.71376615       1.45365387       0.00000000 NULL
P        6.83887782       6.02691348       4.67295458       0.00000000 NULL
P        8.26168096       4.25066789       3.85278034       0.00000000 NULL
12
Lattice="6.476278378718525 -0.7646130988967025 -0.059569314240459324 0.24346740385846818 6.726218697943314 0.34483373092617453 2.9683368522990263 1.514093090247314 6.526167178604084" Properties=species:S:1:pos:R:3:initial_magmoms:R:1:castep_labels:S:1 n_minim_iter=7 pbc="T T T"
P        2.90131415       2.68479021       1.56439499       0.00000000 NULL
P        6.00219403       5.95287945       0.80983275       0.00000000 NULL
P        2.68076762       2.86194971       3.97608261       0.00000000 NULL
P        5.63655999       3.58101992       1.61160190       0.00000000 NULL
P        4.05751871       4.44819793       0.39524442       0.00000000 NULL
P        3.56417025       2.93906809       6.07652934       0.00000000 NULL
P        4.72520423       7.69862891       6.79616937       0.00000000 NULL
P        4.36499785       1.71866614       2.79987755       0.00000000 NULL
P        7.96209752       3.16252071       5.98522322       0.00000000 NULL
P        6.05439077       1.43343243       1.49199722       0.00000000 NULL
P        6.23712504       5.77568475       4.86376078       0.00000000 NULL
P        7.67045918       3.94535240       3.96648585       0.00000000 NULL
12
Lattice="6.388785561593439 -0.8747442137512703 -0.15181610633996834 0.11944178377174115 6.899166380410496 0.3795606108248123 2.819608562455509 1.5462252067520492 6.562981584520745" Properties=species:S:1:pos:R:3:initial_magmoms:R:1:castep_labels:S:1 n_minim_iter=8 pbc="T T T"
P        2.78248969       2.72919913       1.55209679       0.00000000 NULL
P        5.80731804       6.00882029       0.77423230       0.00000000 NULL
P        2.53686144       2.92769184       3.97474083       0.00000000 NULL
P        5.47368382       3.60154258       1.58685758       0.00000000 NULL
P        3.89514868       4.50646654       0.36739423       0.00000000 NULL
P        3.40604219       3.00184906       6.09338753       0.00000000 NULL
P        4.42770887       7.87485723       6.84465870       0.00000000 NULL
P        4.22918817       1.72316845       2.79198294       0.00000000 NULL
P        7.70003365       3.16746760       5.94824602       0.00000000 NULL
P        5.93410225       1.38818583       1.44265246       0.00000000 NULL
P        5.99777266       5.85162025       4.86052743       0.00000000 NULL
P        7.42950756       3.97141553       3.92694357       0.00000000 NULL
12
Lattice="6.263055109774685 -0.8452904509313433 -0.15300455005410657 0.12935809958552102 6.847228980368939 0.37069695691628324 2.763339592084754 1.5401694420726055 6.4944212759443465" Properties=species:S:1:pos:R:3:initial_magmoms:R:1:castep_labels:S:1 n_minim_iter=9 pbc="T T T"
P        2.73064436       2.71847488       1.53260439       0.00000000 NULL
P        5.70836064       5.97944757       0.75998341       0.00000000 NULL
P        2.48804715       2.91559713       3.92681407       0.00000000 NULL
P        5.37378461       3.58970616       1.56914230       0.00000000 NULL
P        3.82406243       4.48442988       0.35793489       0.00000000 NULL
P        3.34569667       2.98733241       6.02514201       0.00000000 NULL
P        4.34715527       7.83006065       6.76889628       0.00000000 NULL
P        4.14754070       1.72511310       2.76188902       0.00000000 NULL
P        7.55002356       3.16676234       5.88000592       0.00000000 NULL
P        5.82216177       1.39935075       1.42634839       0.00000000 NULL
P        5.89296303       5.82112390       4.80339505       0.00000000 NULL
P        7.28865795       3.96701145       3.88285284       0.00000000 NULL
12
Lattice="6.262937672770719 -0.8623619290604072 -0.1561272264493405 0.1122292518934642 6.887091773353464 0.35923950518439685 2.756612013663237 1.5321004809464827 6.5164417639228525" Properties=species:S:1:pos:R:3:initial_magmoms:R:1:castep_labels:S:1 n_minim_iter=10 pbc="T T T"
P        2.72006436       2.72801776       1.53086643       0.00000000 NULL
P        5.69322510       5.99933496       0.74951632       0.00000000 NULL
P        2.47760026       2.92285178       3.93260081       0.00000000 NULL
P        5.36401537       3.59584042       1.56869014       0.00000000 NULL
P        3.80868323       4.50269666       0.34834344       0.00000000 NULL
P        3.33891877       2.98844914       6.03977647       0.00000000 NULL
P        4.32198982       7.85720589       6.77969929       0.00000000 NULL
P        4.14081935       1.72267529       2.76979696       0.00000000 NULL
P        7.53580319       3.16004800       5.89205981       0.00000000 NULL
P        5.81849272       1.39354985       1.42732446       0.00000000 NULL
P        5.87729374       5.83280230       4.80703434       0.00000000 NULL
P        7.27392582       3.97120886       3.88671823       0.00000000 NULL
12
Lattice="6.236386555528831 -0.8685341930616037 -0.16148480566113182 0.10190281714428959 6.902774884931848 0.35032699568741993 2.737426104027646 1.5259219707736922 6.5112618162310705" Properties=species:S:1:pos:R:3:initial_magmoms:R:1:castep_labels:S:1 n_minim_iter=11 pbc="T T T"
P        2.70116037       2.73185917       1.52373062       0.00000000 NULL
P        5.66113256       6.00570373       0.73707742       0.00000000 NULL
P        2.45835976       2.92543022       3.92308061       0.00000000 NULL
P        5.33518814       3.59669860       1.56160584       0.00000000 NULL
P        3.78281867       4.50959184       0.33847962       0.00000000 NULL
P        3.31878610       2.98645490       6.02991489       0.00000000 NULL
P        4.28442579       7.86619068       6.76542445       0.00000000 NULL
P        4.11757827       1.72130248       2.76511426       0.00000000 NULL
P        7.49188936       3.15501922       5.87845254       0.00000000 NULL
P        5.79158525       1.39140702       1.42082849       0.00000000 NULL
P        5.84195548       5.83384973       4.79206277       0.00000000 NULL
P        7.23222182       3.97253329       3.87459387       0.00000000 NULL
12
Lattice="5.986524255315399 -0.9394411025333886 -0.22445094125194076 -0.008126723093396692 7.084337170438754 0.25943931455599656 2.543020880293541 1.4654034091038062 6.464173631998871" Properties=species:S:1:pos:R:3:initial_magmoms:R:1:castep_labels:S:1 n_minim_iter=12 pbc="T T T"
P        2.51447208       2.77779571       1.44962547       0.00000000 NULL
P        5.34672970       6.08424171       0.60397568       0.00000000 NULL
P        2.26454558       2.96057554       3.82880761       0.00000000 NULL
P        5.05375913       3.61057608       1.48564269       0.00000000 NULL
P        3.52954487       4.59092422       0.23405786       0.00000000 NULL
P        3.11476843       2.97271553       5.93317517       0.00000000 NULL
P        3.90377754       7.97931391       6.62375390       0.00000000 NULL
P        3.88923813       1.70946329       2.71617528       0.00000000 NULL
P        7.06153852       3.10713637       5.73755815       0.00000000 NULL
P        5.53266135       1.36915880       1.34784233       0.00000000 NULL
P        5.49093072       5.85662889       4.63700050       0.00000000 NULL
P        6.82362269       3.99347387       3.74685083       0.00000000 NULL
12
Lattice="5.787724611520197 -1.056051648052198 -0.4220190390631819 -0.1560023928143689 7.203174159139091 0.22490337704370586 2.246531882997364 1.4363367358483015 6.348440261736868" Properties=species:S:1:pos:R:3:initial_magmoms:R:1:castep_labels:S:1 n_minim_iter=13 pbc="T T T"
P        2.31746389       2.78545575       1.34197454       0.00000000 NULL
P        5.01544845       6.08711268       0.40427463       0.00000000 NULL
P        2.00842106       2.98619794       3.70950282       0.00000000 NULL
P        4.75938534       3.56270400       1.32114830       0.00000000 NULL
P        3.28769352       4.60501326       0.09594601       0.00000000 NULL
P        2.80110123       2.95992549       5.78076693       0.00000000 NULL
P        3.41492522       8.04367203       6.43092482       0.00000000 NULL
P        3.63018992       1.67653973       2.58219965       0.00000000 NULL
P        6.57635549       3.02384568       5.44632701       0.00000000 NULL
P        5.27472633       1.30195856       1.14984415       0.00000000 NULL
P        5.06263827       5.83058156       4.38659011       0.00000000 NULL
P        6.38183699       3.95432229       3.48864272       0.00000000 NULL
12
Lattice="5.767911858027289 -1.0604303132839836 -0.41519347620466074 -0.1634804290326563 7.2777609634825655 0.17946448119468442 2.241650655460654 1.4113849383740855 6.410827689212003" Properties=species:S:1:pos:R:3:initial_magmoms:R:1:castep_labels:S:1 n_minim_iter=14 pbc="T T T"
P        2.30479069       2.81013548       1.33800563       0.00000000 NULL
P        4.99102528       6.15240390       0.37513584       0.00000000 NULL
P        1.99783570       2.99834440       3.72894024       0.00000000 NULL
P        4.74121524       3.59040428       1.32269297       0.00000000 NULL
P        3.26839598       4.65661541       0.07020996       0.00000000 NULL
P        2.79492713       2.95437616       5.82637247       0.00000000 NULL
P        3.39778655       8.08982448       6.45146882       0.00000000 NULL
P        3.61877454       1.67791234       2.60504514       0.00000000 NULL
P        6.55296412       3.02270364       5.48896419       0.00000000 NULL
P        5.25537487       1.31379142       1.15964393       0.00000000 NULL
P        5.04414659       5.86256466       4.39406613       0.00000000 NULL
P        6.35617603       3.98103289       3.50551869       0.00000000 NULL
12
Lattice="5.720223524800629 -1.0494553706031704 -0.42874133964056416 -0.1599162990737996 7.285580634934279 0.1652857110401778 2.2089089436332907 1.4077817556911558 6.383477653151607" Properties=species:S:1:pos:R:3:initial_magmoms:R:1:castep_labels:S:1 n_minim_iter=15 pbc="T T T"
P        2.28292553       2.81684553       1.32146614       0.00000000 NULL
P        4.95061874       6.16942778       0.34916655       0.00000000 NULL
P        1.97207556       3.00245531       3.70524292       0.00000000 NULL
P        4.70057547       3.59896965       1.30231454       0.00000000 NULL
P        3.24142493       4.66878246       0.05149791       0.00000000 NULL
P        2.76098579       2.95376583       5.79523455       0.00000000 NULL
P        3.35720720       8.09713218       6.40769464       0.00000000 NULL
P        3.58343250       1.68300758       2.58474499       0.00000000 NULL
P        6.48667702       3.02982258       5.44647320       0.00000000 NULL
P        5.20920608       1.32553968       1.13906465       0.00000000 NULL
P        4.99615263       5.87005862       4.35278824       0.00000000 NULL
P        6.29602791       3.99470328       3.47008178       0.00000000 NULL
12
Lattice="5.697265145369553 -1.0506307823307808 -0.4420426502682058 -0.16467424262362196 7.31132483324727 0.14886954699627877 2.1857703016328767 1.4008011440322887 6.37952401181124" Properties=species:S:1:pos:R:3:initial_magmoms:R:1:castep_labels:S:1 n_minim_iter=16 pbc="T T T"
P        2.26780846       2.82612506       1.30918382       0.00000000 NULL
P        4.92393996       6.19309081       0.32355556       0.00000000 NULL
P        1.95258700       3.00839576       3.69438663       0.00000000 NULL
P        4.67614090       3.60777618       1.28625819       0.00000000 NULL
P        3.22301218       4.68696708       0.03217533       0.00000000 NULL
P        2.73709176       2.95293325       5.78489722       0.00000000 NULL
P        3.32438115       8.11493438       6.38483230       0.00000000 NULL
P        3.56203577       1.68443921       2.57460527       0.00000000 NULL
P        6.44567356       3.03076047       5.42448582       0.00000000 NULL
P        5.18377354       1.33078146       1.12347493       0.00000000 NULL
P        4.96366550       5.88156539       4.32640496       0.00000000 NULL
P        6.25887449       4.00565728       3.44701655       0.00000000 NULL
12
Lattice="5.676196628179435 -1.05150077853009 -0.4553460639674927 -0.16883139039865924 7.33180828502771 0.1351637693887687 2.1636337876425604 1.3950865172813236 6.373456081612836" Properties=species:S:1:pos:R:3:initial_magmoms:R:1:castep_labels:S:1 n_minim_iter=17 pbc="T T T"
P        2.25392199       2.83360608       1.29766403       0.00000000 NULL
P        4.89950029       6.21216982       0.30016777       0.00000000 NULL
P        1.93432913       3.01316385       3.68333576       0.00000000 NULL
P        4.65356107       3.61443065       1.27073681       0.00000000 NULL
P        3.20633442       4.70154555       0.01468544       0.00000000 NULL
P        2.71431702       2.95201586       5.77336601       0.00000000 NULL
P        3.29359727       8.12900890       6.36243096       0.00000000 NULL
P        3.54198304       1.68548952       2.56396327       0.00000000 NULL
P        6.40732971       3.03132847       5.40176627       0.00000000 NULL
P        5.16027549       1.33509023       1.10803027       0.00000000 NULL
P        4.93330537       5.89044762       4.30096902       0.00000000 NULL
P        6.22439027       4.01445428       3.42420869       0.00000000 NULL
12
Lattice="5.596527704481498 -1.0558072505424552 -0.5097574428506838 -0.1855702909039362 7.408688537156378 0.08289237785588935 2.0761312332476534 1.3730480230887163 6.350093616039704" Properties=species:S:1:pos:R:3:initial_magmoms:R:1:castep_labels:S:1 n_minim_iter=18 pbc="T T T"
P        2.20030610       2.86150780       1.25266798       0.00000000 NULL
P        4.80541221       6.28338660       0.20805876       0.00000000 NULL
P        1.86285565       3.03065041       3.64039546       0.00000000 NULL
P        4.56664046       3.63769491       1.20898300       0.00000000 NULL
P        3.14254665       4.75586199      -0.05414489       0.00000000 NULL
P        2.62451711       2.94766780       5.72846642       0.00000000 NULL
P        3.17258002       8.18106746       6.27575863       0.00000000 NULL
P        3.46416094       1.68842405       2.52165739       0.00000000 NULL
P        6.25862042       3.03204836       5.31189049       0.00000000 NULL
P        5.07026622       1.35045179       1.04610388       0.00000000 NULL
P        4.81512181       5.92251036       4.20141077       0.00000000 NULL
P        6.09115694       4.04637600       3.33377709       0.00000000 NULL
12
Lattice="5.580381464773812 -1.0573138408638076 -0.5216669322966205 -0.1895979708700304 7.418713135250424 0.0740438250521378 2.057485559408675 1.3686330617887772 6.346226088963224" Properties=species:S:1:pos:R:3:initial_magmoms:R:1:castep_labels:S:1 n_minim_iter=19 pbc="T T T"
P        2.18908231       2.86482857       1.24431623       0.00000000 NULL
P        4.78549586       6.29224889       0.19044136       0.00000000 NULL
P        1.84781754       3.03211182       3.63261907       0.00000000 NULL
P        4.54843581       3.63881508       1.19678567       0.00000000 NULL
P        3.12929965       4.76259530      -0.06741424       0.00000000 NULL
P        2.60527395       2.94527261       5.72037759       0.00000000 NULL
P        3.14658885       8.18621144       6.26044952       0.00000000 NULL
P        3.44776094       1.68739626       2.51337832       0.00000000 NULL
P        6.22743022       3.02985400       5.29449128       0.00000000 NULL
P        5.05162614       1.35163327       1.03353501       0.00000000 NULL
P        4.78992997       5.92454478       4.18274576       0.00000000 NULL
P        6.06326454       4.04914864       3.31610940       0.00000000 NULL
12
Lattice="5.498656043475386 -1.0664882776020728 -0.5830169458579189 -0.2115366380569814 7.47055221669883 0.02676036812072634 1.9618226733187256 1.3438176793706043 6.331038294787774" Properties=species:S:1:pos:R:3:initial_magmoms:R:1:castep_labels:S:1 n_minim_iter=20 pbc="T T T"
P        2.13133148       2.88130631       1.20176235       0.00000000 NULL
P        4.68286970       6.33697316       0.09874605       0.00000000 NULL
P        1.77062560       3.03819568       3.59462399       0.00000000 NULL
P        4.45513269       3.64283500       1.13428767       0.00000000 NULL
P        3.06113811       4.79671603      -0.13701935       0.00000000 NULL
P        2.50645259       2.93074194       5.68230317       0.00000000 NULL
P        3.01230823       8.21050682       6.18458585       0.00000000 NULL
P        3.36379723       1.68017781       2.47255583       0.00000000 NULL
P        6.06786955       3.01576170       5.20854980       0.00000000 NULL
P        4.95650813       1.35624393       0.96958179       0.00000000 NULL
P        4.66042339       5.93280007       4.08849890       0.00000000 NULL
P        5.92037839       4.06122386       3.22689492       0.00000000 NULL
12
Lattice="5.411885078758135 -1.0795408282039307 -0.6422240505389288 -0.23814903080619199 7.50470847687228 -0.02356868721641216 1.8646262154976163 1.3102093555184515 6.327916677633908" Properties=species:S:1:pos:R:3:initial_magmoms:R:1:castep_labels:S:1 n_minim_iter=21 pbc="T T T"
P        2.06974664       2.88805348       1.16215164       0.00000000 NULL
P        4.57088849       6.36177669       0.00787484       0.00000000 NULL
P        1.69146737       3.03176789       3.56254125       0.00000000 NULL
P        4.35525563       3.63190433       1.07417794       0.00000000 NULL
P        2.98714945       4.81602690      -0.20847143       0.00000000 NULL
P        2.40463763       2.90260610       5.65338480       0.00000000 NULL
P        2.87080025       8.20836140       6.11809399       0.00000000 NULL
P        3.27549245       1.66202475       2.43755484       0.00000000 NULL
P        5.90107685       2.98527836       5.13468237       0.00000000 NULL
P        4.85538051       1.35136404       0.91020052       0.00000000 NULL
P        4.52272766       5.91919132       4.00189790       0.00000000 NULL
P        5.76924881       4.05514882       3.14511572       0.00000000 NULL
12
Lattice="5.390821121242103 -1.0818838884048456 -0.6584872064503519 -0.2437819018334732 7.512449442221674 -0.0397044656125682 1.8395842447552557 1.2991670752401472 6.328332695518036" Properties=species:S:1:pos:R:3:initial_magmoms:R:1:castep_labels:S:1 n_minim_iter=22 pbc="T T T"
P        2.05471919       2.88922317       1.15094978       0.00000000 NULL
P        4.54420704       6.36815112      -0.01900392       0.00000000 NULL
P        1.67189660       3.02822035       3.55366874       0.00000000 NULL
P        4.33123777       3.62869663       1.05640185       0.00000000 NULL
P        2.96975876       4.82073100      -0.23010776       0.00000000 NULL
P        2.37907596       2.89283787       5.64555523       0.00000000 NULL
P        2.83578499       8.20469735       6.09879482       0.00000000 NULL
P        3.25351306       1.65616563       2.42802947       0.00000000 NULL
P        5.85950810       2.97600830       5.11494593       0.00000000 NULL
P        4.83066699       1.35021304       0.89378193       0.00000000 NULL
P        4.48889892       5.91385208       3.97742116       0.00000000 NULL
P        5.73204539       4.05267118       3.12228893       0.00000000 NULL
12
Lattice="5.30582599835141 -1.088360315580948 -0.7244956195114104 -0.2635262230495983 7.538365377890539 -0.10649845700105443 1.7388949552393043 1.253336150945338 6.325451650577862" Properties=species:S:1:pos:R:3:initial_magmoms:R:1:castep_labels:S:1 n_minim_iter=23 pbc="T T T"
P        1.99528753       2.89253712       1.10437235       0.00000000 NULL
P        4.43935923       6.39144533      -0.12954242       0.00000000 NULL
P        1.59451489       3.01153968       3.51436776       0.00000000 NULL
P        4.23596712       3.61468236       0.98236741       0.00000000 NULL
P        2.90186997       4.83752776      -0.31942609       0.00000000 NULL
P        2.27719188       2.85112559       5.60865172       0.00000000 NULL
P        2.69756582       8.18445879       6.01455083       0.00000000 NULL
P        3.16547454       1.63184815       2.38731077       0.00000000 NULL
P        5.69317579       2.93821454       5.03042501       0.00000000 NULL
P        4.73169793       1.34645779       0.82599600       0.00000000 NULL
P        4.35485474       5.88927400       3.87394204       0.00000000 NULL
P        5.58368327       4.04177251       3.02646948       0.00000000 NULL
12
Lattice="5.176740184170942 -1.0781018638066084 -0.8539192078515325 -0.27337232856035903 7.566240617944706 -0.2558658863540044 1.565347419370969 1.1527503085276773 6.300711897366303" Properties=species:S:1:pos:R:3:initial_magmoms:R:1:castep_labels:S:1 n_minim_iter=24 pbc="T T T"
P        1.90690826       2.89512525       1.00462480       0.00000000 NULL
P        4.29549587       6.43469557      -0.36393501       0.00000000 NULL
P        1.47387635       2.96520101       3.41818132       0.00000000 NULL
P        4.09876833       3.59020218       0.82136245       0.00000000 NULL
P        2.81256226       4.86608208      -0.51179469       0.00000000 NULL
P        2.11348127       2.75504023       5.50970143       0.00000000 NULL
P        2.48537299       8.11996966       5.81247913       0.00000000 NULL
P        3.02559801       1.58221699       2.29604254       0.00000000 NULL
P        5.42817702       2.86660898       4.84259786       0.00000000 NULL
P        4.58149137       1.35001210       0.68608908       0.00000000 NULL
P        4.15326832       5.83147187       3.64415731       0.00000000 NULL
P        5.35543777       4.02302234       2.81924231       0.00000000 NULL
12
Lattice="5.092363495158049 -1.0232870497105868 -0.9997676185000249 -0.2315887491755665 7.596733095476751 -0.41481639101947376 1.4099772402859208 1.0670864706154473 6.346990881581193" Properties=species:S:1:pos:R:3:initial_magmoms:R:1:castep_labels:S:1 n_minim_iter=25 pbc="T T T"
P        1.85568981       2.91713342       0.91786207       0.00000000 NULL
P        4.24157425       6.51824080      -0.60751066       0.00000000 NULL
P        1.39426145       2.92959843       3.34539537       0.00000000 NULL
P        4.02822235       3.60785780       0.65998244       0.00000000 NULL
P        2.78715691       4.92028497      -0.72663263       0.00000000 NULL
P        1.99176021       2.67233787       5.46240195       0.00000000 NULL
P        2.34567465       8.09274931       5.66733611       0.00000000 NULL
P        2.92223505       1.55250016       2.22585225       0.00000000 NULL
P        5.23234421       2.84550596       4.70610787       0.00000000 NULL
P        4.48505187       1.39612167       0.55291943       0.00000000 NULL
P        4.02902496       5.81634062       3.44428625       0.00000000 NULL
P        5.20476368       4.05874077       2.64085831       0.00000000 NULL
12