36
Lattice="10.233188630588343 -6.285033270803087e-14 1.711032986367722e-42 -5.116594315294116 8.862201315807628 -9.909408918905404e-41 -1.3002000544410671e-42 8.619919498529885e-41 7.776116837377308" Properties=species:S:1:pos:R:3:initial_magmoms:R:1:castep_labels:S:1:forces:R:3 n_minim_iter=1 energy=-194.96191729896128 stress="5.384248134155004e-05 -2.4148099301325017e-12 1.9916783638508523e-12 -2.4148099301325017e-12 5.384246913546262e-05 5.157870145944943e-14 1.9916783638508523e-12 5.157870145944943e-14 -0.00032442180401389477" free_energy=-194.96191729896128 pbc="T T T"
P       -1.14240287       3.38991450       0.32792492       0.00000000 NULL       0.00536339      -0.00560014      -0.00156693
P        2.75204419       6.17789327       0.32792492       0.00000000 NULL       0.00216817       0.00744490      -0.00156693
P       -1.60963977       8.15659397       0.32792492       0.00000000 NULL      -0.00753156      -0.00184476      -0.00156693
P        4.52246948       4.90576144      -0.08244541       0.00000000 NULL      -0.00136002      -0.00230117       0.00201715
P        3.72344037       1.46369185      -0.08244541       0.00000000 NULL       0.00267288      -0.00002722       0.00201715
P        7.10387464       2.49274714      -0.08244541       0.00000000 NULL      -0.00131287       0.00232840       0.00201715
P       -0.24930292       1.35583942       5.87095713       0.00000000 NULL       0.00038529       0.00148056       0.00203681
P        4.06705491       7.96837805       5.87095713       0.00000000 NULL      -0.00147485      -0.00040661       0.00203681
P       -3.81775044       8.40018427       5.87095713       0.00000000 NULL       0.00108956      -0.00107395       0.00203681
P        4.74137198       5.65645077       5.65243814       0.00000000 NULL      -0.00049506       0.00426521      -0.00140350
P        2.96387310       1.27792230       5.65243814       0.00000000 NULL      -0.00344625      -0.00256133      -0.00140350
P        7.64453942       1.92782735       5.65243814       0.00000000 NULL       0.00394130      -0.00170387      -0.00140350
P        3.47894806       8.02994871       3.47890968       0.00000000 NULL      -0.00263870      -0.00241311       0.00026080
P        1.53957554      -1.00211784       3.47890968       0.00000000 NULL       0.00340916      -0.00107862       0.00026080
P       10.33126089       1.83436956       3.47890968       0.00000000 NULL      -0.00077047       0.00349173       0.00026080
P       -1.57129725       7.11603310       3.95149037       0.00000000 NULL      -0.00588107       0.00500920       0.00037695
P       -0.26042198       3.94340053       3.95149037       0.00000000 NULL      -0.00139756      -0.00759776       0.00037695
P        1.83172078       6.66496811       3.95149037       0.00000000 NULL       0.00727863       0.00258856       0.00037695
P        6.88814506       3.91712900       3.06453163       0.00000000 NULL       0.00083518      -0.00170657      -0.00290143
P        3.39678340       4.00674322       3.06453163       0.00000000 NULL       0.00106034       0.00157657      -0.00290144
P        5.06485604       0.93832821       3.06453163       0.00000000 NULL      -0.00189552       0.00013000      -0.00290144
P       -0.42483512       7.78191343       2.16328579       0.00000000 NULL       0.00051238       0.00282671      -0.00080098
P       -1.41032233       4.60332571       2.16328579       0.00000000 NULL      -0.00270419      -0.00096962      -0.00080098
P        1.83515899       5.33916261       2.16328579       0.00000000 NULL       0.00219182      -0.00185709      -0.00080098
P        2.01158745       2.59676710       0.76957317       0.00000000 NULL      -0.00377362      -0.00079939      -0.00138914
P        6.97852915       0.44370139       0.76957317       0.00000000 NULL       0.00257910      -0.00286835      -0.00138914
P        6.35966789       5.82173194       0.76957317       0.00000000 NULL       0.00119451       0.00366775      -0.00138914
P        8.83812079      -0.71210244       8.20491729       0.00000000 NULL      -0.00153953      -0.00273288       0.00144642
P        6.43082755       8.01008745       8.20491729       0.00000000 NULL       0.00313651       0.00003317       0.00144642
P        0.08083615       1.56421541       8.20491729       0.00000000 NULL      -0.00159698       0.00269971       0.00144642
P        7.94687088       4.04435096       5.05183300       0.00000000 NULL       0.00016219       0.00276607       0.00221973
P        2.75724304       4.86001569       5.05183300       0.00000000 NULL      -0.00247658      -0.00124257       0.00221973
P        4.64567058      -0.04216622       5.05183300       0.00000000 NULL       0.00231439      -0.00152349       0.00221973
P        7.35460621       1.03259592       2.92337429       0.00000000 NULL      -0.00211140       0.00113707      -0.00029588
P        5.66163174       5.85297696       2.92337429       0.00000000 NULL       0.00007097      -0.00239706      -0.00029588
P        2.33354654       1.97662755       2.92337429       0.00000000 NULL       0.00204043       0.00125999      -0.00029588
