10
Lattice="2.6262000000000016 1.0061011657807934e-16 9.517257932130308e-17 -0.3829437665980761 9.090157382577251 -3.273031402532305e-16 -0.38294376659807616 -0.1495263095754606 9.088927501238437" Properties=species:S:1:pos:R:3:initial_magmoms:R:1:castep_labels:S:1 n_minim_iter=1 pbc="T T T"
P        0.57133707       1.67037482       8.73144362       0.00000000 NULL
P        0.57133707       8.70278585       1.81377456       0.00000000 NULL
P        0.31783327       3.63210972       9.05386151       0.00000000 NULL
P        0.31783327       8.99289104       3.78054757       0.00000000 NULL
P        1.90684222       1.14927395       7.24313265       0.00000000 NULL
P        1.90684222       7.22324797       1.26826259       0.00000000 NULL
P        0.67055066       4.86527757       6.40315579       0.00000000 NULL
P        0.67055066       6.32225927       4.96994645       0.00000000 NULL
P        0.21124401       7.26611285       8.83991634       0.00000000 NULL
P        0.21124401       8.71919818       7.41053979       0.00000000 NULL
10
Lattice="2.6338567371086654 0.0001235611405842524 0.00012561062407907516 -0.38363256011493135 9.110278592675677 0.003651851818969614 -0.3836325601149314 -0.14620593074510904 9.109106059213564" Properties=species:S:1:pos:R:3:initial_magmoms:R:1:castep_labels:S:1 n_minim_iter=2 pbc="T T T"
P        0.57352135       1.67756216       8.75203807       0.00000000 NULL
P        0.57352135       8.72325929       1.82129969       0.00000000 NULL
P        0.31937966       3.64415885       9.07554856       0.00000000 NULL
P        0.31937966       9.01437696       3.79295181       0.00000000 NULL
P        1.91277998       1.15514735       7.25943813       0.00000000 NULL
P        1.91277998       7.23945463       1.27440341       0.00000000 NULL
P        0.67303665       4.87850151       6.41960741       0.00000000 NULL
P        0.67303665       6.33849114       4.98343922       0.00000000 NULL
P        0.21261281       7.28553971       8.86215862       0.00000000 NULL
P        0.21261281       8.74111789       7.43032989       0.00000000 NULL
10
Lattice="2.8029584758108133 0.0030504306472615497 0.0031010275196610418 -0.3981595391351586 9.549588943927963 0.08887508905292263 -0.398159539135159 -0.06822055170008734 9.549758831288411" Properties=species:S:1:pos:R:3:initial_magmoms:R:1:castep_labels:S:1 n_minim_iter=3 pbc="T T T"
P        0.62256793       1.83994623       9.20333782       0.00000000 NULL
P        0.62256793       9.17182688       1.99108533       0.00000000 NULL
P        0.35455278       3.91304970       9.55155184       0.00000000 NULL
P        0.35455278       9.48589278       4.06963618       0.00000000 NULL
P        2.04453924       1.28817428       7.61630637       0.00000000 NULL
P        2.04453924       7.59408639       1.41328255       0.00000000 NULL
P        0.72878632       5.17112100       6.78209562       0.00000000 NULL
P        0.72878632       6.69611693       5.28198178       0.00000000 NULL
P        0.24403648       7.71465189       9.35196455       0.00000000 NULL
P        0.24403648       9.22379897       7.86744095       0.00000000 NULL
10
Lattice="2.810897011399687 0.00459270318945869 0.004668881422671288 -0.39397878846281026 9.627745175055265 0.1707752844214142 -0.3939787884628106 0.012382951010990711 9.62925168515671" Properties=species:S:1:pos:R:3:initial_magmoms:R:1:castep_labels:S:1 n_minim_iter=4 pbc="T T T"
P        0.63019181       1.93456397       9.30105724       0.00000000 NULL
P        0.63019181       9.26797669       2.08729769       0.00000000 NULL
P        0.36419721       4.02948359       9.66449390       0.00000000 NULL
P        0.36419721       9.59690431       4.18791213       0.00000000 NULL
P        2.05506549       1.36811056       7.69094732       0.00000000 NULL
P        2.05506549       7.66740235       1.49443581       0.00000000 NULL
P        0.73711597       5.27086644       6.88503214       0.00000000 NULL
P        0.73711597       6.79739878       5.38340694       0.00000000 NULL
P        0.25398512       7.85126304       9.49195551       0.00000000 NULL
P        0.25398512       9.36152385       8.00633637       0.00000000 NULL
10
Lattice="2.797133878001846 0.006365217198125194 0.006470795760502307 -0.3858366296610583 9.691638188128984 0.28202720269777815 -0.3858366296610586 0.12256882469616436 9.694966064709774" Properties=species:S:1:pos:R:3:initial_magmoms:R:1:castep_labels:S:1 n_minim_iter=5 pbc="T T T"
P        0.63351310       2.05613549       9.39302647       0.00000000 NULL
P        0.63351310       9.35793372       2.21036558       0.00000000 NULL
P        0.37322477       4.16985768       9.77496036       0.00000000 NULL
P        0.37322477       9.70504678       4.33008432       0.00000000 NULL
P        2.05055380       1.47170142       7.75993201       0.00000000 NULL
P        2.05055380       7.73467371       1.59914740       0.00000000 NULL
P        0.74064979       5.38380767       6.99510061       0.00000000 NULL
P        0.74064979       6.90559457       5.49814344       0.00000000 NULL
P        0.26351377       8.00117625       9.64070744       0.00000000 NULL
P        0.26351377       9.50778969       8.15867616       0.00000000 NULL
10
Lattice="2.7616143942880775 0.009167444187913987 0.009319502719132327 -0.3709578507257672 9.728245907127812 0.40582947172879985 -0.3709578507257674 0.24575217383532175 9.733605285747304" Properties=species:S:1:pos:R:3:initial_magmoms:R:1:castep_labels:S:1 n_minim_iter=6 pbc="T T T"
P        0.63560029       2.18691768       9.46375258       0.00000000 NULL
P        0.63560029       9.42649899       2.34229346       0.00000000 NULL
P        0.38555668       4.31163687       9.86244998       0.00000000 NULL
P        0.38555668       9.79019239       4.47328346       0.00000000 NULL
P        2.03355488       1.58551556       7.81177004       0.00000000 NULL
P        2.03355488       7.78463257       1.71379884       0.00000000 NULL
P        0.74288358       5.49102922       7.09482013       0.00000000 NULL
P        0.74288358       7.00353688       5.60699080       0.00000000 NULL
P        0.27762953       8.13697335       9.77146940       0.00000000 NULL
P        0.27762953       9.63630020       8.29660582       0.00000000 NULL
10
Lattice="2.713804904598038 0.01691680867788888 0.017197404340947672 -0.3371632848549796 9.784731929154788 0.5767252392697185 -0.33716328485497976 0.4156956665621361 9.792894773244186" Properties=species:S:1:pos:R:3:initial_magmoms:R:1:castep_labels:S:1 n_minim_iter=7 pbc="T T T"
P        0.65351309       2.37293766       9.57297335       0.00000000 NULL
P        0.65351309       9.53264509       2.53008488       0.00000000 NULL
P        0.42265800       4.50989149       9.98762710       0.00000000 NULL
P        0.42265800       9.91209144       4.67357033       0.00000000 NULL
P        2.02347133       1.75292714       7.89391276       0.00000000 NULL
P        2.02347133       7.86401038       1.88253896       0.00000000 NULL
P        0.76301260       5.64159470       7.24229457       0.00000000 NULL
P        0.76301260       7.14851467       5.75996175       0.00000000 NULL
P        0.32125494       8.32186264       9.95416448       0.00000000 NULL
P        0.32125494       9.81592926       8.48447529       0.00000000 NULL
10
Lattice="2.6729233409214403 0.031154033896855175 0.0316707795174208 -0.2819222682110311 9.809510528661646 0.6985993991421124 -0.2819222682110312 0.5371457476058171 9.819674759289859" Properties=species:S:1:pos:R:3:initial_magmoms:R:1:castep_labels:S:1 n_minim_iter=8 pbc="T T T"
P        0.69803987       2.51162679       9.64940716       0.00000000 NULL
P        0.69803987       9.60678722       2.67001252       0.00000000 NULL
P        0.49319397       4.64557722      10.05705928       0.00000000 NULL
P        0.49319397       9.97928230       4.81037981       0.00000000 NULL
P        2.03944463       1.89133055       7.95281200       0.00000000 NULL
P        2.03944463       7.92062502       2.02189248       0.00000000 NULL
P        0.81305194       5.73928252       7.34920014       0.00000000 NULL
P        0.81305194       7.25379889       5.85939487       0.00000000 NULL
P        0.40561349       8.42559931      10.06302518       0.00000000 NULL
P        0.40561349       9.92306884       8.58998860       0.00000000 NULL
10
Lattice="2.6023872245068445 0.08605781495012915 0.08748523841439586 -0.08159655928793766 9.87936015815483 1.0197510200333302 -0.08159655928793762 0.8571049429698852 9.894797642909763" Properties=species:S:1:pos:R:3:initial_magmoms:R:1:castep_labels:S:1 n_minim_iter=9 pbc="T T T"
P        0.89345792       2.89038813       9.88415884       0.00000000 NULL
P        0.89345792       9.83527680       3.05258411       0.00000000 NULL
P        0.77069855       5.00838596      10.23504430       0.00000000 NULL
P        0.77069855      10.15127530       5.17606718       0.00000000 NULL
P        2.16693645       2.29810941       8.13720980       0.00000000 NULL
P        2.16693645       8.09830667       2.43164951       0.00000000 NULL
P        1.02965257       5.99367693       7.66238924       0.00000000 NULL
P        1.02965257       7.56276101       6.11890658       0.00000000 NULL
P        0.73420781       8.67278360      10.34117848       0.00000000 NULL
P        0.73420781      10.19711851       8.84171487       0.00000000 NULL
10
Lattice="2.331806135165883 0.07855483016467302 0.07985780314712117 -0.06811166515056827 9.403376594049908 0.9190497284399937 -0.06811166515056824 0.7642468507181969 9.417222017348776" Properties=species:S:1:pos:R:3:initial_magmoms:R:1:castep_labels:S:1 n_minim_iter=10 pbc="T T T"
P        0.80124129       2.69138425       9.43099319       0.00000000 NULL
P        0.80124129       9.38544593       2.84615291       0.00000000 NULL
P        0.70641800       4.73215814       9.68649358       0.00000000 NULL
P        0.70641800       9.60734254       4.89085349       0.00000000 NULL
P        1.95120514       2.18372723       7.73990128       0.00000000 NULL
P        1.95120514       7.70293340       2.31074738       0.00000000 NULL
P        0.92458450       5.65067002       7.30576737       0.00000000 NULL
P        0.92458450       7.21182960       5.77007993       0.00000000 NULL
P        0.66252011       8.14341793       9.77431327       0.00000000 NULL
P        0.66252011       9.63903767       8.30309631       0.00000000 NULL
10
Lattice="2.538115836755025 0.08972148314512537 0.09120967512820534 -0.05954353674577685 9.877154312898531 1.0624385945216188 -0.059543536745776844 0.899823026418331 9.893294274864486" Properties=species:S:1:pos:R:3:initial_magmoms:R:1:castep_labels:S:1 n_minim_iter=11 pbc="T T T"
P        0.88923301       2.92451793       9.93767466       0.00000000 NULL
P        0.88923301       9.88822397       3.08758959       0.00000000 NULL
P        0.79046453       5.07786601      10.21981693       0.00000000 NULL
P        0.79046453      10.13490710       5.24528735       0.00000000 NULL
P        2.13878392       2.37933675       8.14517502       0.00000000 NULL
P        2.13878392       8.10493468       2.51299689       0.00000000 NULL
P        1.02429847       6.00715889       7.73398488       0.00000000 NULL
P        1.02429847       7.63412520       6.13356442       0.00000000 NULL
P        0.74520263       8.64096388      10.34211765       0.00000000 NULL
P        0.74520263      10.19858097       8.80991490       0.00000000 NULL
