30
Lattice="6.589200894978358 -1.5673465160557102e-15 1.3517992990266643e-42 -3.2946004474891777 5.706415365690417 1.1657458590910304e-41 -3.5991185818618564e-42 -3.7917059807947595e-41 17.54351803393676" Properties=species:S:1:pos:R:3:initial_magmoms:R:1:castep_labels:S:1:forces:R:3 n_minim_iter=1 energy=-160.32025666180843 stress="7.949667972890852e-05 4.095531997069184e-12 -3.000704368043966e-12 4.095531997069184e-12 7.949667770613405e-05 3.727536545852282e-12 -3.000704368043966e-12 3.727536545852282e-12 0.0006029820807643806" free_energy=-160.32025666180843 pbc="T T T"
P       -0.45388733       4.59244830      11.75508311       0.00000000 NULL      -0.02566798      -0.01076673      -0.00785667
P        0.90952010       3.80326917       5.90724376       0.00000000 NULL       0.00350973       0.02761248      -0.00785667
P       -0.45563278       3.01711326      17.60292245       0.00000000 NULL       0.02215825      -0.01684576      -0.00785667
P       -2.84090966       5.64508641       3.51366889       0.00000000 NULL       0.01476982       0.01224417      -0.03398755
P        3.01464262       5.34417210      15.20934758       0.00000000 NULL       0.00321885      -0.01891313      -0.03398755
P       -0.17373296       0.42357223       9.36150823       0.00000000 NULL      -0.01798868       0.00666895      -0.03398755
P        0.42771416       4.90007418       2.58802443       0.00000000 NULL       0.00788585       0.00106443       0.01807673
P        0.73513119       2.88596694      14.28370312       0.00000000 NULL      -0.00302110      -0.00736157       0.01807673
P       -1.16284536       3.62678961       8.43586378       0.00000000 NULL      -0.00486475       0.00629714       0.01807673
P        1.71729781       5.13307448      11.97362056       0.00000000 NULL       0.01257181      -0.00871558       0.01977531
P        0.29212355       1.65265460       6.12578121       0.00000000 NULL      -0.01383382      -0.00652972       0.01977531
P       -2.00942136       4.62710166       0.27794187       0.00000000 NULL       0.00126201       0.01524530       0.01977531
P       -3.32504713       4.02292623       8.56244252       0.00000000 NULL      -0.00106427       0.01114271      -0.01018004
P        1.85187943       6.57452754       2.71460317       0.00000000 NULL       0.01018201      -0.00464967      -0.01018004
P        1.47316770       0.81537697      14.41028186       0.00000000 NULL      -0.00911774      -0.00649304      -0.01018004
P        2.13758421       0.81913589       6.87129064       0.00000000 NULL       0.01556629      -0.02054560       0.00963226
P        2.93520083       3.44564519       1.02345129       0.00000000 NULL      -0.02557616      -0.00320800       0.00963226
P        4.81101630       1.44163429      12.71912998       0.00000000 NULL       0.01000987       0.02375361       0.00963226
P        3.43876294       3.46071858       3.15100417       0.00000000 NULL      -0.01255238       0.03137353      -0.02218937
P        4.57228918       0.99800002      14.84668286       0.00000000 NULL       0.03344646      -0.00481608      -0.02218937
P        1.87274922       1.24769677       8.99884351       0.00000000 NULL      -0.02089408      -0.02655744      -0.02218937
P       -0.11473835       5.25881556       9.59307203       0.00000000 NULL      -0.00269908      -0.01824823       0.00061889
P        1.31703660       3.17637392       3.74523268       0.00000000 NULL      -0.01445389       0.01146159       0.00061889
P       -1.20229825       2.97764126      15.44091137       0.00000000 NULL       0.01715297       0.00678664       0.00061889
P        3.09142427       4.05120332       6.34463331       0.00000000 NULL      -0.00145963      -0.01724802       0.03702657
P        5.25733330       1.00356175       0.49679397       0.00000000 NULL      -0.01420741       0.00988809       0.03702657
P        1.53504377       0.65165030      12.19247266       0.00000000 NULL       0.01566704       0.00735993       0.03702657
P        2.73198214       3.89404930      13.52093343       0.00000000 NULL       0.01612360       0.00039367      -0.01091614
P       -1.28824590       1.39342478       7.67309409       0.00000000 NULL      -0.00772087      -0.01416028      -0.01091614
P       -1.44373624       6.12535665       1.82525475       0.00000000 NULL      -0.00840273       0.01376661      -0.01091614
30
Lattice="6.588626790955026 -1.5147884159770297e-15 5.304696145807863e-42 -3.294313395477512 5.705918177021797 1.956247215238564e-41 6.564813887540239e-42 -8.55812743947371e-42 17.531927448636306" Properties=species:S:1:pos:R:3:initial_magmoms:R:1:castep_labels:S:1:forces:R:3 n_minim_iter=2 energy=-160.32044453599084 stress="-5.626456983338499e-05 -1.0073693748546489e-12 3.927508492697898e-12 -1.0073693748546489e-12 -5.6264567235440776e-05 5.773002625710746e-12 3.927508492697898e-12 5.773002625710746e-12 -3.491393536728313e-05" free_energy=-160.32044453599084 pbc="T T T"
P       -0.45389043       4.59203028      11.74730376       0.00000000 NULL      -0.02543490      -0.01377377       0.00195069
P        0.90944669       3.80298368       5.90332794       0.00000000 NULL       0.00078901       0.02891416       0.00195068
P       -0.45555627       3.01682240      17.59127957       0.00000000 NULL       0.02464589      -0.01514038       0.00195069
P       -2.84063760       5.64461491       3.51129106       0.00000000 NULL       0.01363812       0.01281861      -0.02341889
P        3.01438531       5.34367505      15.19924269       0.00000000 NULL       0.00428218      -0.01822027      -0.02341889
P       -0.17374771       0.42354640       9.35526687       0.00000000 NULL      -0.01792030       0.00540166      -0.02341889
P        0.42769000       4.89964902       2.58634460       0.00000000 NULL       0.00586553       0.00179526       0.01616161
P        0.73506212       2.88570327      14.27429623       0.00000000 NULL      -0.00137803      -0.00597733       0.01616162
P       -1.16275212       3.62648408       8.43032042       0.00000000 NULL      -0.00448751       0.00418207       0.01616162
P        1.71716907       5.13261277      11.96574271       0.00000000 NULL       0.01186049      -0.00879063       0.01244152
P        0.29207511       1.65249976       6.12176689       0.00000000 NULL      -0.01354315      -0.00587617       0.01244152
P       -2.00924418       4.62672383       0.27779107       0.00000000 NULL       0.00168266       0.01466679       0.01244152
P       -3.32475920       4.02259424       8.55676861       0.00000000 NULL      -0.00112424       0.01002876       0.00205246
P        1.85173500       6.57394698       2.71279279       0.00000000 NULL       0.00924728      -0.00404076       0.00205246
P        1.47302419       0.81529514      14.40074443       0.00000000 NULL      -0.00812304      -0.00598800       0.00205246
P        2.13742383       0.81903038       6.86676693       0.00000000 NULL       0.01837465      -0.02326211      -0.00527389
P        2.93490260       3.44533965       1.02279112       0.00000000 NULL      -0.02933291      -0.00428186      -0.00527389
P        4.81061376       1.44154815      12.71074275       0.00000000 NULL       0.01095826       0.02754397      -0.00527389
P        3.43844247       3.46046918       3.14888553       0.00000000 NULL      -0.00731384       0.02888772      -0.00905127
P        4.57194638       0.99790506      14.83683716       0.00000000 NULL       0.02867442      -0.00810989      -0.00905127
P        1.87255134       1.24754394       8.99286135       0.00000000 NULL      -0.02136058      -0.02077784      -0.00905127
P       -0.11473284       5.25832706       9.58673514       0.00000000 NULL       0.00285142      -0.01785242      -0.00595661
P        1.31689783       3.17611621       3.74275932       0.00000000 NULL      -0.01688637       0.00645681      -0.00595661
P       -1.20216500       2.97739310      15.43071096       0.00000000 NULL       0.01403494       0.01139562      -0.00595661
P        3.09115250       4.05082169       6.34050304       0.00000000 NULL      -0.00199474      -0.01498587       0.02374602
P        5.25685163       1.00349074       0.49652723       0.00000000 NULL      -0.01198077       0.00922043       0.02374602
P        1.53493605       0.65160575      12.18447886       0.00000000 NULL       0.01397551       0.00576544       0.02374602
P        2.73177089       3.89371068      13.51198235       0.00000000 NULL       0.01906253      -0.00522805      -0.01265162
P       -1.28814648       1.39327985       7.66800653       0.00000000 NULL      -0.01405889      -0.01389462      -0.01265162
P       -1.44362441       6.12484583       1.82403072       0.00000000 NULL      -0.00500365       0.01912266      -0.01265162
30
Lattice="6.59171935917913 -1.7649629899368097e-15 5.408270601643746e-42 -3.295859679589564 5.708596419666809 3.097510635389202e-41 6.835085150713324e-42 -1.9648452394274479e-41 17.52966407920636" Properties=species:S:1:pos:R:3:initial_magmoms:R:1:castep_labels:S:1:forces:R:3 n_minim_iter=3 energy=-160.3205892865058 stress="0.00033315963681972204 -3.2274307369295743e-12 7.696372726853047e-12 -3.2274307369295743e-12 0.00033315964663991455 -5.0133007658655395e-12 7.696372726853047e-12 -5.0133007658655395e-12 -0.00012085448928725564" free_energy=-160.3205892865058 pbc="T T T"
P       -0.45449638       4.59397652      11.74580597       0.00000000 NULL      -0.01714816      -0.00182182       0.00599446
P        0.90988888       3.80521358       5.90258461       0.00000000 NULL       0.00699633       0.01576165       0.00599446
P       -0.45539250       3.01800275      17.58902732       0.00000000 NULL       0.01015182      -0.01393983       0.00599446
P       -2.84175910       5.64746160       3.51046469       0.00000000 NULL       0.00984623       0.01000549      -0.02206481
P        3.01586508       5.34590120      15.19690741       0.00000000 NULL       0.00374189      -0.01352983      -0.02206481
P       -0.17410598       0.42383005       9.35368605       0.00000000 NULL      -0.01358812       0.00352434      -0.02206481
P        0.42798362       4.90197569       2.58626197       0.00000000 NULL       0.00842168       0.01069175       0.01528291
P        0.73538398       2.88696389      14.27270469       0.00000000 NULL       0.00504849      -0.01263926       0.01528291
P       -1.16336761       3.62825327       8.42948333       0.00000000 NULL      -0.01347016       0.00194751       0.01528291
P        1.71815899       5.13488630      11.96439810       0.00000000 NULL      -0.00156963       0.00103468       0.01175556
P        0.29200280       1.65318394       6.12117674       0.00000000 NULL       0.00168088       0.00084199       0.01175556
P       -2.01016179       4.62912261       0.27795538       0.00000000 NULL      -0.00011125      -0.00187668       0.01175556
P       -3.32633706       4.02463846       8.55568150       0.00000000 NULL       0.00800576       0.01115644       0.00772312
P        1.85274799       6.57696958       2.71246014       0.00000000 NULL       0.00565888      -0.01251141       0.00772312
P        1.47358906       0.81558480      14.39890286       0.00000000 NULL      -0.01366464       0.00135497       0.00772312
P        2.13870751       0.81905885       6.86581630       0.00000000 NULL       0.00337933      -0.01459088      -0.01110343
P        2.93583169       3.44689196       1.02259494       0.00000000 NULL      -0.01432574       0.00436885      -0.01110343
P        4.81303983       1.44264562      12.70903766       0.00000000 NULL       0.01094641       0.01022203      -0.01110343
P        3.43993747       3.46254226       3.14832442       0.00000000 NULL      -0.01514163       0.03201570      -0.00386440
P        4.57454050       0.99825205      14.83476713       0.00000000 NULL       0.03529723      -0.00289482      -0.00386440
P        1.87310106       1.24780211       8.99154578       0.00000000 NULL      -0.02015560      -0.02912089      -0.00386440
P       -0.11474907       5.26051916       9.58541326       0.00000000 NULL      -0.00606313      -0.01126787      -0.00747173
P        1.31725808       3.17771245       3.74219190       0.00000000 NULL      -0.00672669       0.01088476      -0.00747173
P       -1.20250902       2.97896124      15.42863462       0.00000000 NULL       0.01278982       0.00038311      -0.00747173
P        3.09257325       4.05248912       6.34006570       0.00000000 NULL      -0.01062717      -0.01738290       0.01707045
P        5.25913158       1.00410487       0.49684434       0.00000000 NULL      -0.00974045       0.01789485       0.01707045
P        1.53587421       0.65200244      12.18328706       0.00000000 NULL       0.02036762      -0.00051195       0.01707045
P        2.73334402       3.89546407      13.51004498       0.00000000 NULL       0.01418084      -0.00262019      -0.01332214
P       -1.28896085       1.39371903       7.66682362       0.00000000 NULL      -0.00935957      -0.01097087      -0.01332214
P       -1.44438318       6.12800975       1.82360226       0.00000000 NULL      -0.00482127       0.01359106      -0.01332214
30
Lattice="6.588158847123771 -3.678398082014873e-15 5.09013959258511e-42 -3.2940794235618824 5.705512925776389 3.083135769456742e-41 5.964940806008219e-42 -2.2172720185623523e-41 17.540215877681064" Properties=species:S:1:pos:R:3:initial_magmoms:R:1:castep_labels:S:1:forces:R:3 n_minim_iter=4 energy=-160.32135484249847 stress="-5.927034348490057e-06 -4.6382675542583456e-12 -6.611473753483174e-12 -4.6382675542583456e-12 -5.9270368799249505e-06 -2.343491509512707e-12 -6.611473753483174e-12 -2.343491509512707e-12 2.6607712350954663e-05" free_energy=-160.32135484249847 pbc="T T T"
P       -0.45636656       4.59046197      11.75304887       0.00000000 NULL       0.01250031      -0.00905273       0.00046214
P        0.90956053       3.80550698       5.90631024       0.00000000 NULL      -0.01409005      -0.00629922       0.00046214
P       -0.45319398       3.01505691      17.59978749       0.00000000 NULL       0.00158974       0.01535195       0.00046214
P       -2.83907615       5.64549150       3.51049717       0.00000000 NULL       0.00641246       0.01895154      -0.00150855
P        3.01459770       5.34147925      15.20397442       0.00000000 NULL       0.01320629      -0.01502913      -0.00150855
P       -0.17552156       0.42405511       9.35723579       0.00000000 NULL      -0.01961875      -0.00392242      -0.00150855
P        0.42830818       4.89959616       2.58922793       0.00000000 NULL      -0.01576001       0.01034247       0.00595155
P        0.73494122       2.88478908      14.28270518       0.00000000 NULL       0.01683685       0.00847734       0.00595155
P       -1.16324941       3.62664062       8.43596656       0.00000000 NULL      -0.00107683      -0.01881981       0.00595155
P        1.71809671       5.13147240      11.97271447       0.00000000 NULL      -0.02407715       0.01797412      -0.00231441
P        0.29085767       1.65186133       6.12597585       0.00000000 NULL       0.02760462       0.01186437      -0.00231441
P       -2.00895439       4.62769213       0.27923722       0.00000000 NULL      -0.00352747      -0.02983848      -0.00231441
P       -3.32452004       4.02336085       8.56102171       0.00000000 NULL      -0.01519710      -0.01111859       0.01015212
P        1.85251330       6.57295132       2.71428308       0.00000000 NULL      -0.00203043       0.01872037       0.01015212
P        1.47200674       0.81471369      14.40776034       0.00000000 NULL       0.01722753      -0.00760178       0.01015212
P        2.13894891       0.81671055       6.86948925       0.00000000 NULL      -0.02666969       0.00013749       0.00027986
P        2.93189705       3.44477356       1.02275062       0.00000000 NULL       0.01345391       0.02302788       0.00027987
P        4.81139231       1.44402882      12.71622787       0.00000000 NULL       0.01321578      -0.02316537       0.00027987
P        3.43731251       3.46324849       3.14942958       0.00000000 NULL      -0.01625378      -0.00435806      -0.01946201
P        4.57468434       0.99708873      14.84290683       0.00000000 NULL       0.00435270       0.01625522      -0.01946201
P        1.87024142       1.24517572       8.99616820       0.00000000 NULL       0.01190109      -0.01189716      -0.01946201
P       -0.11458168       5.25620150       9.59067701       0.00000000 NULL      -0.00657467       0.00167573       0.01830806
P        1.31521543       3.17664282       3.74393839       0.00000000 NULL       0.00473856       0.00485596       0.01830806
P       -1.20063376       2.97818154      15.43741564       0.00000000 NULL       0.00183611      -0.00653169       0.01830806
P        3.09061952       4.04894860       6.34593621       0.00000000 NULL       0.00612793      -0.01369775       0.00363037
P        5.25526200       1.00448361       0.49919758       0.00000000 NULL      -0.01492657       0.00154193       0.00363037
P        1.53635674       0.65208073      12.19267483       0.00000000 NULL       0.00879863       0.01215582       0.00363037
P        2.73345457       3.89296565      13.51707297       0.00000000 NULL       0.00815386      -0.01974586      -0.01549912
P       -1.28939957       1.39178900       7.67033435       0.00000000 NULL      -0.02117735       0.00281149      -0.01549912
P       -1.44405501       6.12627121       1.82359572       0.00000000 NULL       0.01302349       0.01693438      -0.01549912
30
Lattice="6.586891437256643 -4.754536937201407e-15 4.956645013582986e-42 -3.2934457186283175 5.704415316634449 3.093136582633209e-41 5.594632152144175e-42 -2.3536804675918997e-41 17.556368395236035" Properties=species:S:1:pos:R:3:initial_magmoms:R:1:castep_labels:S:1:forces:R:3 n_minim_iter=5 energy=-160.3225663597871 stress="7.821893127985055e-06 -6.948974945985818e-12 -5.345935839226485e-12 -6.948974945985818e-12 7.821897638653063e-06 2.848584552472656e-12 -5.345935839226485e-12 2.848584552472656e-12 2.7529155838564204e-05" free_energy=-160.3225663597871 pbc="T T T"
P       -0.45765202       4.58648485      11.76429239       0.00000000 NULL       0.00867899       0.01817649       0.00474398
P        0.90739268       3.80751117       5.91216959       0.00000000 NULL       0.01140181      -0.01660447       0.00474398
P       -0.44974067       3.01483462      17.61641519       0.00000000 NULL      -0.02008079      -0.00157202       0.00474398
P       -2.83568325       5.64915838       3.51022371       0.00000000 NULL      -0.00474185      -0.00303446      -0.00850098
P        3.01671057       5.33560986      15.21446930       0.00000000 NULL      -0.00025700       0.00562379      -0.00850098
P       -0.18102732       0.42406240       9.36234650       0.00000000 NULL       0.00499885      -0.00258933      -0.00850098
P        0.42659191       4.90075653       2.59480796       0.00000000 NULL      -0.01896813       0.02482012       0.00335577
P        0.73743797       2.88459762      14.29905355       0.00000000 NULL       0.03097892       0.00401682       0.00335577
P       -1.16402989       3.62347649       8.44693075       0.00000000 NULL      -0.01201079      -0.02883694       0.00335577
P        1.71527711       5.13234882      11.98510871       0.00000000 NULL      -0.00520790      -0.05240856      -0.00466292
P        0.29366018       1.65276735       6.13298591       0.00000000 NULL      -0.04278319       0.03071446      -0.00466292
P       -2.00893730       4.62371447       0.28086311       0.00000000 NULL       0.04799110       0.02169410      -0.00466293
P       -3.32625617       4.02224195       8.57092097       0.00000000 NULL      -0.01344001      -0.02988696       0.00374492
P        1.85304607       6.57391669       2.71879817       0.00000000 NULL      -0.01916287       0.02658287       0.00374492
P        1.47321010       0.81267201      14.42304377       0.00000000 NULL       0.03260287       0.00330409       0.00374492
P        2.13650326       0.81352464       6.87501756       0.00000000 NULL       0.00750204      -0.02270383      -0.00282506
P        2.92972709       3.44738690       1.02289476       0.00000000 NULL      -0.02341311       0.00485496      -0.00282506
P        4.81410680       1.44350378      12.72714036       0.00000000 NULL       0.01591107       0.01784887      -0.00282506
P        3.43284607       3.46600178       3.14804674       0.00000000 NULL       0.01394407       0.00251598       0.01537579
P        4.57866827       0.99848252      14.85229233       0.00000000 NULL      -0.00479313      -0.01333391       0.01537579
P        1.86882281       1.23993102       9.00016954       0.00000000 NULL      -0.00915094       0.01081793       0.01537579
P       -0.11542344       5.25311034       9.60157927       0.00000000 NULL      -0.01584846       0.00180218       0.01307430
P        1.31359300       3.17781978       3.74945647       0.00000000 NULL       0.00948497       0.01282408       0.01307430
P       -1.19816956       2.97790052      15.45370207       0.00000000 NULL       0.00636349      -0.01462626       0.01307430
P        3.09052911       4.04382869       6.35555529       0.00000000 NULL       0.00095401      -0.00805411      -0.00250019
P        5.25023954       1.00602425       0.50343250       0.00000000 NULL      -0.00745207       0.00320086      -0.00250019
P        1.53956851       0.65456238      12.20767809       0.00000000 NULL       0.00649806       0.00485325      -0.00250019
P        2.73677961       3.88840317      13.52526185       0.00000000 NULL      -0.01670593       0.00339924      -0.02180560
P       -1.29437960       1.39009307       7.67313905       0.00000000 NULL       0.01129679       0.01276814      -0.02180560
P       -1.44240001       6.13033440       1.82101625       0.00000000 NULL       0.00540914      -0.01616738      -0.02180560
30
Lattice="6.584102892827157 -6.1044358895470394e-15 4.8785341670659937e-42 -3.292051446413573 5.702000366318933 3.0456247040713146e-41 5.3704014995726286e-42 -2.5344194642295716e-41 17.5741535653101" Properties=species:S:1:pos:R:3:initial_magmoms:R:1:castep_labels:S:1:forces:R:3 n_minim_iter=6 energy=-160.32427570635707 stress="2.0354997725647176e-05 -8.5892376826128e-13 -1.6333411531343542e-12 -8.5892376826128e-13 2.035500648176125e-05 2.48357290930274e-13 -1.6333411531343542e-12 2.48357290930274e-13 3.906749165026448e-05" free_energy=-160.32427570635707 pbc="T T T"
P       -0.45815474       4.58283366      11.77755191       0.00000000 NULL      -0.02741916       0.01411679       0.01313925
P        0.90587630       3.80735718       5.91950072       0.00000000 NULL       0.02593508       0.01668729       0.01313925
P       -0.44772156       3.01380989      17.63560310       0.00000000 NULL       0.00148408      -0.03080408       0.01313925
P       -2.83117941       5.65299089       3.50764281       0.00000000 NULL      -0.02048848      -0.00450767      -0.01646702
P        3.01917197       5.32737822      15.22374519       0.00000000 NULL       0.00634048       0.01999738      -0.01646702
P       -0.18799256       0.42363163       9.36569400       0.00000000 NULL       0.01414800      -0.01548971      -0.01646702
P        0.42135519       4.90525409       2.60241911       0.00000000 NULL       0.01028379       0.01162842       0.02461324
P        0.74534561       2.88446903      14.31852148       0.00000000 NULL       0.00492861      -0.01472023       0.02461324
P       -1.16670080       3.61427762       8.46047030       0.00000000 NULL      -0.01521240       0.00309182       0.02461324
P        1.71033166       5.12510143      11.99846298       0.00000000 NULL       0.01983932       0.02433843      -0.01424884
P        0.29125076       1.65825899       6.14041179       0.00000000 NULL       0.01115804      -0.02935057      -0.01424884
P       -2.00158242       4.62064032       0.28236060       0.00000000 NULL      -0.03099736       0.00501214      -0.01424884
P       -3.33013525       4.01570077       8.58304443       0.00000000 NULL      -0.00360761      -0.02212110      -0.00912603
P        1.85071505       6.57813171       2.72499325       0.00000000 NULL      -0.01735363       0.01418484      -0.00912603
P        1.47942019       0.81016826      14.44109562       0.00000000 NULL       0.02096124       0.00793627      -0.00912603
P        2.13390462       0.80557104       6.88035938       0.00000000 NULL      -0.05445125       0.00070236      -0.01118386
P        2.92274412       3.45119924       1.02230819       0.00000000 NULL       0.02783389       0.04680499      -0.01118386
P        4.81950560       1.44523009      12.73841057       0.00000000 NULL       0.02661736      -0.04750734      -0.01118386
P        3.42813140       3.46971855       3.14755487       0.00000000 NULL       0.02414931       0.01558338       0.01143153
P        4.58285015       0.99829221      14.86365725       0.00000000 NULL       0.00142095      -0.02870560       0.01143153
P        1.86517279       1.23398961       9.00560606       0.00000000 NULL      -0.02557026       0.01312222       0.01143153
P       -0.11886066       5.24821243       9.61607315       0.00000000 NULL      -0.02266320      -0.00863188      -0.01555549
P        1.31246417       3.18083050       3.75802196       0.00000000 NULL       0.00385618       0.02394284      -0.01555549
P       -1.19360352       2.97495780      15.47412434       0.00000000 NULL       0.01880702      -0.01531097      -0.01555549
P        3.09005901       4.03485995       6.36687918       0.00000000 NULL       0.01197114      -0.00445063       0.00310552
P        5.24131315       1.00850079       0.50882799       0.00000000 NULL      -0.00983993      -0.00814199       0.00310552
P        1.54478217       0.65863963      12.22493037       0.00000000 NULL      -0.00213121       0.01259262       0.00310552
P        2.73861134       3.88188453      13.52977305       0.00000000 NULL      -0.00041015       0.00966804       0.01429168
P       -1.29954650       1.38935111       7.67172187       0.00000000 NULL       0.00857784      -0.00447883       0.01429168
P       -1.43906484       6.13276510       1.81367068       0.00000000 NULL      -0.00816770      -0.00518922       0.01429168
30
Lattice="6.587337324906726 -1.367735274269539e-14 4.7319670044511846e-42 -3.293668662453351 5.704801466666659 3.1038398504992877e-41 4.948970583458907e-42 -3.23763753814703e-41 17.618494935477713" Properties=species:S:1:pos:R:3:initial_magmoms:R:1:castep_labels:S:1:forces:R:3 n_minim_iter=7 energy=-160.3280515587523 stress="0.0001865200920739795 -4.576501071663617e-13 2.1977695984541307e-12 -4.576501071663617e-13 0.00018652011172676488 1.1302259679230845e-11 2.1977695984541307e-12 1.1302259679230845e-11 6.887512153543943e-05" free_energy=-160.3280515587523 pbc="T T T"
P       -0.47158918       4.58463132      11.81723379       0.00000000 NULL       0.00645287       0.05534776       0.00763596
P        0.91253311       3.82089402       5.94440215       0.00000000 NULL       0.04470613      -0.03326223       0.00763596
P       -0.44094393       3.00407760      17.69006544       0.00000000 NULL      -0.05115900      -0.02208553       0.00763596
P       -2.82948074       5.67515077       3.48939982       0.00000000 NULL      -0.05267143       0.08885958       0.01295368
P        3.03589644       5.31762829      15.23506311       0.00000000 NULL       0.10329037       0.00118500       0.01295368
P       -0.20641570       0.41682389       9.36223147       0.00000000 NULL      -0.05061894      -0.09004458       0.01295368
P        0.40827664       4.93446338       2.63564623       0.00000000 NULL       0.01598214       0.03674795       0.03198211
P        0.77556366       2.88399183      14.38130952       0.00000000 NULL       0.02383359      -0.03221491       0.03198211
P       -1.18384030       3.59114772       8.50847788       0.00000000 NULL      -0.03981572      -0.00453304       0.03198211
P        1.70483778       5.11982543      12.02693632       0.00000000 NULL      -0.02006143      -0.07766254      -0.07840014
P        0.28781133       1.66845593       6.15410467       0.00000000 NULL      -0.05722702       0.05620498      -0.07840014
P       -1.99264911       4.62132159       0.28127302       0.00000000 NULL       0.07728845       0.02145756      -0.07840014
P       -3.35137670       3.99232644       8.61297761       0.00000000 NULL       0.05054233       0.08455572       0.01168236
P        1.83947580       6.61101561       2.74014597       0.00000000 NULL       0.04795623      -0.08604880       0.01168236
P        1.51190090       0.80626089      14.48580926       0.00000000 NULL      -0.09849856       0.00149308       0.01168236
P        2.10789240       0.78025557       6.88750542       0.00000000 NULL       0.02341385       0.01416681       0.11294914
P        2.91544361       3.48918531       1.01467378       0.00000000 NULL       0.00056190      -0.02736040       0.11294914
P        4.85766998       1.43536059      12.76033707       0.00000000 NULL      -0.02397575       0.01319358       0.11294914
P        3.42861753       3.49491050       3.14779105       0.00000000 NULL      -0.05897111       0.03805682      -0.09539337
P        4.60604117       0.98807634      14.89345434       0.00000000 NULL       0.06244372       0.03204207      -0.09539337
P        1.84634729       1.22181463       9.02062270       0.00000000 NULL      -0.00347262      -0.07009889      -0.09539337
P       -0.13945308       5.23827147       9.65030163       0.00000000 NULL      -0.05169157       0.05367011      -0.01266518
P        1.31253404       3.20643565       3.77746999       0.00000000 NULL       0.07232546       0.01793116      -0.01266518
P       -1.17308096       2.96489582      15.52313328       0.00000000 NULL      -0.02063390      -0.07160127      -0.01266518