15
Lattice="3.67052 -1.2756958829013032e-15 -1.5566050591737536e-15 -1.175366779264107 9.745950928416494 -1.6701365749301988e-15 -1.545762505639124 -2.7505458764833346 9.344060020912789" Properties=species:S:1:pos:R:3:initial_magmoms:R:1:castep_labels:S:1 n_minim_iter=1 pbc="T T T"
P        1.78161122      -0.61848110       9.10381863       0.00000000 NULL
P       -0.94931837       4.87991429       9.00745988       0.00000000 NULL
P        1.83669656       6.33297994       1.47314900       0.00000000 NULL
P        1.91849573      -0.57496445       5.62582867       0.00000000 NULL
P        2.41686429       3.17423980       4.02688714       0.00000000 NULL
P       -1.04730184       2.80515960       8.74042440       0.00000000 NULL
P        3.04483215       4.08255074       0.26680188       0.00000000 NULL
P        1.06263940       0.74014375       4.09245534       0.00000000 NULL
P        0.11826413      -1.05882861       4.06709556       0.00000000 NULL
P        1.17881836       6.92495794       7.09026247       0.00000000 NULL
P       -1.22000113       4.69585711       5.40660394       0.00000000 NULL
P        0.41379552       1.44037298       5.89999274       0.00000000 NULL
P       -0.92897769       6.44398956       3.27976226       0.00000000 NULL
P        0.88667792       5.22332929       8.28712629       0.00000000 NULL
P       -0.05906910      -0.33942119       8.27751313       0.00000000 NULL
15
Lattice="3.6773686897730977 0.0009417158988120444 -0.0005097711612017551 -1.1750594128698166 9.75370131435508 0.00047358777861572087 -1.5506501000326967 -2.752917362975951 9.351660057489111" Properties=species:S:1:pos:R:3:initial_magmoms:R:1:castep_labels:S:1 n_minim_iter=2 pbc="T T T"
P        1.78356760      -0.61856408       9.11103760       0.00000000 NULL
P       -0.95115145       4.88402103       9.01527033       0.00000000 NULL
P        1.84151385       6.33860448       1.47414851       0.00000000 NULL
P        1.92112692      -0.57477369       5.62999322       0.00000000 NULL
P        2.42163616       3.17756100       4.02983940       0.00000000 NULL
P       -1.04960815       2.80743094       8.74750813       0.00000000 NULL
P        3.05134196       4.08693027       0.26693111       0.00000000 NULL
P        1.06442835       0.74141597       4.09539043       0.00000000 NULL
P        0.11748830      -1.05985514       4.07034407       0.00000000 NULL
P        1.18184394       6.93125247       7.09593479       0.00000000 NULL
P       -1.22184680       4.69973759       5.41114096       0.00000000 NULL
P        0.41405871       1.44190797       5.90489245       0.00000000 NULL
P       -0.92940900       6.44917395       3.28298924       0.00000000 NULL
P        0.88851669       5.22824047       8.29358515       0.00000000 NULL
P       -0.06040221      -0.33942857       8.28382531       0.00000000 NULL
15
Lattice="3.8385045089858427 0.02360894823425534 -0.012849433466041999 -1.1664720614394888 9.927156899058827 0.011797676437288476 -1.6669081548315503 -2.806396437955455 9.525230652936488" Properties=species:S:1:pos:R:3:initial_magmoms:R:1:castep_labels:S:1 n_minim_iter=3 pbc="T T T"
P        1.82868263      -0.61972358       9.27547833       0.00000000 NULL
P       -0.99452053       4.97621575       9.19408554       0.00000000 NULL
P        1.95557321       6.46543918       1.49666850       0.00000000 NULL
P        1.98235765      -0.56944425       5.72448007       0.00000000 NULL
P        2.53397727       3.25323755       4.09683367       0.00000000 NULL
P       -1.10415377       2.85820494       8.90923246       0.00000000 NULL
P        3.20490370       4.18687697       0.26962306       0.00000000 NULL
P        1.10647429       0.77095879       4.16194738       0.00000000 NULL
P        0.09851323      -1.08312050       4.14449545       0.00000000 NULL
P        1.25335631       7.07336531       7.22524713       0.00000000 NULL
P       -1.26514994       4.78673288       5.51477209       0.00000000 NULL
P        0.41985526       1.47678780       6.01681068       0.00000000 NULL
P       -0.93889071       6.56530442       3.35726698       0.00000000 NULL
P        0.93173701       5.33935342       8.44071024       0.00000000 NULL
P       -0.09258298      -0.33925860       8.42753602       0.00000000 NULL
15
Lattice="3.8880977516071202 0.035658722856973 -0.024276874714496847 -1.1503581968321654 9.822706525778523 0.014864454219860015 -1.7259138351681542 -2.783649537562022 9.511242076643112" Properties=species:S:1:pos:R:3:initial_magmoms:R:1:castep_labels:S:1 n_minim_iter=4 pbc="T T T"
P        1.82383864      -0.61298664       9.25386088       0.00000000 NULL
P       -1.02028906       4.92267925       9.18381876       0.00000000 NULL
P        1.99618594       6.40300953       1.48586092       0.00000000 NULL
P        1.98739895      -0.55700475       5.70468793       0.00000000 NULL
P        2.56480207       3.22766577       4.08201717       0.00000000 NULL
P       -1.13341875       2.82278140       8.89243286       0.00000000 NULL
P        3.25570942       4.16011388       0.26246829       0.00000000 NULL
P        1.11422978       0.77071783       4.14723367       0.00000000 NULL
P        0.08125992      -1.07674500       4.13803415       0.00000000 NULL
P        1.27012008       7.00597616       7.20599570       0.00000000 NULL
P       -1.28424045       4.73589340       5.50245684       0.00000000 NULL
P        0.41135235       1.46244379       6.00643937       0.00000000 NULL
P       -0.93866192       6.49581232       3.35848394       0.00000000 NULL
P        0.93500551       5.29032985       8.41777398       0.00000000 NULL
P       -0.12049536      -0.33629181       8.40656472       0.00000000 NULL
15
Lattice="3.9772985146480364 0.06725747609563539 -0.052467428151348035 -1.095021000767351 9.62672985035963 0.0081843421953044 -1.8589225747315854 -2.759562482968595 9.474375768235564" Properties=species:S:1:pos:R:3:initial_magmoms:R:1:castep_labels:S:1 n_minim_iter=5 pbc="T T T"
P        1.79631058      -0.61479149       9.19375336       0.00000000 NULL
P       -1.07270865       4.81058030       9.14458800       0.00000000 NULL
P        2.08300249       6.28779552       1.44844448       0.00000000 NULL
P        1.98159548      -0.53712182       5.65293803       0.00000000 NULL
P        2.62081313       3.17920264       4.03759552       0.00000000 NULL
P       -1.19376840       2.73810015       8.83973437       0.00000000 NULL
P        3.35489062       4.12382408       0.23965518       0.00000000 NULL
P        1.12551577       0.77080375       4.10570641       0.00000000 NULL
P        0.03577893      -1.07424611       4.12130966       0.00000000 NULL
P        1.30509199       6.87485482       7.14340443       0.00000000 NULL
P       -1.31823706       4.63326585       5.46176288       0.00000000 NULL
P        0.38725958       1.42766391       5.97518472       0.00000000 NULL
P       -0.92581137       6.36018432       3.35109137       0.00000000 NULL
P        0.93669488       5.18943232       8.34950619       0.00000000 NULL
P       -0.18958100      -0.34356454       8.35034470       0.00000000 NULL
15
Lattice="3.9839685679367363 0.08956277525377541 -0.07673529679133986 -1.0379319256533552 9.609783747703567 -0.022961495307521746 -1.9402250844738422 -2.8035011366930873 9.467685969052381" Properties=species:S:1:pos:R:3:initial_magmoms:R:1:castep_labels:S:1 n_minim_iter=6 pbc="T T T"
P        1.74113824      -0.65689985       9.15874500       0.00000000 NULL
P       -1.10594600       4.77192168       9.11525441       0.00000000 NULL
P        2.11421873       6.27821754       1.40126414       0.00000000 NULL
P        1.93943196      -0.54580470       5.62072759       0.00000000 NULL
P        2.61884007       3.16961097       3.99704192       0.00000000 NULL
P       -1.22838506       2.68190338       8.80114782       0.00000000 NULL
P        3.37570968       4.15719584       0.21165158       0.00000000 NULL
P        1.11523229       0.77328315       4.07227151       0.00000000 NULL
P       -0.00544427      -1.10011746       4.11868594       0.00000000 NULL
P        1.30503631       6.84980910       7.08492844       0.00000000 NULL
P       -1.33109504       4.60907652       5.42618057       0.00000000 NULL
P        0.35686362       1.40350448       5.95694892       0.00000000 NULL
P       -0.90424553       6.33481095       3.33720581       0.00000000 NULL
P        0.91186791       5.15725502       8.29547257       0.00000000 NULL
P       -0.24871070      -0.37666701       8.31939711       0.00000000 NULL
15
Lattice="3.9732921874858684 0.09487845993998359 -0.09054026016188657 -1.0203989698303453 9.441440118940527 -0.0699469884047831 -1.9748556796806063 -2.8079957038097008 9.443706708612218" Properties=species:S:1:pos:R:3:initial_magmoms:R:1:castep_labels:S:1 n_minim_iter=7 pbc="T T T"
P        1.70718860      -0.70709711       9.11450372       0.00000000 NULL
P       -1.13070917       4.64683924       9.06207668       0.00000000 NULL
P        2.11185136       6.15551678       1.34828182       0.00000000 NULL
P        1.90577920      -0.56097326       5.58466467       0.00000000 NULL
P        2.60218876       3.09082565       3.95136685       0.00000000 NULL
P       -1.24579588       2.57383374       8.74035334       0.00000000 NULL
P        3.36454285       4.10993438       0.18598460       0.00000000 NULL
P        1.10648101       0.75280195       4.03308073       0.00000000 NULL
P       -0.02878338      -1.11260003       4.11109094       0.00000000 NULL
P        1.28732981       6.69779600       7.00961605       0.00000000 NULL
P       -1.34507344       4.51020179       5.37183158       0.00000000 NULL
P        0.33562281       1.34648735       5.92714666       0.00000000 NULL
P       -0.89821294       6.20486651       3.30825982       0.00000000 NULL
P        0.88080864       5.02687293       8.22129993       0.00000000 NULL
P       -0.28352610      -0.41446795       8.27385437       0.00000000 NULL
15
Lattice="3.988358327695748 0.09822418978703659 -0.0941616764866805 -1.0163398506279784 9.528440119370604 -0.0738367996767609 -1.9929266858528554 -2.8391018133366948 9.488925477854922" Properties=species:S:1:pos:R:3:initial_magmoms:R:1:castep_labels:S:1 n_minim_iter=8 pbc="T T T"
P        1.70748736      -0.72265949       9.15510857       0.00000000 NULL
P       -1.13943391       4.68931362       9.10614962       0.00000000 NULL
P        2.12372514       6.20987447       1.34782973       0.00000000 NULL
P        1.90520737      -0.56663520       5.60689614       0.00000000 NULL
P        2.61143377       3.11588504       3.96340631       0.00000000 NULL
P       -1.25278659       2.58805397       8.77545839       0.00000000 NULL
P        3.37738444       4.15803567       0.18605060       0.00000000 NULL
P        1.11064453       0.76375298       4.04527707       0.00000000 NULL
P       -0.03572861      -1.12840355       4.13214447       0.00000000 NULL
P        1.29272223       6.75902912       7.03670923       0.00000000 NULL
P       -1.35238085       4.55523779       5.39352316       0.00000000 NULL
P        0.33277910       1.35619916       5.95567337       0.00000000 NULL
P       -0.89679341       6.25947031       3.32702279       0.00000000 NULL
P        0.87873529       5.07027658       8.25375192       0.00000000 NULL
P       -0.29366160      -0.42193170       8.30812011       0.00000000 NULL
15
Lattice="3.9797417655589045 0.09826278750395506 -0.09617244221667894 -1.0134781873371816 9.483444220328101 -0.08922845267858696 -1.994445740859109 -2.8417968960127675 9.472902499668223" Properties=species:S:1:pos:R:3:initial_magmoms:R:1:castep_labels:S:1 n_minim_iter=9 pbc="T T T"
P        1.69976799      -0.73798263       9.13497091       0.00000000 NULL
P       -1.14240358       4.65354050       9.08097621       0.00000000 NULL
P        2.11878244       6.17595249       1.33204502       0.00000000 NULL
P        1.89577138      -0.57253480       5.59254122       0.00000000 NULL
P        2.60386946       3.09278371       3.94699750       0.00000000 NULL
P       -1.25301367       2.55767919       8.74924157       0.00000000 NULL
P        3.36846414       4.14332176       0.17902127       0.00000000 NULL
P        1.10747896       0.75635823       4.03167166       0.00000000 NULL
P       -0.03928945      -1.13217006       4.12611390       0.00000000 NULL
P        1.28671640       6.71589803       7.00847017       0.00000000 NULL
P       -1.35343925       4.52810124       5.37225546       0.00000000 NULL
P        0.32906119       1.33920919       5.94095419       0.00000000 NULL
P       -0.89487757       6.22360513       3.31339418       0.00000000 NULL
P        0.87094832       5.03273677       8.22451833       0.00000000 NULL
P       -0.29894899      -0.43394894       8.28776292       0.00000000 NULL
15
Lattice="3.9776789378178 0.09870620905651609 -0.098083568548761 -1.0116402614056739 9.47243428833055 -0.10145681298289803 -1.9987744704940582 -2.8512272791803035 9.473100046597681" Properties=species:S:1:pos:R:3:initial_magmoms:R:1:castep_labels:S:1 n_minim_iter=10 pbc="T T T"
P        1.69566126      -0.75309592       9.13151474       0.00000000 NULL
P       -1.14635752       4.63820695       9.07450437       0.00000000 NULL
P        2.11789964       6.16448181       1.32092933       0.00000000 NULL
P        1.88961611      -0.57833357       5.58830140       0.00000000 NULL
P        2.60113152       3.08183185       3.93856977       0.00000000 NULL
P       -1.25419311       2.53924502       8.73945668       0.00000000 NULL
P        3.36507104       4.14429294       0.17440446       0.00000000 NULL
P        1.10669679       0.75364284       4.02528865       0.00000000 NULL
P       -0.04288590      -1.13881531       4.12734540       0.00000000 NULL
P        1.28393562       6.69964416       6.99555213       0.00000000 NULL
P       -1.35609200       4.52003287       5.36255456       0.00000000 NULL
P        0.32635674       1.32924251       5.93794353       0.00000000 NULL
P       -0.89352099       6.21100050       3.30847738       0.00000000 NULL
P        0.86526193       5.01615772       8.21205461       0.00000000 NULL
P       -0.30430682      -0.44447680       8.28209550       0.00000000 NULL
15
Lattice="3.931641400399745 0.10327796481521556 -0.12876594346832543 -0.9847593019336394 9.250088642602963 -0.34058069952261866 -2.0609208905081546 -3.0294974632613156 9.466362848269329" Properties=species:S:1:pos:R:3:initial_magmoms:R:1:castep_labels:S:1 n_minim_iter=11 pbc="T T T"
P        1.62868518      -1.04475060       9.06238449       0.00000000 NULL
P       -1.21259944       4.33316853       8.93964853       0.00000000 NULL
P        2.09441983       5.93461067       1.11046300       0.00000000 NULL
P        1.77635451      -0.69087460       5.50420281       0.00000000 NULL
P        2.54810614       2.86446663       3.77557781       0.00000000 NULL
P       -1.26272307       2.18306319       8.54168769       0.00000000 NULL
P        3.29030506       4.15174290       0.08710704       0.00000000 NULL
P        1.09480516       0.69864461       3.89938978       0.00000000 NULL
P       -0.10321272      -1.26592335       4.14910384       0.00000000 NULL
P        1.23263196       6.37573501       6.74140779       0.00000000 NULL
P       -1.40115486       4.36202567       5.16604993       0.00000000 NULL
P        0.28300368       1.13321609       5.87502031       0.00000000 NULL
P       -0.86786485       5.95643441       3.20867430       0.00000000 NULL
P        0.76274877       4.68880279       7.96362733       0.00000000 NULL
P       -0.39291880      -0.64709977       8.16491419       0.00000000 NULL
15
Lattice="3.78182205381832 -0.02682832453729322 0.008007013634082122 -1.2822421732012068 9.843001286209484 -0.36583905770877245 -1.5521474288050146 -3.1125079108120666 9.196755569164013" Properties=species:S:1:pos:R:3:initial_magmoms:R:1:castep_labels:S:1 n_minim_iter=12 pbc="T T T"
P        1.92925699      -1.16571055       8.93531403       0.00000000 NULL
P       -1.01806164       4.67518806       8.74973431       0.00000000 NULL
P        1.85962957       6.19996507       1.17047103       0.00000000 NULL
P        1.89824495      -0.76139403       5.43289790       0.00000000 NULL
P        2.49417743       2.93314635       3.75679184       0.00000000 NULL
P       -0.98115267       2.35543073       8.29523979       0.00000000 NULL
P        3.02084796       4.33729383       0.21498378       0.00000000 NULL
P        1.16534199       0.74080713       3.84671430       0.00000000 NULL
P        0.08765102      -1.33067230       4.07154431       0.00000000 NULL
P        1.20504860       6.74849931       6.64758546       0.00000000 NULL
P       -1.33437108       4.75444815       5.00075259       0.00000000 NULL
P        0.45691694       1.20783489       5.76762503       0.00000000 NULL
P       -0.90888551       6.30750791       3.14849256       0.00000000 NULL
P        0.83928290       4.96776620       7.79553739       0.00000000 NULL
P       -0.08096355      -0.64907924       7.95597818       0.00000000 NULL
15
Lattice="3.8055684365860065 0.04408249371174576 -0.05147715964951542 -1.1015640552462187 9.233599738835142 -0.5003303099353962 -1.7667146869363166 -3.1239986425130954 9.242662395517826" Properties=species:S:1:pos:R:3:initial_magmoms:R:1:castep_labels:S:1 n_minim_iter=13 pbc="T T T"
P        1.77194817      -1.23110079       8.90162393       0.00000000 NULL
P       -1.08276100       4.20841053       8.67446084       0.00000000 NULL
P        1.96999165       5.83293286       1.04130329       0.00000000 NULL
P        1.80625733      -0.77832642       5.39487855       0.00000000 NULL
P        2.50649329       2.73434340       3.66013267       0.00000000 NULL
P       -1.06872482       2.04712038       8.24158731       0.00000000 NULL
P        3.10843982       4.12863807       0.10551869       0.00000000 NULL
P        1.12759971       0.64868367       3.80051544       0.00000000 NULL
P       -0.00117779      -1.32936009       4.07931063       0.00000000 NULL
P        1.23243123       6.24355726       6.50086427       0.00000000 NULL
P       -1.33697600       4.35638348       4.92350680       0.00000000 NULL
P        0.39091743       1.03615845       5.72952774       0.00000000 NULL
P       -0.84680728       5.84951918       3.06017458       0.00000000 NULL
P        0.81808498       4.54231678       7.67200907       0.00000000 NULL
P       -0.21390497      -0.75768223       7.93565205       0.00000000 NULL
15
Lattice="3.8488627447698045 0.03626041571654791 -0.06343390776517806 -1.1361968265892175 9.424488026858917 -0.5223115047158043 -1.8095239635430551 -3.1986166212360736 9.392213060429249" Properties=species:S:1:pos:R:3:initial_magmoms:R:1:castep_labels:S:1 n_minim_iter=14 pbc="T T T"
P        1.76451097      -1.27884215       9.03468057       0.00000000 NULL
P       -1.13692271       4.28325707       8.80406030       0.00000000 NULL
P        1.97420328       5.94260919       1.04274888       0.00000000 NULL
P        1.80919192      -0.80645267       5.47152164       0.00000000 NULL
P        2.51653901       2.77555746       3.69960133       0.00000000 NULL
P       -1.11103987       2.07705089       8.36008249       0.00000000 NULL
P        3.12994421       4.20719221       0.09353214       0.00000000 NULL
P        1.12801651       0.65683751       3.84794616       0.00000000 NULL
P       -0.01273006      -1.36504137       4.14324789       0.00000000 NULL
P        1.20924331       6.35921833       6.58153143       0.00000000 NULL
P       -1.38084761       4.44599724       4.99169473       0.00000000 NULL
P        0.37340330       1.04795225       5.81602942       0.00000000 NULL
P       -0.87909837       5.95998780       3.10129375       0.00000000 NULL
P        0.79010780       4.61850663       7.77237787       0.00000000 NULL
P       -0.23922543      -0.78524929       8.05287482       0.00000000 NULL
15
Lattice="3.82554433930014 0.034834671717737034 -0.06249449483663865 -1.1325154822332169 9.353094695778491 -0.5328872274446051 -1.7962440408258766 -3.1875896069225704 9.362214196405631" Properties=species:S:1:pos:R:3:initial_magmoms:R:1:castep_labels:S:1 n_minim_iter=15 pbc="T T T"
P        1.75526837      -1.28525044       9.00488364       0.00000000 NULL
P       -1.13142730       4.23731456       8.76919407       0.00000000 NULL
P        1.96077028       5.89276951       1.03327847       0.00000000 NULL
P        1.79727630      -0.80770343       5.45199584       0.00000000 NULL
P        2.50145150       2.74700988       3.68220456       0.00000000 NULL
P       -1.10307606       2.04831889       8.32557714       0.00000000 NULL
P        3.10849431       4.17576696       0.08970042       0.00000000 NULL
P        1.12197933       0.64727835       3.83260064       0.00000000 NULL
P       -0.01172375      -1.36250710       4.13052562       0.00000000 NULL
P        1.20073118       6.30081505       6.55008283       0.00000000 NULL
P       -1.37416343       4.40793377       4.96576702       0.00000000 NULL
P        0.37275209       1.03107570       5.79485727       0.00000000 NULL
P       -0.87417640       5.90719125       3.08499778       0.00000000 NULL
P        0.78517716       4.57105207       7.73610016       0.00000000 NULL
P       -0.23593689      -0.79128327       8.02314926       0.00000000 NULL
15
Lattice="3.8168841821988173 0.03124189213401199 -0.06296905599018865 -1.1392818784276306 9.349854935275758 -0.5432447153113247 -1.7911127996646967 -3.194913627635615 9.369523003223048" Properties=species:S:1:pos:R:3:initial_magmoms:R:1:castep_labels:S:1 n_minim_iter=16 pbc="T T T"
P        1.75024435      -1.29892226       9.01065754       0.00000000 NULL
P       -1.13635474       4.22644228       8.77091991       0.00000000 NULL
P        1.95043309       5.88472864       1.02881936       0.00000000 NULL
P        1.79103752      -0.81402437       5.45384383       0.00000000 NULL
P        2.49278044       2.73785902       3.67896686       0.00000000 NULL
P       -1.10354692       2.03826169       8.32473502       0.00000000 NULL
P        3.09589106       4.17244726       0.08647921       0.00000000 NULL
P        1.11856965       0.64357342       3.83178990       0.00000000 NULL
P       -0.01168162      -1.36823180       4.13397304       0.00000000 NULL
P        1.19027060       6.28997888       6.54552758       0.00000000 NULL
P       -1.37746667       4.40488986       4.96138390       0.00000000 NULL
P        0.37045685       1.02386527       5.79728455       0.00000000 NULL
P       -0.87743614       5.89840587       3.08265220       0.00000000 NULL
P        0.77717136       4.55879918       7.73137085       0.00000000 NULL
P       -0.23579765      -0.79968905       8.02507831       0.00000000 NULL
15
Lattice="3.796863486468475 0.021073600349182063 -0.06307675141878528 -1.1598697003443001 9.35257186153033 -0.5677514200308513 -1.7753359393594539 -3.2140084979886203 9.38888680393748" Properties=species:S:1:pos:R:3:initial_magmoms:R:1:castep_labels:S:1 n_minim_iter=17 pbc="T T T"
P        1.74150331      -1.33308733       9.02763914       0.00000000 NULL
P       -1.14788477       4.20661802       8.77792677       0.00000000 NULL
P        1.92376955       5.87091074       1.01977720       0.00000000 NULL
P        1.77818459      -0.82994236       5.46017989       0.00000000 NULL
P        2.47235123       2.71821076       3.67289779       0.00000000 NULL
P       -1.10357324       2.01783805       8.32468820       0.00000000 NULL
P        3.06438580       4.16779724       0.08017516       0.00000000 NULL
P        1.11128380       0.63577471       3.83127992       0.00000000 NULL
P       -0.01003457      -1.38322190       4.14327620       0.00000000 NULL
P        1.16447630       6.27123980       6.53724023       0.00000000 NULL
P       -1.38627367       4.40388896       4.95204157       0.00000000 NULL
P        0.36628646       1.00830589       5.80486288       0.00000000 NULL
P       -0.88692103       5.88406895       3.07845725       0.00000000 NULL
P        0.75815610       4.53496053       7.72235314       0.00000000 NULL
P       -0.23295518      -0.81952528       8.03146030       0.00000000 NULL
15
Lattice="3.751208716110412 -0.0053800592459248425 -0.058575598732366216 -1.2154898762041655 9.365663044017294 -0.6182346852697758 -1.7248274344594767 -3.2511916276783435 9.41661971076129" Properties=species:S:1:pos:R:3:initial_magmoms:R:1:castep_labels:S:1 n_minim_iter=18 pbc="T T T"
P        1.73438331      -1.40695522       9.05646868       0.00000000 NULL
P       -1.16588641       4.17194489       8.78377008       0.00000000 NULL
P        1.85898284       5.84270311       1.00437361       0.00000000 NULL
P        1.75743420      -0.86396326       5.46954150       0.00000000 NULL
P        2.42802561       2.67643558       3.65907076       0.00000000 NULL
P       -1.09563086       1.98033566       8.31419999       0.00000000 NULL
P        2.98928914       4.15653366       0.07194866       0.00000000 NULL
P        1.09818245       0.62077344       3.82817338       0.00000000 NULL
P       -0.00010257      -1.41586786       4.15801762       0.00000000 NULL
P        1.10853058       6.23654915       6.51535575       0.00000000 NULL
P       -1.40358074       4.40855162       4.92525673       0.00000000 NULL
P        0.36354385       0.97744189       5.81450202       0.00000000 NULL
P       -0.90972561       5.85885079       3.06725772       0.00000000 NULL
P        0.72041799       4.48900027       7.69535643       0.00000000 NULL
P       -0.21554315      -0.85884587       8.03462506       0.00000000 NULL
15
Lattice="3.6838050091759595 -0.048214309202373844 -0.05505186102593206 -1.3076393319219002 9.413132793752457 -0.7071691010014365 -1.6553730494848065 -3.3268641503488485 9.481756272737602" Properties=species:S:1:pos:R:3:initial_magmoms:R:1:castep_labels:S:1 n_minim_iter=19 pbc="T T T"
P        1.71659826      -1.53941039       9.12046561       0.00000000 NULL
P       -1.20487307       4.12152545       8.80690042       0.00000000 NULL
P        1.75443190       5.81249130       0.97646727       0.00000000 NULL
P        1.72462773      -0.92383473       5.49417965       0.00000000 NULL
P        2.35638886       2.61488078       3.63798827       0.00000000 NULL
P       -1.09460014       1.92236793       8.31080702       0.00000000 NULL
P        2.87151889       4.14624450       0.05333920       0.00000000 NULL
P        1.07351821       0.59889409       3.82976985       0.00000000 NULL
P        0.01053958      -1.47896301       4.18929691       0.00000000 NULL
P        1.01272828       6.19396719       6.48446707       0.00000000 NULL
P       -1.43865729       4.42298284       4.88689707       0.00000000 NULL
P        0.35396400       0.92598067       5.83667425       0.00000000 NULL
P       -0.95171317       5.83283774       3.05017261       0.00000000 NULL
P        0.65218911       4.42151175       7.65887000       0.00000000 NULL
P       -0.19429595      -0.92968237       8.05288560       0.00000000 NULL
15
Lattice="3.6419720447065 -0.05967333457567389 -0.05350888498347571 -1.3246696225238068 9.360681414521014 -0.7253363557098519 -1.625241061723611 -3.3231441512644264 9.462232129685152" Properties=species:S:1:pos:R:3:initial_magmoms:R:1:castep_labels:S:1 n_minim_iter=20 pbc="T T T"
P        1.70145197      -1.56520935       9.10328123       0.00000000 NULL
P       -1.20692978       4.08043627       8.78162407       0.00000000 NULL
P        1.71377040       5.76385727       0.96823262       0.00000000 NULL
P        1.70651870      -0.93211379       5.48035628       0.00000000 NULL
P        2.32201457       2.58056286       3.61959866       0.00000000 NULL
P       -1.08786709       1.89550991       8.27951652       0.00000000 NULL
P        2.82103657       4.11359568       0.04980035       0.00000000 NULL
P        1.05951204       0.59139608       3.81698256       0.00000000 NULL
P        0.01304447      -1.48732987       4.18109575       0.00000000 NULL
P        0.98021800       6.14036483       6.45426602       0.00000000 NULL
P       -1.43866819       4.39611167       4.85861737       0.00000000 NULL
P        0.35006286       0.90640209       5.82006059       0.00000000 NULL
P       -0.95706330       5.78589086       3.03619031       0.00000000 NULL
P        0.63004137       4.37360405       7.62061331       0.00000000 NULL
P       -0.18617766      -0.94165794       8.02711508       0.00000000 NULL
15
Lattice="3.643937874933888 -0.0665214009626236 -0.05564969139609428 -1.3434820770274458 9.40658814350515 -0.7356763330718868 -1.6263871144649398 -3.343168198187911 9.497936502296017" Properties=species:S:1:pos:R:3:initial_magmoms:R:1:castep_labels:S:1 n_minim_iter=21 pbc="T T T"
P        1.69834345      -1.58585209       9.13591238       0.00000000 NULL
P       -1.22271419       4.09474451       8.81062384       0.00000000 NULL
P        1.70190350       5.78509679       0.96719220       0.00000000 NULL
P        1.70523242      -0.94276475       5.49863009       0.00000000 NULL
P        2.31583854       2.58441779       3.62669776       0.00000000 NULL
P       -1.09787999       1.89981566       8.30452988       0.00000000 NULL
P        2.81296068       4.12759125       0.04615594       0.00000000 NULL
P        1.05618831       0.59216781       3.82771471       0.00000000 NULL
P        0.01184098      -1.49994700       4.19633058       0.00000000 NULL
P        0.96374399       6.16271613       6.46937923       0.00000000 NULL
P       -1.45218201       4.41721963       4.87033476       0.00000000 NULL
P        0.34486639       0.90569044       5.83917724       0.00000000 NULL
P       -0.97002321       5.80935137       3.04361957       0.00000000 NULL
P        0.61601201       4.38589951       7.63909927       0.00000000 NULL
P       -0.18930950      -0.95195313       8.05298863       0.00000000 NULL
15