52
Lattice="6.139337764753033 7.18820020190952e-17 0.5447755245573487 -1.8406271020205746e-16 10.377707546528148 7.289724068613746e-17 1.8802893632778492 -1.3412332695034834e-16 16.45887434259535" Properties=species:S:1:pos:R:3:initial_magmoms:R:1:castep_labels:S:1:forces:R:3 n_minim_iter=1 energy=-279.6130036179075 stress="-0.0001730412118973962 -3.6373451963384334e-12 -0.00013630094353523522 -3.6373451963384334e-12 -5.053198452600514e-05 8.451908618311309e-13 -0.00013630094353523522 8.451908618311309e-13 -0.0007073947830916763" free_energy=-279.6130036179075 pbc="T T T"
P        1.84067932       3.90302037       8.88197151       0.00000000 NULL       0.00964371       0.01699079       0.00266820
P        6.17894781       3.90302037       8.12167837       0.00000000 NULL      -0.00964371       0.01699079      -0.00266820
P        6.17894781       6.47468717       8.12167837       0.00000000 NULL      -0.00964371      -0.01699079      -0.00266820
P        1.84067932       6.47468717       8.88197151       0.00000000 NULL       0.00964371      -0.01699079       0.00266820
P        7.73248220       4.07404248      14.24263468       0.00000000 NULL       0.01227708       0.02951326      -0.00067575
P        0.28714493       4.07404248       2.76101520       0.00000000 NULL      -0.01227708       0.02951326       0.00067575
P        0.28714493       6.30366506       2.76101520       0.00000000 NULL      -0.01227708      -0.02951326       0.00067575
P        7.73248220       6.30366506      14.24263468       0.00000000 NULL       0.01227708      -0.02951326      -0.00067575
P        2.11804785       6.61384463       5.31522278       0.00000000 NULL      -0.01086573       0.00953150      -0.01066353
P        5.90157927       6.61384463      11.68842709       0.00000000 NULL       0.01086573       0.00953150       0.01066353
P        5.90157927       3.76386291      11.68842709       0.00000000 NULL       0.01086573      -0.00953150       0.01066353
P        2.11804785       3.76386291       5.31522278       0.00000000 NULL      -0.01086573      -0.00953150      -0.01066353
P        6.02584457       8.64870373       7.51183073       0.00000000 NULL      -0.00678779      -0.01648195      -0.00329517
P        1.99378255       8.64870373       9.49181914       0.00000000 NULL       0.00678779      -0.01648195       0.00329517
P        1.99378255       1.72900382       9.49181914       0.00000000 NULL       0.00678779       0.01648195       0.00329517
P        6.02584457       1.72900382       7.51183073       0.00000000 NULL      -0.00678779       0.01648195      -0.00329517
P        1.35199431       1.11962104       0.90595833       0.00000000 NULL      -0.00122019      -0.01112196       0.00595058
P        6.66763281       1.11962104      16.09769154       0.00000000 NULL       0.00122019      -0.01112196      -0.00595058
P        6.66763281       9.25808650      16.09769154       0.00000000 NULL       0.00122019       0.01112196      -0.00595058
P        1.35199431       9.25808650       0.90595833       0.00000000 NULL      -0.00122019       0.01112196       0.00595058
P        4.73180366       4.08166268       9.80252834       0.00000000 NULL       0.02108114       0.00131212      -0.02174660
P        3.28782346       4.08166268       7.20112153       0.00000000 NULL      -0.02108114       0.00131212       0.02174660
P        3.28782346       6.29604486       7.20112153       0.00000000 NULL      -0.02108114      -0.00131212       0.02174660
P        4.73180366       6.29604486       9.80252834       0.00000000 NULL       0.02108114      -0.00131212      -0.02174660
P        5.21186401       4.07782362       1.38106199       0.00000000 NULL       0.01501104      -0.00213946      -0.02458259
P        2.80776311       4.07782362      15.62258789       0.00000000 NULL      -0.01501104      -0.00213946       0.02458259
P        2.80776311       6.29988392      15.62258789       0.00000000 NULL      -0.01501104       0.00213946       0.02458259
P        5.21186401       6.29988392       1.38106199       0.00000000 NULL       0.01501104       0.00213946      -0.02458259
P        3.65827920       6.83313821      12.58531994       0.00000000 NULL      -0.01646936      -0.03531344       0.01207980
P        4.36134793       6.83313821       4.41832994       0.00000000 NULL       0.01646936      -0.03531344      -0.01207980
P        4.36134793       3.54456933       4.41832994       0.00000000 NULL       0.01646936       0.03531344      -0.01207980
P        3.65827920       3.54456933      12.58531994       0.00000000 NULL      -0.01646936       0.03531344       0.01207980
P        2.82489690       9.21866907      15.19225105       0.00000000 NULL       0.00665948      -0.00210550      -0.02624366
P        5.19473022       9.21866907       1.81139883       0.00000000 NULL      -0.00665948      -0.00210550       0.02624366
P        5.19473022       1.15903847       1.81139883       0.00000000 NULL      -0.00665948       0.00210550       0.02624366
P        2.82489690       1.15903847      15.19225105       0.00000000 NULL       0.00665948       0.00210550      -0.02624366
P        4.44026205       7.48730667      14.58381015       0.00000000 NULL      -0.00842518       0.01009105      -0.00004291
P        3.57936507       7.48730667       2.41983972       0.00000000 NULL       0.00842518       0.01009105       0.00004291
P        3.57936507       2.89040087       2.41983972       0.00000000 NULL       0.00842518      -0.01009105       0.00004291
P        4.44026205       2.89040087      14.58381015       0.00000000 NULL      -0.00842518      -0.01009105      -0.00004291
P        0.57009712       1.11830485       3.95405970       0.00000000 NULL       0.02684568       0.02362421      -0.00965748
P        7.44953000       1.11830485      13.04959017       0.00000000 NULL      -0.02684567       0.02362421       0.00965748
P        7.44953000       9.25940270      13.04959017       0.00000000 NULL      -0.02684567      -0.02362421       0.00965748
P        0.57009712       9.25940270       3.95405970       0.00000000 NULL       0.02684568      -0.02362421      -0.00965748
P        3.19557345       8.76016942      11.42348083       0.00000000 NULL       0.02301169       0.01447780      -0.01231145
P        4.82405367       8.76016942       5.58016905       0.00000000 NULL      -0.02301169       0.01447780       0.01231145
P        4.82405367       1.61753813       5.58016905       0.00000000 NULL      -0.02301169      -0.01447780       0.01231145
P        3.19557345       1.61753813      11.42348083       0.00000000 NULL       0.02301169      -0.01447780      -0.01231144
P        6.22773977       1.58019318      11.24947156       0.00000000 NULL       0.01006150      -0.03252991      -0.01248171
P        1.79188736       1.58019318       5.75417832       0.00000000 NULL      -0.01006150      -0.03252991       0.01248171
P        1.79188736       8.79751437       5.75417832       0.00000000 NULL      -0.01006150       0.03252991       0.01248171
P        6.22773977       8.79751437      11.24947156       0.00000000 NULL       0.01006150       0.03252991      -0.01248171
52
Lattice="6.1402228822482865 4.861265399254297e-17 0.5457274588364952 -2.098608635852443e-16 10.378115876278832 -6.125189185680295e-17 1.8822900946225591 -3.599219231149247e-16 16.468142156520855" Properties=species:S:1:pos:R:3:initial_magmoms:R:1:castep_labels:S:1:forces:R:3 n_minim_iter=2 energy=-279.61322943424864 stress="0.00010605949065598745 1.9010921085206768e-12 -2.973157173922273e-05 1.9010921085206768e-12 6.71460444001145e-05 -8.251123487456193e-13 -2.973157173922273e-05 -8.251123487456193e-13 -3.521658120010686e-06" free_energy=-279.61322943424864 pbc="T T T"
P        1.84187754       3.90318669       8.88706254       0.00000000 NULL       0.00835211       0.01481831      -0.00550440
P        6.18063543       3.90318669       8.12680708       0.00000000 NULL      -0.00835211       0.01481831       0.00550440
P        6.18063543       6.47492919       8.12680708       0.00000000 NULL      -0.00835212      -0.01481831       0.00550440
P        1.84187754       6.47492919       8.88706254       0.00000000 NULL       0.00835212      -0.01481831      -0.00550440
P        7.73504544       4.07422492      14.25130223       0.00000000 NULL       0.01707097       0.03091612       0.00687504
P        0.28746753       4.07422492       2.76256740       0.00000000 NULL      -0.01707097       0.03091612      -0.00687504
P        0.28746753       6.30389095       2.76256740       0.00000000 NULL      -0.01707096      -0.03091612      -0.00687504
P        7.73504544       6.30389095      14.25130223       0.00000000 NULL       0.01707097      -0.03091612       0.00687504
P        2.11888940       6.61411202       5.31836812       0.00000000 NULL      -0.00561857       0.00972780      -0.00308888
P        5.90362357       6.61411202      11.69550150       0.00000000 NULL       0.00561857       0.00972780       0.00308888
P        5.90362357       3.76400386      11.69550150       0.00000000 NULL       0.00561857      -0.00972780       0.00308888
P        2.11888940       3.76400386       5.31836812       0.00000000 NULL      -0.00561857      -0.00972780      -0.00308888
P        6.02744896       8.64903166       7.51660672       0.00000000 NULL      -0.00610446      -0.01549202      -0.00993847
P        1.99506401       8.64903166       9.49726290       0.00000000 NULL       0.00610446      -0.01549202       0.00993848
P        1.99506401       1.72908421       9.49726290       0.00000000 NULL       0.00610446       0.01549202       0.00993847
P        6.02744896       1.72908421       7.51660672       0.00000000 NULL      -0.00610446       0.01549202      -0.00993847
P        1.35227176       1.11965675       0.90660548       0.00000000 NULL      -0.00570450      -0.00985639      -0.00347926
P        6.67024121       1.11965675      16.10726414       0.00000000 NULL       0.00570450      -0.00985639       0.00347926
P        6.67024121       9.25845912      16.10726414       0.00000000 NULL       0.00570450       0.00985639       0.00347926
P        1.35227176       9.25845912       0.90660548       0.00000000 NULL      -0.00570450       0.00985639      -0.00347926
P        4.73349778       4.08182427       9.80841518       0.00000000 NULL       0.02625844       0.00104444      -0.01592961
P        3.28901520       4.08182427       7.20545444       0.00000000 NULL      -0.02625844       0.00104444       0.01592961
P        3.28901520       6.29629161       7.20545444       0.00000000 NULL      -0.02625844      -0.00104444       0.01592961
P        4.73349778       6.29629161       9.80841518       0.00000000 NULL       0.02625844      -0.00104444      -0.01592961
P        5.21272420       4.07798247       1.38235777       0.00000000 NULL       0.01740160      -0.00279654      -0.01668688
P        2.80978878       4.07798247      15.63151186       0.00000000 NULL      -0.01740160      -0.00279654       0.01668688
P        2.80978878       6.30013341      15.63151186       0.00000000 NULL      -0.01740160       0.00279654       0.01668688
P        5.21272420       6.30013341       1.38235777       0.00000000 NULL       0.01740160       0.00279654      -0.01668688
P        3.66009592       6.83338059      12.59265140       0.00000000 NULL      -0.01378403      -0.03024892       0.01784663
P        4.36241705       6.83338059       4.42121822       0.00000000 NULL       0.01378403      -0.03024892      -0.01784663
P        4.36241705       3.54473529       4.42121822       0.00000000 NULL       0.01378403       0.03024892      -0.01784663
P        3.66009592       3.54473529      12.59265140       0.00000000 NULL      -0.01378403       0.03024892       0.01784663
P        2.82689544       9.21903022      15.20090159       0.00000000 NULL       0.00785842      -0.00122536      -0.01480220
P        5.19561753       9.21903022       1.81296803       0.00000000 NULL      -0.00785842      -0.00122536       0.01480220
P        5.19561753       1.15908566       1.81296803       0.00000000 NULL      -0.00785842       0.00122536       0.01480220
P        2.82689544       1.15908566      15.20090159       0.00000000 NULL       0.00785842       0.00122536      -0.01480220
P        4.44240235       7.48760884      14.59231663       0.00000000 NULL      -0.01166215       0.00698625      -0.00867212
P        3.58011062       7.48760884       2.42155300       0.00000000 NULL       0.01166215       0.00698625       0.00867212
P        3.58011062       2.89050703       2.42155300       0.00000000 NULL       0.01166215      -0.00698625       0.00867212
P        4.44240235       2.89050703      14.59231663       0.00000000 NULL      -0.01166215      -0.00698625      -0.00867212
P        0.57061386       1.11836657       3.95629151       0.00000000 NULL       0.02826120       0.02499404      -0.00051862
P        7.45189911       1.11836657      13.05757811       0.00000000 NULL      -0.02826120       0.02499404       0.00051862
P        7.45189911       9.25974930      13.05757811       0.00000000 NULL      -0.02826120      -0.02499404       0.00051862
P        0.57061386       9.25974930       3.95629151       0.00000000 NULL       0.02826120      -0.02499404      -0.00051862
P        3.19723410       8.76052496      11.43010474       0.00000000 NULL       0.01695232       0.01073196      -0.01335603
P        4.82527887       8.76052496       5.58376489       0.00000000 NULL      -0.01695232       0.01073196       0.01335603
P        4.82527887       1.61759091       5.58376489       0.00000000 NULL      -0.01695232      -0.01073196       0.01335603
P        3.19723410       1.61759091      11.43010474       0.00000000 NULL       0.01695232      -0.01073196      -0.01335603
P        6.22978081       1.58023095      11.25632137       0.00000000 NULL       0.01657468      -0.03287424      -0.00577421
P        1.79273216       1.58023095       5.75754825       0.00000000 NULL      -0.01657468      -0.03287424       0.00577421
P        1.79273216       8.79788492       5.75754825       0.00000000 NULL      -0.01657468       0.03287424       0.00577421
P        6.22978081       8.79788492      11.25632137       0.00000000 NULL       0.01657468       0.03287424      -0.00577421
52
Lattice="6.138453708641349 4.579170531499821e-17 0.5464757609613502 -2.0860261136657395e-16 10.376065180532816 -1.1705003697860008e-16 1.883564084744165 -4.518015923563482e-16 16.47028651986001" Properties=species:S:1:pos:R:3:initial_magmoms:R:1:castep_labels:S:1:forces:R:3 n_minim_iter=3 energy=-279.61331303030454 stress="-0.00015254058726094403 2.5446389017302144e-12 0.00010106634414979349 2.5446389017302144e-12 -0.00017085889461766052 1.6484196062125848e-12 0.00010106634414979349 1.6484196062125848e-12 2.3834867303366867e-05" free_energy=-279.61331303030454 pbc="T T T"
P        1.84234482       3.90246149       8.88829598       0.00000000 NULL       0.00739771       0.01484320      -0.00489535
P        6.17967297       3.90246149       8.12846630       0.00000000 NULL      -0.00739771       0.01484320       0.00489535
P        6.17967297       6.47360369       8.12846630       0.00000000 NULL      -0.00739771      -0.01484320       0.00489535
P        1.84234482       6.47360369       8.88829598       0.00000000 NULL       0.00739771      -0.01484320      -0.00489535
P        7.73438013       4.07351512      14.25385850       0.00000000 NULL       0.01292942       0.02709020       0.00964924
P        0.28763766       4.07351512       2.76290379       0.00000000 NULL      -0.01292942       0.02709020      -0.00964924
P        0.28763766       6.30255007       2.76290379       0.00000000 NULL      -0.01292942      -0.02709020      -0.00964924
P        7.73438013       6.30255007      14.25385850       0.00000000 NULL       0.01292942      -0.02709020       0.00964924
P        2.11883239       6.61283509       5.31921835       0.00000000 NULL      -0.00641821       0.00583425      -0.00120487
P        5.90318540       6.61283509      11.69754394       0.00000000 NULL       0.00641821       0.00583425       0.00120487
P        5.90318540       3.76323009      11.69754394       0.00000000 NULL       0.00641821      -0.00583425       0.00120487
P        2.11883239       3.76323009       5.31921835       0.00000000 NULL      -0.00641821      -0.00583425      -0.00120487
P        6.02647118       8.64727466       7.51813161       0.00000000 NULL      -0.01140511      -0.01260504      -0.00931140
P        1.99554661       8.64727466       9.49863068       0.00000000 NULL       0.01140511      -0.01260504       0.00931140
P        1.99554661       1.72879053       9.49863068       0.00000000 NULL       0.01140511       0.01260504       0.00931140
P        6.02647118       1.72879053       7.51813161       0.00000000 NULL      -0.01140511       0.01260504      -0.00931140
P        1.35195279       1.11940490       0.90685327       0.00000000 NULL      -0.00386905      -0.00547456      -0.00630992
P        6.67006500       1.11940490      16.10990902       0.00000000 NULL       0.00386905      -0.00547456       0.00630992
P        6.67006500       9.25666029      16.10990902       0.00000000 NULL       0.00386905       0.00547456       0.00630992
P        1.35195279       9.25666029       0.90685327       0.00000000 NULL      -0.00386905       0.00547456      -0.00630992
P        4.73326026       4.08102097       9.81004482       0.00000000 NULL       0.02285493      -0.00228038      -0.01093919
P        3.28875752       4.08102097       7.20671747       0.00000000 NULL      -0.02285493      -0.00228038       0.01093919
P        3.28875752       6.29504421       7.20671747       0.00000000 NULL      -0.02285493       0.00228038       0.01093919
P        4.73326026       6.29504421       9.81004482       0.00000000 NULL       0.02285493       0.00228038      -0.01093919
P        5.21137804       4.07716813       1.38304829       0.00000000 NULL       0.01886176      -0.00297237      -0.01561557
P        2.81063975       4.07716813      15.63371400       0.00000000 NULL      -0.01886176      -0.00297237       0.01561557
P        2.81063975       6.29889705      15.63371400       0.00000000 NULL      -0.01886175       0.00297237       0.01561557
P        5.21137804       6.29889705       1.38304829       0.00000000 NULL       0.01886176       0.00297237      -0.01561557
P        3.66036530       6.83193619      12.59459290       0.00000000 NULL      -0.01135052      -0.02935097       0.01804547
P        4.36165249       6.83193619       4.42216939       0.00000000 NULL       0.01135052      -0.02935097      -0.01804547
P        4.36165249       3.54412899       4.42216939       0.00000000 NULL       0.01135052       0.02935097      -0.01804547
P        3.66036530       3.54412899      12.59459290       0.00000000 NULL      -0.01135052       0.02935097       0.01804547
P        2.82777078       9.21720465      15.20295492       0.00000000 NULL       0.01108072      -0.00133820      -0.01206224
P        5.19424701       9.21720465       1.81380737       0.00000000 NULL      -0.01108072      -0.00133820       0.01206224
P        5.19424701       1.15886053       1.81380737       0.00000000 NULL      -0.01108072       0.00133820       0.01206225
P        2.82777078       1.15886053      15.20295492       0.00000000 NULL       0.01108072       0.00133820      -0.01206224
P        4.44266879       7.48615133      14.59450032       0.00000000 NULL      -0.00811152       0.00759387      -0.01116778
P        3.57934900       7.48615133       2.42226197       0.00000000 NULL       0.00811152       0.00759387       0.01116778
P        3.57934900       2.88991385       2.42226197       0.00000000 NULL       0.00811152      -0.00759387       0.01116778
P        4.44266879       2.88991385      14.59450032       0.00000000 NULL      -0.00811152      -0.00759387      -0.01116778
P        0.57097169       1.11822256       3.95681696       0.00000000 NULL       0.03232930       0.02463070      -0.00061054
P        7.45104610       1.11822256      13.05994533       0.00000000 NULL      -0.03232930       0.02463070       0.00061054
P        7.45104610       9.25784263      13.05994533       0.00000000 NULL      -0.03232930      -0.02463070       0.00061054
P        0.57097169       9.25784263       3.95681696       0.00000000 NULL       0.03232930      -0.02463070      -0.00061054
P        3.19760804       8.75882758      11.43176265       0.00000000 NULL       0.02000028       0.00965637      -0.01578017
P        4.82440975       8.75882758       5.58499964       0.00000000 NULL      -0.02000028       0.00965637       0.01578016
P        4.82440975       1.61723760       5.58499964       0.00000000 NULL      -0.02000028      -0.00965637       0.01578017
P        3.19760804       1.61723760      11.43176265       0.00000000 NULL       0.02000028      -0.00965637      -0.01578017
P        6.22922861       1.57981725      11.25831909       0.00000000 NULL       0.01280994      -0.03534544      -0.00258541
P        1.79278918       1.57981725       5.75844320       0.00000000 NULL      -0.01280994      -0.03534544       0.00258541
P        1.79278918       8.79624793       5.75844320       0.00000000 NULL      -0.01280994       0.03534544       0.00258541
P        6.22922861       8.79624793      11.25831909       0.00000000 NULL       0.01280994       0.03534544      -0.00258541
52
Lattice="6.134750098314473 4.803157167332611e-18 0.5444604214136738 -2.8315546546546104e-16 10.380270812792295 -7.678101031464943e-17 1.876683157347034 -4.003229581076842e-16 16.474160148271377" Properties=species:S:1:pos:R:3:initial_magmoms:R:1:castep_labels:S:1:forces:R:3 n_minim_iter=4 energy=-279.6139268426064 stress="-0.0004455736943344276 1.6649561860740873e-12 -0.00020112942093748501 1.6649561860740873e-12 0.0002708459338249188 -2.632981045259365e-13 -0.00020112942093748501 -2.632981045259365e-13 0.00016202734398354667" free_energy=-279.6139268426064 pbc="T T T"
P        1.83841943       3.90452339       8.88992848       0.00000000 NULL       0.01026153       0.01111368       0.00270252
P        6.17301383       3.90452339       8.12869210       0.00000000 NULL      -0.01026153       0.01111368      -0.00270252
P        6.17301383       6.47574742       8.12869210       0.00000000 NULL      -0.01026153      -0.01111368      -0.00270252
P        1.83841943       6.47574742       8.88992848       0.00000000 NULL       0.01026153      -0.01111368       0.00270252
P        7.72543826       4.07612376      14.25530362       0.00000000 NULL      -0.00009770       0.01355712       0.00483481
P        0.28599499       4.07612376       2.76331696       0.00000000 NULL       0.00009771       0.01355712      -0.00483481
P        0.28599499       6.30414705       2.76331696       0.00000000 NULL       0.00009771      -0.01355712      -0.00483481
P        7.72543826       6.30414705      14.25530362       0.00000000 NULL      -0.00009770      -0.01355712       0.00483481
P        2.11555328       6.61578877       5.31985151       0.00000000 NULL      -0.00917472       0.01239396       0.00088267
P        5.89587997       6.61578877      11.69876907       0.00000000 NULL       0.00917472       0.01239396      -0.00088267
P        5.89587997       3.76448205      11.69876907       0.00000000 NULL       0.00917472      -0.01239396      -0.00088267
P        2.11555328       3.76448205       5.31985151       0.00000000 NULL      -0.00917472      -0.01239396       0.00088267
P        6.02012235       8.65030881       7.51776607       0.00000000 NULL      -0.01287485      -0.01228375      -0.00825809
P        1.99131090       8.65030881       9.50085451       0.00000000 NULL       0.01287485      -0.01228375       0.00825809
P        1.99131090       1.72996200       9.50085451       0.00000000 NULL       0.01287485       0.01228375       0.00825809
P        6.02012235       1.72996200       7.51776607       0.00000000 NULL      -0.01287485       0.01228375      -0.00825809
P        1.35069784       1.11958529       0.90648987       0.00000000 NULL       0.00136275      -0.00657305      -0.00563652
P        6.66073541       1.11958529      16.11213071       0.00000000 NULL      -0.00136275      -0.00657305       0.00563651
P        6.66073541       9.26068552      16.11213071       0.00000000 NULL      -0.00136275       0.00657305       0.00563652
P        1.35069784       9.26068552       0.90648987       0.00000000 NULL       0.00136275       0.00657305      -0.00563652
P        4.72790470       4.08267426       9.81061127       0.00000000 NULL       0.01473540       0.00259470      -0.00342813
P        3.28352855       4.08267426       7.20800931       0.00000000 NULL      -0.01473540       0.00259470       0.00342813
P        3.28352855       6.29759655       7.20800931       0.00000000 NULL      -0.01473540      -0.00259470       0.00342813
P        4.72790470       6.29759655       9.81061127       0.00000000 NULL       0.01473540      -0.00259470      -0.00342813
P        5.20848511       4.07872895       1.38105728       0.00000000 NULL       0.00634018      -0.00023070      -0.01754798
P        2.80294814       4.07872895      15.63756329       0.00000000 NULL      -0.00634018      -0.00023070       0.01754798
P        2.80294814       6.30154186      15.63756329       0.00000000 NULL      -0.00634018       0.00023070       0.01754798
P        5.20848511       6.30154186       1.38105728       0.00000000 NULL       0.00634018       0.00023070      -0.01754798
P        3.65341275       6.83373470      12.59734727       0.00000000 NULL      -0.00694848      -0.01949113       0.00846297
P        4.35802050       6.83373470       4.42127331       0.00000000 NULL       0.00694848      -0.01949113      -0.00846297
P        4.35802050       3.54653612       4.42127331       0.00000000 NULL       0.00694848       0.01949113      -0.00846297
P        3.65341275       3.54653612      12.59734727       0.00000000 NULL      -0.00694848       0.01949113       0.00846297
P        2.82108278       9.22089927      15.20568909       0.00000000 NULL       0.01243016       0.00085319      -0.00421200
P        5.19035047       9.22089927       1.81293148       0.00000000 NULL      -0.01243016       0.00085319       0.00421200
P        5.19035047       1.15937154       1.81293148       0.00000000 NULL      -0.01243017      -0.00085319       0.00421200
P        2.82108278       1.15937154      15.20568909       0.00000000 NULL       0.01243016      -0.00085319      -0.00421200
P        4.43464786       7.48941951      14.59665297       0.00000000 NULL      -0.00630735       0.00411119      -0.00685729
P        3.57678539       7.48941951       2.42196760       0.00000000 NULL       0.00630735       0.00411119       0.00685729
P        3.57678539       2.89085131       2.42196760       0.00000000 NULL       0.00630735      -0.00411119       0.00685729
P        4.43464786       2.89085131      14.59665297       0.00000000 NULL      -0.00630735      -0.00411119      -0.00685729
P        0.57020425       1.11947830       3.95768235       0.00000000 NULL       0.01450899       0.00589676      -0.00075966
P        7.44122900       1.11947830      13.06093822       0.00000000 NULL      -0.01450899       0.00589676       0.00075966
P        7.44122900       9.26079251      13.06093822       0.00000000 NULL      -0.01450899      -0.00589676       0.00075966
P        0.57020425       9.26079251       3.95768235       0.00000000 NULL       0.01450899      -0.00589676      -0.00075966
P        3.19233343       8.76271538      11.43332773       0.00000000 NULL       0.01204715       0.00115039       0.00189354
P        4.81909982       8.76271538       5.58529285       0.00000000 NULL      -0.01204715       0.00115039      -0.00189354
P        4.81909982       1.61755543       5.58529285       0.00000000 NULL      -0.01204715      -0.00115039      -0.00189354
P        3.19233343       1.61755543      11.43332773       0.00000000 NULL       0.01204715      -0.00115039       0.00189354
P        6.22219003       1.57937035      11.25906574       0.00000000 NULL      -0.00166767      -0.01348238      -0.00937779
P        1.78924323       1.57937035       5.75955484       0.00000000 NULL       0.00166767      -0.01348238       0.00937779
P        1.78924323       8.80090046       5.75955484       0.00000000 NULL       0.00166767       0.01348238       0.00937779
P        6.22219003       8.80090046      11.25906574       0.00000000 NULL      -0.00166767       0.01348238      -0.00937779
52
Lattice="6.140327057496544 2.8819990916813744e-17 0.5460128449164643 -2.3895263549615016e-16 10.37502061571485 -1.3322501342549798e-16 1.8830063784626447 -4.812279476644436e-16 16.469051714291183" Properties=species:S:1:pos:R:3:initial_magmoms:R:1:castep_labels:S:1:forces:R:3 n_minim_iter=5 energy=-279.6146705561877 stress="1.3463294319380297e-05 1.2585344210623798e-12 -9.616405391243593e-05 1.2585344210623798e-12 -0.00013382475868758275 1.6606299650173248e-12 -9.616405391243593e-05 1.6606299650173248e-12 1.3471247156766838e-05" free_energy=-279.6146705561877 pbc="T T T"
P        1.84293177       3.90320283       8.88720132       0.00000000 NULL      -0.01355462       0.00857739       0.00733369
P        6.18040166       3.90320283       8.12786324       0.00000000 NULL       0.01355462       0.00857739      -0.00733369
P        6.18040166       6.47181779       8.12786324       0.00000000 NULL       0.01355462      -0.00857739      -0.00733368
P        1.84293177       6.47181779       8.88720132       0.00000000 NULL      -0.01355462      -0.00857739       0.00733369
P        7.73695064       4.07533694      14.25294693       0.00000000 NULL       0.00177953      -0.01834996       0.00239084