2
Lattice="3.3886299999999996 -7.751430709644529e-17 1.6475008161581014e-16 -1.5107363978386306 3.116027756591005 7.497666852482981e-16 -1.5038924828658737 -1.1661580641344036 4.071908788066579" Properties=species:S:1:pos:R:3:initial_magmoms:R:1:castep_labels:S:1 n_minim_iter=1 pbc="T T T"
P        1.41095903       0.13797442       0.59572677       0.00000000 NULL
P        1.59453145       2.22432247       0.86362824       0.00000000 NULL
2
Lattice="3.3917182935970795 0.00044529668918365397 -8.319225776281962e-06 -1.5117037624375704 3.1183753221937605 -0.00015185756698242277 -1.5054263248548478 -1.1675118393965425 4.069214098414281" Properties=species:S:1:pos:R:3:initial_magmoms:R:1:castep_labels:S:1 n_minim_iter=2 pbc="T T T"
P        1.41221841       0.13843589       0.59517265       0.00000000 NULL
P        1.59631803       2.22611331       0.86306909       0.00000000 NULL
2
Lattice="3.6057313559083686 0.03237612061038002 -0.0007094609196910154 -1.577754050966358 3.2803595479454417 -0.010272018970394928 -1.6122376345818905 -1.2612654285794578 3.8898394853107154" Properties=species:S:1:pos:R:3:initial_magmoms:R:1:castep_labels:S:1 n_minim_iter=3 pbc="T T T"
P        1.49946948       0.17128527       0.55855465       0.00000000 NULL
P        1.72084018       2.35029268       0.82535808       0.00000000 NULL
2
Lattice="3.6507610615326205 0.04978801433638527 -0.0054813569009646256 -1.5818182512849175 3.3165969728728824 -0.008301300559345045 -1.6439482613709726 -1.2856645236470847 3.7208387430635437" Properties=species:S:1:pos:R:3:initial_magmoms:R:1:castep_labels:S:1 n_minim_iter=4 pbc="T T T"
P        1.51472492       0.18682808       0.53139786       0.00000000 NULL
P        1.75560628       2.38347665       0.78681453       0.00000000 NULL
2
Lattice="3.6678982100317628 0.06112366410451299 -0.0031592831484206956 -1.5790346823134849 3.3265011170991694 -0.013045897575764426 -1.6526645613728626 -1.3011405039113326 3.559335569430271" Properties=species:S:1:pos:R:3:initial_magmoms:R:1:castep_labels:S:1 n_minim_iter=5 pbc="T T T"
P        1.51979584       0.19802158       0.51296818       0.00000000 NULL
P        1.77463727       2.39193961       0.74648138       0.00000000 NULL
