15
Lattice="3.821364223630713 -0.1330247788635496 -0.2282640292659165 -1.9679242765529623 8.473078599509645 -0.7594963820262607 -1.6960499815580896 -1.2499015890489757 8.654794028030382" Properties=species:S:1:pos:R:3:initial_magmoms:R:1:castep_labels:S:1:forces:R:3 n_minim_iter=1 energy=-80.73504738691372 stress="3.198664728691016e-05 -6.883429938093409e-06 3.637800237958244e-05 -6.883429938093409e-06 -1.9735138548107913e-05 -3.7015221791062837e-06 3.637800237958244e-05 -3.7015221791062837e-06 0.0001448765001594782" free_energy=-80.73504738691372 pbc="T T T"
P        1.08439528       3.63402950       3.82181406       0.00000000 NULL       0.00346031       0.00501084       0.00283659
P        1.02256497       5.94894106       1.41608835       0.00000000 NULL      -0.00251575       0.00358755      -0.00559054
P        0.03467701       4.61952686      -0.02885419       0.00000000 NULL       0.01111009      -0.00088141       0.00340175
P        0.81951179       8.91600178      -0.27492347       0.00000000 NULL       0.00353960       0.00143646      -0.00607243
P        0.22648802       1.88257726       2.21377655       0.00000000 NULL       0.00063116       0.00172274      -0.00169565
P       -1.45077992       0.12444387       7.60069603       0.00000000 NULL      -0.00212656       0.00081325      -0.00113804
P       -0.84725912       6.36167881       4.32685297       0.00000000 NULL      -0.00651158      -0.00289718       0.00334785
P        2.41564676       2.45770981       5.13593401       0.00000000 NULL      -0.00244753       0.00651837       0.00024759
P       -2.70513361       5.61485373       5.49292380       0.00000000 NULL       0.00309449      -0.00054106       0.00029399
P       -0.72861903       0.85481225       4.12989207       0.00000000 NULL      -0.00628331      -0.00474952      -0.00238249
P        0.95054942       1.24874817       6.23155162       0.00000000 NULL      -0.00194887      -0.00003625      -0.00019816
P       -1.74221281       7.23974815       0.10777813       0.00000000 NULL      -0.00014436       0.00000749       0.00517326
P        1.41886869      -0.00847624       2.44059029       0.00000000 NULL      -0.00126826      -0.00728887      -0.00362377
P       -1.26528871       4.79519661       2.70244362       0.00000000 NULL       0.00059042      -0.00153841       0.00453534
P        1.24973377       2.86078833       0.31064831       0.00000000 NULL       0.00082017      -0.00116402       0.00086471
15
Lattice="3.8212010199524507 -0.13299232916212964 -0.22841527093848668 -1.9677126785147867 8.473292999305775 -0.759193733232414 -1.6964324983621444 -1.2499077145461377 8.653093373197061" Properties=species:S:1:pos:R:3:initial_magmoms:R:1:castep_labels:S:1:forces:R:3 n_minim_iter=2 energy=-80.73505753886963 stress="-6.540761511249293e-05 -3.515718203022929e-06 -1.352903148309112e-05 -3.515718203022929e-06 -8.233951073237357e-05 -3.1003750755078186e-06 -1.352903148309112e-05 -3.1003750755078186e-06 -3.500598241597819e-05" free_energy=-80.73505753886963 pbc="T T T"
P        1.08420217       3.63418848       3.82100523       0.00000000 NULL       0.00170414       0.00519071       0.00173431
P        1.02249025       5.94914422       1.41574587       0.00000000 NULL      -0.00232209       0.00426023      -0.00361761
P        0.03478052       4.61965198      -0.02880787       0.00000000 NULL       0.00920771      -0.00129325       0.00155086
P        0.81959457       8.91626597      -0.27489425       0.00000000 NULL       0.00252012       0.00095732      -0.00670507
P        0.22638503       1.88265298       2.21331008       0.00000000 NULL       0.00060320       0.00198685      -0.00099122
P       -1.45111684       0.12447742       7.59920095       0.00000000 NULL      -0.00128676      -0.00032474      -0.00262875
P       -0.84741627       6.36185648       4.32605706       0.00000000 NULL      -0.00613219      -0.00209918       0.00316158
P        2.41528264       2.45786365       5.13476604       0.00000000 NULL      -0.00082602       0.00560316       0.00276321
P       -2.70522339       5.61501080       5.49196389       0.00000000 NULL       0.00334138      -0.00050661       0.00290372
P       -0.72882406       0.85482585       4.12907149       0.00000000 NULL      -0.00493646      -0.00416903      -0.00095211
P        0.95018606       1.24882508       6.23022513       0.00000000 NULL      -0.00327933       0.00076296      -0.00113053
P       -1.74206913       7.23993476       0.10791127       0.00000000 NULL       0.00024742      -0.00035998       0.00272461
P        1.41867129      -0.00848808       2.43999541       0.00000000 NULL      -0.00188748      -0.00680469      -0.00294294
P       -1.26532088       4.79532485       2.70200174       0.00000000 NULL       0.00081596      -0.00222153       0.00277103
P        1.24969320       2.86087631       0.31053935       0.00000000 NULL       0.00223041      -0.00098223       0.00135889
