24
Lattice="3.676630000000002 6.000140922567738e-16 4.4101562097540074e-16 1.02240824090884 12.514745976747657 -1.0276693282310221e-15 1.02240824090884 6.066784607437544 10.945912085773415" Properties=species:S:1:pos:R:3:initial_magmoms:R:1:castep_labels:S:1 n_minim_iter=1 pbc="T T T"
P        1.69958475       4.07276403       6.73920323       0.00000000 NULL
P        1.69958475       7.86874208       0.29523752       0.00000000 NULL
P        3.69481760      12.21497232       2.80286060       0.00000000 NULL
P        3.69481760       8.37296034       9.32497246       0.00000000 NULL
P        1.44967306      10.17205902       4.82441075       0.00000000 NULL
P        1.44967306       9.15074643       6.55816770       0.00000000 NULL
P        5.16887748      16.01552296       8.27017293       0.00000000 NULL
P        5.16887748      14.99729314       9.99869663       0.00000000 NULL
P        3.31575141       8.29602938       3.46157574       0.00000000 NULL
P        3.31575141       7.04931025       5.57797769       0.00000000 NULL
P        4.02127454       7.46269399       1.74044271       0.00000000 NULL
P        4.02127454       5.13995970       5.68346344       0.00000000 NULL
P        1.96383575       5.59532351       9.42036390       0.00000000 NULL
P        1.96383575      10.95188811       0.32718207       0.00000000 NULL
P        2.94298012       5.36194281       7.67905427       0.00000000 NULL
P        2.94298012       9.31573084       0.96719393       0.00000000 NULL
P        0.54582706       5.46906953       2.03691383       0.00000000 NULL
P        0.54582706       4.43281443       3.79603684       0.00000000 NULL
P        2.13076424       6.00396818       0.89060100       0.00000000 NULL
P        2.13076424       3.68950533       4.81958032       0.00000000 NULL
P        2.32855265      14.42873636       3.93424649       0.00000000 NULL
P        2.32855265      10.43568540      10.71275868       0.00000000 NULL
P        3.54856673       8.15297566       7.31896989       0.00000000 NULL
P        3.54856673      10.35379771       3.58290460       0.00000000 NULL
24
Lattice="3.697606590866759 -0.002748199644007278 -0.0016188952552196236 1.018886977939828 12.58449618673953 -0.012706033735772925 1.018886977939828 6.089484258923992 11.013078006518974" Properties=species:S:1:pos:R:3:initial_magmoms:R:1:castep_labels:S:1 n_minim_iter=2 pbc="T T T"
P        1.70333351       4.08754790       6.77994840       0.00000000 NULL
P        1.70333351       7.91154627       0.28841603       0.00000000 NULL
P        3.70556104      12.27850264       2.80798861       0.00000000 NULL
P        3.70556104       8.40824317       9.37805278       0.00000000 NULL
P        1.44836521      10.22376972       4.84618429       0.00000000 NULL
P        1.44836521       9.19485831       6.59284083       0.00000000 NULL
P        5.18258934      16.09393997       8.30770332       0.00000000 NULL
P        5.18258934      15.06813305      10.04908974       0.00000000 NULL
P        3.32681267       8.33677613       3.47543122       0.00000000 NULL
P        3.32681267       7.08118167       5.60689974       0.00000000 NULL
P        4.03780006       7.50030070       1.74316059       0.00000000 NULL
P        4.03780006       5.16056750       5.71503827       0.00000000 NULL
P        1.96651985       5.61622116       9.47758520       0.00000000 NULL
P        1.96651985      11.01206679       0.31772080       0.00000000 NULL
P        2.95259371       5.38253808       7.72415238       0.00000000 NULL
P        2.95259371       9.36515950       0.96334515       0.00000000 NULL
P        0.54387828       5.49720404       2.04498523       0.00000000 NULL
P        0.54387828       4.45351280       3.81673166       0.00000000 NULL
P        2.13838101       6.03489289       0.88958125       0.00000000 NULL
P        2.13838101       3.70360482       4.84712269       0.00000000 NULL
P        2.32928032      14.50438958       3.94551565       0.00000000 NULL
P        2.32928032      10.48221635      10.77346515       0.00000000 NULL
P        3.55938159       8.18910148       7.35863305       0.00000000 NULL
P        3.55938159      10.40600149       3.59527418       0.00000000 NULL
24
Lattice="3.9081120111104055 -0.031571559009780654 -0.018598010953198223 0.9793141777814971 13.258714819720405 -0.13797860758523597 0.9793141777814972 6.306757278252812 11.663505879452787" Properties=species:S:1:pos:R:3:initial_magmoms:R:1:castep_labels:S:1 n_minim_iter=3 pbc="T T T"
P        1.73818567       4.22820522       7.17428727       0.00000000 NULL
P        1.73818567       8.32463786       0.22027670       0.00000000 NULL
P        3.80864425      12.89055551       2.85480468       0.00000000 NULL
P        3.80864425       8.74589584       9.89068436       0.00000000 NULL
P        1.43083282      10.72256866       5.05554845       0.00000000 NULL
P        1.43083282       9.61978003       6.92761727       0.00000000 NULL
P        5.31302256      16.84847274       8.66777378       0.00000000 NULL
P        5.31302256      15.74884103      10.53448349       0.00000000 NULL
P        3.43430626       8.72830515       3.60770852       0.00000000 NULL
P        3.43430626       7.38667871       5.88522295       0.00000000 NULL
P        4.20069143       7.86174845       1.76720822       0.00000000 NULL
P        4.20069143       5.35681990       6.01951776       0.00000000 NULL
P        1.98960035       5.81562419      10.03150482       0.00000000 NULL
P        1.98960035      11.59321247       0.22360278       0.00000000 NULL
P        3.04585337       5.57873376       8.16007926       0.00000000 NULL
P        3.04585337       9.84154905       0.92362130       0.00000000 NULL
P        0.52214143       5.76861876       2.12236077       0.00000000 NULL
P        0.52214143       4.65276259       4.01661274       0.00000000 NULL
P        2.21270796       6.33216981       0.87796937       0.00000000 NULL
P        2.21270796       3.83755978       5.11276243       0.00000000 NULL
P        2.33094278      15.23430375       4.05218256       0.00000000 NULL
P        2.33094278      10.92935277      11.36016911       0.00000000 NULL
P        3.66370598       8.53539095       7.74118475       0.00000000 NULL
P        3.66370598      10.90846802       3.71270328       0.00000000 NULL
24
Lattice="4.017793718418168 -0.058341797922330484 -0.03436768505643465 0.9186925600775142 13.443535688713716 -0.16857516586256016 0.9186925600775143 6.36959204673889 11.839990141819609" Properties=species:S:1:pos:R:3:initial_magmoms:R:1:castep_labels:S:1 n_minim_iter=4 pbc="T T T"
P        1.73019513       4.26199826       7.27937989       0.00000000 NULL
P        1.73019513       8.43293807       0.19888764       0.00000000 NULL
P        3.81767416      13.04612757       2.86332431       0.00000000 NULL
P        3.81767416       8.82876427      10.02262401       0.00000000 NULL
P        1.38021693      10.85959945       5.11324638       0.00000000 NULL
P        1.38021693       9.73667355       7.01949976       0.00000000 NULL
P        5.31361185      17.04217459       8.75758434       0.00000000 NULL
P        5.31361185      15.92129406      10.66036555       0.00000000 NULL
P        3.45746754       8.82280174       3.63806058       0.00000000 NULL
P        3.45746754       7.45903506       5.95315977       0.00000000 NULL
P        4.25822945       7.94620093       1.76633212       0.00000000 NULL
P        4.25822945       5.39699373       6.09380809       0.00000000 NULL
P        1.96548290       5.86665131      10.17970448       0.00000000 NULL
P        1.96548290      11.74757047       0.19639032       0.00000000 NULL
P        3.06345837       5.62281487       8.27323452       0.00000000 NULL
P        3.06345837       9.96188853       0.90732209       0.00000000 NULL
P        0.49009305       5.84306425       2.14415986       0.00000000 NULL
P        0.49009305       4.70791798       4.07115827       0.00000000 NULL
P        2.23046912       6.40235006       0.87045456       0.00000000 NULL
P        2.23046912       3.86500837       5.17778791       0.00000000 NULL
P        2.27902456      15.43113579       4.08170560       0.00000000 NULL
P        2.27902456      11.05059328      11.51801461       0.00000000 NULL
P        3.67819462       8.62021333       7.83909055       0.00000000 NULL
P        3.67819462      11.03521988       3.73943054       0.00000000 NULL
24
Lattice="4.0837554608486935 -0.08672011414944154 -0.051084637040390714 0.840439488709322 13.4414379476894 -0.14489761394926232 0.840439488709322 6.389284484695719 11.82667718312034" Properties=species:S:1:pos:R:3:initial_magmoms:R:1:castep_labels:S:1 n_minim_iter=5 pbc="T T T"
P        1.69823397       4.26405496       7.26881589       0.00000000 NULL
P        1.69823397       8.42469538       0.20580764       0.00000000 NULL
P        3.77642888      13.02975155       2.86945818       0.00000000 NULL
P        3.77642888       8.82619059      10.00532735       0.00000000 NULL
P        1.30658978      10.86506906       5.11977719       0.00000000 NULL
P        1.30658978       9.74503717       7.02111776       0.00000000 NULL
P        5.24376111      17.03154971       8.75264062       0.00000000 NULL
P        5.24376111      15.91181945      10.65346917       0.00000000 NULL
P        3.43682863       8.80727768       3.63510247       0.00000000 NULL
P        3.43682863       7.44892217       5.94101579       0.00000000 NULL
P        4.26416172       7.92529818       1.76286821       0.00000000 NULL
P        4.26416172       5.38383101       6.07720488       0.00000000 NULL
P        1.91315373       5.87393998      10.16555760       0.00000000 NULL
P        1.91315373      11.73873035       0.20962329       0.00000000 NULL
P        3.04162189       5.61837968       8.25757979       0.00000000 NULL
P        3.04162189       9.94604621       0.91103184       0.00000000 NULL
P        0.44898540       5.84528796       2.14926825       0.00000000 NULL
P        0.44898540       4.71346398       4.07062682       0.00000000 NULL
P        2.21955014       6.38581678       0.87126730       0.00000000 NULL
P        2.21955014       3.85770437       5.16293324       0.00000000 NULL
P        2.19258505      15.42956636       4.09600413       0.00000000 NULL
P        2.19258505      11.06233855      11.50971042       0.00000000 NULL
P        3.64515073       8.61412794       7.82720806       0.00000000 NULL
P        3.64515073      11.02187694       3.73986829       0.00000000 NULL
24
Lattice="4.131743840823273 -0.10747077625469312 -0.06330832992169669 0.7831518231180978 13.397056435837051 -0.11653143671571636 0.783151823118098 6.3925798459698395 11.774108188463623" Properties=species:S:1:pos:R:3:initial_magmoms:R:1:castep_labels:S:1 n_minim_iter=6 pbc="T T T"
P        1.67453183       4.25765315       7.23497287       0.00000000 NULL
P        1.67453183       8.39199148       0.21661446       0.00000000 NULL
P        3.74596216      12.97828112       2.87246804       0.00000000 NULL
P        3.74596216       8.80387177       9.95885010       0.00000000 NULL
P        1.25264177      10.83833308       5.11230944       0.00000000 NULL
P        1.25264177       9.72554475       7.00135352       0.00000000 NULL
P        5.19235972      16.97634238       8.72685398       0.00000000 NULL
P        5.19235972      15.86250248      10.61768318       0.00000000 NULL
P        3.42146028       8.77059391       3.62489735       0.00000000 NULL
P        3.42146028       7.42221313       5.91387780       0.00000000 NULL
P        4.26827248       7.88593547       1.75934141       0.00000000 NULL
P        4.26827248       5.36166443       6.04448632       0.00000000 NULL
P        1.87476925       5.86831029      10.11855406       0.00000000 NULL
P        1.87476925      11.69489002       0.22748528       0.00000000 NULL
P        3.02563366       5.60345349       8.21706442       0.00000000 NULL
P        3.02563366       9.90337402       0.91761746       0.00000000 NULL
P        0.41902727       5.83020535       2.14881434       0.00000000 NULL
P        0.41902727       4.70575536       4.05765498       0.00000000 NULL
P        2.21131194       6.35391051       0.87339577       0.00000000 NULL
P        2.21131194       3.84409878       5.13399489       0.00000000 NULL
P        2.12933077      15.38254387       4.10192746       0.00000000 NULL
P        2.12933077      11.04472419      11.46571114       0.00000000 NULL
P        3.62073518       8.58834313       7.79352219       0.00000000 NULL
P        3.62073518      10.97991417       3.73364577       0.00000000 NULL
24
Lattice="4.537043708880849 -0.25511863805740576 -0.15028396993277413 0.39328567957644245 13.027972222787701 0.07362001674662992 0.3932856795764423 6.379972851765702 11.359112049598167" Properties=species:S:1:pos:R:3:initial_magmoms:R:1:castep_labels:S:1 n_minim_iter=7 pbc="T T T"
P        1.53394866       4.18946371       6.96791598       0.00000000 NULL
P        1.53394866       8.12535628       0.28643458       0.00000000 NULL
P        3.59295472      12.55721489       2.87285179       0.00000000 NULL
P        3.59295472       8.60008676       9.59038221       0.00000000 NULL
P        0.89402094      10.59926846       5.03403435       0.00000000 NULL
P        0.89402094       9.54119056       6.83020325       0.00000000 NULL
P        4.91543447      16.50705962       8.50281990       0.00000000 NULL
P        4.91543447      15.43905843      10.31583435       0.00000000 NULL
P        3.36905387       8.47156451       3.53268168       0.00000000 NULL
P        3.36905387       7.19659676       5.69703785       0.00000000 NULL
P        4.36711413       7.57149333       1.72149868       0.00000000 NULL
P        4.36711413       5.17613323       5.78780734       0.00000000 NULL
P        1.63559908       5.79617126       9.74775526       0.00000000 NULL
P        1.63559908      11.33560321       0.34414198       0.00000000 NULL
P        2.96515647       5.46758492       7.89831945       0.00000000 NULL
P        2.96515647       9.55872141       0.95329949       0.00000000 NULL
P        0.21635486       5.69817842       2.13384285       0.00000000 NULL
P        0.21635486       4.62865786       3.94943654       0.00000000 NULL
P        2.19044758       6.10135439       0.88094772       0.00000000 NULL
P        2.19044758       3.72827218       4.90943794       0.00000000 NULL
P        1.72012523      14.98217976       4.11786709       0.00000000 NULL
P        1.72012523      10.86458078      11.10780914       0.00000000 NULL
P        3.50801114       8.36387656       7.52292868       0.00000000 NULL
P        3.50801114      10.63442709       3.66849392       0.00000000 NULL
24
Lattice="4.414828453337488 -0.3150092821465676 -0.18556404129127987 0.15544013036643362 12.685107173257665 0.039029466415996646 0.15544013036643348 6.183507535377894 11.075996652952117" Properties=species:S:1:pos:R:3:initial_magmoms:R:1:castep_labels:S:1 n_minim_iter=8 pbc="T T T"
P        1.33796805       4.03890754       6.78682284       0.00000000 NULL
P        1.33796805       7.89397951       0.24254064       0.00000000 NULL
P        3.24099284      12.17161411       2.74701331       0.00000000 NULL
P        3.24099284       8.30309520       9.31412272       0.00000000 NULL
P        0.63136813      10.30092254       4.88238900       0.00000000 NULL
P        0.63136813       9.26392588       6.64277087       0.00000000 NULL
P        4.39989686      16.00084547       8.22278047       0.00000000 NULL
P        4.39989686      14.94872652      10.00883358       0.00000000 NULL
P        3.08769142       8.18809107       3.40019121       0.00000000 NULL
P        3.08769142       6.94329546       5.51332783       0.00000000 NULL
P        4.09478851       7.31230575       1.62933584       0.00000000 NULL
P        4.09478851       4.96987721       5.60578908       0.00000000 NULL
P        1.38892153       5.59476250       9.49324079       0.00000000 NULL
P        1.38892153      11.01535728       0.29136279       0.00000000 NULL
P        2.71424075       5.26093991       7.68150134       0.00000000 NULL
P        2.71424075       9.26890789       0.87766636       0.00000000 NULL
P        0.09460740       5.54294135       2.06467269       0.00000000 NULL
P        0.09460740       4.49290438       3.84719149       0.00000000 NULL
P        2.00895300       5.89638266       0.82933953       0.00000000 NULL
P        2.00895300       3.58376920       4.75517937       0.00000000 NULL
P        1.37791363      14.56225429       3.97483236       0.00000000 NULL
P        1.37791363      10.53590908      10.80986411       0.00000000 NULL
P        3.19109962       8.08481857       7.30420462       0.00000000 NULL
P        3.19109962      10.30784283       3.53044937       0.00000000 NULL
24
Lattice="4.522215088041469 -0.31623564011981486 -0.18628645791352932 0.181128171255256 12.951329507630783 0.0072866133704073965 0.18112817125525585 6.2848007684884655 11.324233678724974" Properties=species:S:1:pos:R:3:initial_magmoms:R:1:castep_labels:S:1 n_minim_iter=9 pbc="T T T"
P        1.38181962       4.10571340       6.93912658       0.00000000 NULL
P        1.38181962       8.05957616       0.22713937       0.00000000 NULL
P        3.34348399      12.42448082       2.78248328       0.00000000 NULL
P        3.34348399       8.45670112       9.51809555       0.00000000 NULL
P        0.66965456      10.50579318       4.97164452       0.00000000 NULL
P        0.66965456       9.44130775       6.77869069       0.00000000 NULL
P        4.54245256      16.32258568       8.37974832       0.00000000 NULL
P        4.54245256      15.24198736      10.21414737       0.00000000 NULL
P        3.18015254       8.35272938       3.46233957       0.00000000 NULL
P        3.18015254       7.07746483       5.62719956       0.00000000 NULL
P        4.20984243       7.46745894       1.65219509       0.00000000 NULL
P        4.20984243       5.06508461       5.73041094       0.00000000 NULL
P        1.44201840       5.68906698       9.70571243       0.00000000 NULL
P        1.44201840      11.24690979       0.27084530       0.00000000 NULL
P        2.80092970       5.35482546       7.85456551       0.00000000 NULL
P        2.80092970       9.46578991       0.87588606       0.00000000 NULL
P        0.10922355       5.65338201       2.09843739       0.00000000 NULL
P        0.10922355       4.57597480       3.92741929       0.00000000 NULL
P        2.06913294       6.01892022       0.83603097       0.00000000 NULL
P        2.06913294       3.64902445       4.85911195       0.00000000 NULL
P        1.44151166      14.85828263       4.03231430       0.00000000 NULL
P        1.44151166      10.72969107      11.04091712       0.00000000 NULL
P        3.29049126       8.24043627       7.45996468       0.00000000 NULL
P        3.29049126      10.51951592       3.59105108       0.00000000 NULL
24
Lattice="4.518641891791693 -0.31828468565379653 -0.18749349907588644 0.17315985525807595 12.922876244630993 0.010129148179398447 0.1731598552580758 6.273493652695508 11.29796930529022" Properties=species:S:1:pos:R:3:initial_magmoms:R:1:castep_labels:S:1 n_minim_iter=10 pbc="T T T"
P        1.37392081       4.09648985       6.92287760       0.00000000 NULL
P        1.37392081       8.04089283       0.22694911       0.00000000 NULL
P        3.33168313      12.39571483       2.77727018       0.00000000 NULL
P        3.33168313       8.43819662       9.49546279       0.00000000 NULL
P        0.66066873      10.48343108       4.96145306       0.00000000 NULL
P        0.66066873       9.42155339       6.76407240       0.00000000 NULL
P        4.52519757      16.28808015       8.36145858       0.00000000 NULL
P        4.52519757      15.20926312      10.19283374       0.00000000 NULL
P        3.17079179       8.33222728       3.45449694       0.00000000 NULL
P        3.17079179       7.06066653       5.61306946       0.00000000 NULL
P        4.20135012       7.44966754       1.64881027       0.00000000 NULL
P        4.20135012       5.05349935       5.71649071       0.00000000 NULL
P        1.43392543       5.67712788       9.68266531       0.00000000 NULL
P        1.43392543      11.22096410       0.27157546       0.00000000 NULL
P        2.79448430       5.34289502       7.83681215       0.00000000 NULL
P        2.79448430       9.44447856       0.87405751       0.00000000 NULL
P        0.10547145       5.64148919       2.09402178       0.00000000 NULL
P        0.10547145       4.56634743       3.91915790       0.00000000 NULL
P        2.06249482       6.00325435       0.83508902       0.00000000 NULL
P        2.06249482       3.64060622       4.84586656       0.00000000 NULL
P        1.43124105      14.82576810       4.02540371       0.00000000 NULL
P        1.43124105      10.70788469      11.01582863       0.00000000 NULL
P        3.28064710       8.22301793       7.44333110       0.00000000 NULL
P        3.28064710      10.49652360       3.58387975       0.00000000 NULL
24
Lattice="4.521876600418611 -0.32100681097504397 -0.18909703460369665 0.16479363016738377 12.915373799111352 0.009976995911013298 0.16479363016738366 6.269723606828196 11.291481116540938" Properties=species:S:1:pos:R:3:initial_magmoms:R:1:castep_labels:S:1 n_minim_iter=11 pbc="T T T"
P        1.36742348       4.09207124       6.91868000       0.00000000 NULL
P        1.36742348       8.03507942       0.22511928       0.00000000 NULL
P        3.32408284      12.38634235       2.77422801       0.00000000 NULL
P        3.32408284       8.43099230       9.48873999       0.00000000 NULL
P        0.65196323      10.47692400       4.95804931       0.00000000 NULL
P        0.65196323       9.41542188       6.76003108       0.00000000 NULL
P        4.51354222      16.27815185       8.35495462       0.00000000 NULL
P        4.51354222      15.19876155      10.18730298       0.00000000 NULL
P        3.16558676       8.32410807       3.45114004       0.00000000 NULL
P        3.16558676       7.05379449       5.60759539       0.00000000 NULL
P        4.19879612       7.44352611       1.64670743       0.00000000 NULL
P        4.19879612       5.04868293       5.71213856       0.00000000 NULL
P        1.42739859       5.67202735       9.67641726       0.00000000 NULL
P        1.42739859      11.21302671       0.27014319       0.00000000 NULL
P        2.79204784       5.33765878       7.83265182       0.00000000 NULL
P        2.79204784       9.43830139       0.87149449       0.00000000 NULL
P        0.10159255       5.63821002       2.09210868       0.00000000 NULL
P        0.10159255       4.56308451       3.91721722       0.00000000 NULL
P        2.05854351       5.99690210       0.83438091       0.00000000 NULL
P        2.05854351       3.63690749       4.84065390       0.00000000 NULL
P        1.42239752      14.81622181       4.02251168       0.00000000 NULL
P        1.42239752      10.70072744      11.00888102       0.00000000 NULL
P        3.27514221       8.21718685       7.43873974       0.00000000 NULL
P        3.27514221      10.48968107       3.58100541       0.00000000 NULL
24
Lattice="4.533924627348013 -0.33612140940543656 -0.19800066419875573 0.11669595433990039 12.888577553796665 0.0031969354283608517 0.11669595433990027 6.250803446959867 11.271330793127401" Properties=species:S:1:pos:R:3:initial_magmoms:R:1:castep_labels:S:1 n_minim_iter=12 pbc="T T T"
P        1.32895260       4.06933401       6.90503162       0.00000000 NULL
P        1.32895260       8.01211964       0.21184871       0.00000000 NULL
P        3.27593679      12.34763339       2.75623178       0.00000000 NULL
P        3.27593679       8.39648709       9.46360759       0.00000000 NULL
P        0.60122731      10.45059242       4.94258399       0.00000000 NULL
P        0.60122731       9.38913049       6.74449754       0.00000000 NULL
P        4.44041901      16.23821189       8.32550267       0.00000000 NULL
P        4.44041901      15.15363993      10.16664729       0.00000000 NULL
P        3.13134646       8.28729488       3.43460169       0.00000000 NULL
P        3.13134646       7.02148341       5.58341437       0.00000000 NULL
P        4.17817209       7.41744065       1.63441114       0.00000000 NULL
P        4.17817209       5.02528262       5.69528403       0.00000000 NULL
P        1.38805861       5.64592637       9.65514058       0.00000000 NULL
P        1.38805861      11.18176426       0.25762851       0.00000000 NULL
P        2.77356325       5.31108795       7.82007896       0.00000000 NULL
P        2.77356325       9.41442389       0.85434950       0.00000000 NULL
P        0.07908730       5.62551938       2.08238603       0.00000000 NULL
P        0.07908730       4.54842863       3.91083072       0.00000000 NULL
P        2.03317306       5.96858277       0.82928021       0.00000000 NULL
P        2.03317306       3.61871783       4.81835732       0.00000000 NULL
P        1.36956861      14.77829627       4.00621986       0.00000000 NULL
P        1.36956861      10.66809275      10.98360758       0.00000000 NULL
P        3.23891848       8.19089751       7.42166686       0.00000000 NULL
P        3.23891848      10.46200412       3.56628811       0.00000000 NULL
24
Lattice="4.503053167824292 -0.35753521427927726 -0.21061499779786513 0.03522146193307822 12.9042835653703 -0.03483813993087278 0.035221461933078145 6.225150221365413 11.303506215016379" Properties=species:S:1:pos:R:3:initial_magmoms:R:1:castep_labels:S:1 n_minim_iter=13 pbc="T T T"
P        1.25277183       4.03871620       6.92259808       0.00000000 NULL
P        1.25277183       8.01264136       0.17655340       0.00000000 NULL
P        3.15888171      12.33961618       2.72093631       0.00000000 NULL
P        3.15888171       8.36172971       9.47370562       0.00000000 NULL
P        0.50961815      10.44552111       4.93033694       0.00000000 NULL
P        0.50961815       9.37596030       6.74599897       0.00000000 NULL
P        4.26806423      16.23560316       8.30501840       0.00000000 NULL
P        4.26806423      15.13445890      10.17429576       0.00000000 NULL
P        3.03894003       8.26158939       3.41651749       0.00000000 NULL
P        3.03894003       6.99320494       5.56969798       0.00000000 NULL
P        4.09719486       7.40939211       1.61218348       0.00000000 NULL
P        4.09719486       5.00193969       5.69901976       0.00000000 NULL
P        1.30703347       5.61050332       9.67535306       0.00000000 NULL
P        1.30703347      11.18227085       0.21684763       0.00000000 NULL
P        2.70986563       5.27683830       7.84376830       0.00000000 NULL
P        2.70986563       9.41854032       0.81290945       0.00000000 NULL
P        0.03959458       5.62669119       2.06958818       0.00000000 NULL
P        0.03959458       4.53780316       3.91805966       0.00000000 NULL
P        1.96799205       5.95229236       0.81669073       0.00000000 NULL
P        1.96799205       3.59980944       4.81021206       0.00000000 NULL
P        1.26637535      14.77553590       3.97603252       0.00000000 NULL
P        1.26637535      10.64035151      10.99582719       0.00000000 NULL
P        3.14242266       8.17237420       7.42788440       0.00000000 NULL
P        3.14242266      10.45846267       3.54707277       0.00000000 NULL
24
Lattice="4.56379523351699 -0.3689332214408759 -0.2173292769999272 0.013315538374135199 12.863026085434345 -0.027989917262298502 0.013315538374135114 6.211139533392291 11.264100905388059" Properties=species:S:1:pos:R:3:initial_magmoms:R:1:castep_labels:S:1 n_minim_iter=14 pbc="T T T"
P        1.24820233       4.02125394       6.89701763       0.00000000 NULL
P        1.24820233       7.98180245       0.17368084       0.00000000 NULL
P        3.17399894      12.29288904       2.71063816       0.00000000 NULL
P        3.17399894       8.33007056       9.43782839       0.00000000 NULL
P        0.49218259      10.41208845       4.91624142       0.00000000 NULL
P        0.49218259       9.34742460       6.72359049       0.00000000 NULL
P        4.28393337      16.18888244       8.27805264       0.00000000 NULL
P        4.28393337      15.08822469      10.14650412       0.00000000 NULL
P        3.05922827       8.22326210       3.40331496       0.00000000 NULL
P        3.05922827       6.96307751       5.54257556       0.00000000 NULL
P        4.13914965       7.37902268       1.60573886       0.00000000 NULL
P        4.13914965       4.98158075       5.67558158       0.00000000 NULL
P        1.30454181       5.58968093       9.63778990       0.00000000 NULL
P        1.30454181      11.13932248       0.21684504       0.00000000 NULL
P        2.73906312       5.25320586       7.81854808       0.00000000 NULL
P        2.73906312       9.38502536       0.80446558       0.00000000 NULL
P        0.02864484       5.61078126       2.06307156       0.00000000 NULL
P        0.02864484       4.52439078       3.90730324       0.00000000 NULL
P        1.97774718       5.92389575       0.81787324       0.00000000 NULL
P        1.97774718       3.58707786       4.78480198       0.00000000 NULL
P        1.26164928      14.72332447       3.96498696       0.00000000 NULL
P        1.26164928      10.60538002      10.95551549       0.00000000 NULL
P        3.16444104       8.14513827       7.40105328       0.00000000 NULL
P        3.16444104      10.42179188       3.53625806       0.00000000 NULL
24
Lattice="4.517387625940892 -0.3692876500621171 -0.21753806198193992 -0.000796054195253148 12.836859145896664 -0.034037579391860445 -0.0007960541952532274 6.193165028402454 11.244145953311635" Properties=species:S:1:pos:R:3:initial_magmoms:R:1:castep_labels:S:1 n_minim_iter=15 pbc="T T T"
P        1.22497765       4.00841171       6.88471561       0.00000000 NULL
P        1.22497765       7.96481706       0.16841217       0.00000000 NULL