42
Lattice="10.521994671039545 -1.6665758158839017 -1.403654567265498 0.5242495426319876 10.64025418984545 -1.4036545672655505 0.524249542631931 0.42588654498996276 10.723986013583087" Properties=species:S:1:pos:R:3:initial_magmoms:R:1:castep_labels:S:1:forces:R:3 n_minim_iter=1 energy=-212.83729476587425 stress="-9.860939159651746e-05 -0.0001748808809935553 -0.00014729144103970763 -0.0001748808809935553 -2.5406541731357107e-05 -0.00011965569366266995 -0.00014729144103970763 -0.00011965569366266995 1.588343588582055e-05" free_energy=-212.83729476587425 pbc="T T T"
P        4.54919575       6.17310325       3.86289467       0.00000000 NULL       0.00458820       0.00522364       0.00304593
P        6.97411100       4.34871014       2.48492188       0.00000000 NULL       0.00605278       0.00358320       0.00285312
P        5.68516451       3.45789623       5.42643521       0.00000000 NULL       0.00474715       0.00369406       0.00462970
P        2.36508152       3.05009927       8.30033234       0.00000000 NULL      -0.02505731      -0.00259287      -0.00813019
P        3.46991222       8.46683590       0.25422848       0.00000000 NULL      -0.00767099      -0.01209150      -0.02226305
P        8.99810260       0.53308232       1.59442965       0.00000000 NULL      -0.01340651      -0.02279434      -0.00117279
P        7.52009086       0.30513790       7.88194650       0.00000000 NULL       0.00384541      -0.02390353       0.00549716
P        1.83919345       9.00803951       5.85171326       0.00000000 NULL      -0.02260884       0.00688964       0.00759986
P        9.19376798       5.75883448      -1.03942881       0.00000000 NULL       0.00211200       0.00348670      -0.02449014
P        1.60048221       7.65777009       9.39792127       0.00000000 NULL       0.00649959      -0.00755369       0.02411980
P        7.82323342       9.26071345      -1.60003603       0.00000000 NULL      -0.00606202       0.02511336       0.00369304
P       10.66694269      -0.59736093       5.94839505       0.00000000 NULL       0.02333893       0.00175573      -0.01154466
P        7.92967199       1.79160667       0.05752411       0.00000000 NULL      -0.00810299       0.00114754       0.01914500
P        3.37804240       1.31392971       7.27703783       0.00000000 NULL      -0.00053673       0.01747779      -0.01130244
P        1.97807261       7.68748768       1.75574008       0.00000000 NULL       0.01699717      -0.01183595      -0.00212429
P        3.24584562      10.05058207       7.45363012       0.00000000 NULL      -0.01351318       0.00841168      -0.01545101
P       10.50236014       7.53520824      -0.16548045       0.00000000 NULL       0.00546505      -0.01776787      -0.01210505
P        9.52686335       1.32226390       8.63694439       0.00000000 NULL      -0.01627151      -0.01040045       0.01091626
P       10.05808551       6.43354417       7.51076707       0.00000000 NULL      -0.02364202       0.00583993       0.02503541
P        8.35755117       8.85117976       7.12566854       0.00000000 NULL       0.00087290       0.02053301      -0.02823925
P       10.37555179       8.10448062       5.06285647       0.00000000 NULL       0.02027637      -0.02839799       0.00149827
P        9.28772364       0.77333616       4.99597667       0.00000000 NULL      -0.01693593       0.00147638       0.00048238
P        2.65957041       6.44194944       7.95283690       0.00000000 NULL      -0.00202434      -0.00239453      -0.01671545
P        6.85015676       8.05526923      -0.08736207       0.00000000 NULL      -0.00275844      -0.01672556       0.00137287
P        5.03831266       8.86337296       7.48921959       0.00000000 NULL       0.00062775      -0.00418543      -0.00512947
P        9.70752443       7.90993038       1.79704081       0.00000000 NULL      -0.00396807      -0.00480453       0.00232254
P        9.73081260       3.11088334       7.46097016       0.00000000 NULL      -0.00551552       0.00179571      -0.00325236
P        7.32864538       0.07418295       5.74041474       0.00000000 NULL       0.00047142       0.00767208       0.00634907
P        1.57391797       6.87387293       6.07779242       0.00000000 NULL       0.00760594       0.00606786      -0.00217357
P        7.05051906       6.01180884      -0.90290820       0.00000000 NULL       0.00749729      -0.00108750       0.00648087
P       11.00643440       1.33233266       1.95738367       0.00000000 NULL       0.01006021      -0.00829638       0.00412023
P        3.55879808       3.71415436      10.01439329       0.00000000 NULL      -0.00605955       0.00602341       0.01067775
P        4.36442287      10.33146730       0.98013054       0.00000000 NULL       0.00465434       0.00930406      -0.00887613
P        1.80904827       1.10578058       2.56095167       0.00000000 NULL       0.00524784      -0.00249006      -0.00351116
P        1.45292184       2.78620850       1.08625051       0.00000000 NULL      -0.00136221      -0.00249997       0.00616141
P        3.02475765       1.21518327       0.65425576       0.00000000 NULL      -0.00272601       0.00593208      -0.00185682
P        0.84135612       1.73447953       9.29545886       0.00000000 NULL       0.02221012       0.02218514      -0.00647456
P        1.87005118       9.23972035      -1.11907609       0.00000000 NULL       0.02626450      -0.00345683       0.01804484
P        9.42685677      -1.11339327       0.12876968       0.00000000 NULL       0.00199689       0.02227341       0.02296296
P        5.33310382       1.67047703       6.15233174       0.00000000 NULL      -0.00584098       0.00961726      -0.00620956
P        2.72756215       6.89209754       3.76072758       0.00000000 NULL       0.00821675      -0.00742616      -0.00651954
P        7.30468673       3.91983398       0.60010761       0.00000000 NULL      -0.00558543      -0.00479854       0.01053300
42
Lattice="10.523373708383145 -1.6624131568505809 -1.4001486149359372 0.5286064239735092 10.640751240344512 -1.400148614935988 0.5286064239734541 0.42942596084172696 10.723879729228397" Properties=species:S:1:pos:R:3:initial_magmoms:R:1:castep_labels:S:1:forces:R:3 n_minim_iter=2 energy=-212.8375221843973 stress="-1.317531103975987e-05 1.8376485471261005e-05 1.547738595241353e-05 1.8376485471261005e-05 -2.086747219812035e-05 1.2573427399535478e-05 1.547738595241353e-05 1.2573427399535478e-05 -2.520622513407242e-05" free_energy=-212.8375221843973 pbc="T T T"
P        4.55456244       6.17672821       3.86634296       0.00000000 NULL       0.00854434       0.00692573       0.00308724
P        6.97875848       4.35287509       2.48878020       0.00000000 NULL       0.00852920       0.00422301       0.00631835
P        5.69019318       3.46232673       5.42942110       0.00000000 NULL       0.00588069       0.00749868       0.00629998
P        2.37011042       3.05388542       8.30180168       0.00000000 NULL      -0.02458258      -0.00165809      -0.00207744
P        3.47464828       8.46898888       0.25806492       0.00000000 NULL      -0.00665879      -0.00608044      -0.02302297
P        9.00118012       0.53757608       1.59791085       0.00000000 NULL      -0.00731557      -0.02358411      -0.00128073
P        7.52509554       0.31087598       7.88456164       0.00000000 NULL       0.00520613      -0.02001677       0.00338313
P        1.84583507       9.01124958       5.85493749       0.00000000 NULL      -0.01852576       0.00489746       0.00848714
P        9.19827054       5.76300524      -1.03421891       0.00000000 NULL       0.00099851       0.00510995      -0.02030054
P        1.60785536       7.66183948       9.40053404       0.00000000 NULL       0.00735581       0.00233567       0.02737747
P        7.82872693       9.26437348      -1.59419006       0.00000000 NULL       0.00379301       0.02812164       0.00196864
P       10.67165047      -0.59081333       5.95196096       0.00000000 NULL       0.02830226       0.00159172      -0.00235317
P        7.93247532       1.79528521       0.06109252       0.00000000 NULL      -0.00809315       0.00156127       0.02158079
P        3.38221721       1.31778456       7.27839245       0.00000000 NULL      -0.00012977       0.01986534      -0.01179062
P        1.98270094       7.68938308       1.75875834       0.00000000 NULL       0.01941746      -0.01233245      -0.00213073
P        3.25392901      10.05498102       7.45758936       0.00000000 NULL      -0.01901373       0.00644834      -0.01841980
P       10.50832173       7.54030185      -0.15924487       0.00000000 NULL       0.00241653      -0.02154044      -0.01650944
P        9.53307019       1.32922339       8.64060613       0.00000000 NULL      -0.02058858      -0.01511664       0.00948627
P       10.06627033       6.44076298       7.51626579       0.00000000 NULL      -0.01303267       0.01034926       0.02341271
P        8.36629358       8.85770908       7.13117094       0.00000000 NULL       0.00745997       0.02054247      -0.01864051
P       10.38373357       8.11113039       5.06903525       0.00000000 NULL       0.02163502      -0.01784312       0.00621784
P        9.29225385       0.77906511       4.99950617       0.00000000 NULL      -0.01809700       0.00271321      -0.00451602
P        2.66610589       6.44598192       7.95544986       0.00000000 NULL      -0.00105159      -0.00755645      -0.01723519
P        6.85544255       8.05879131      -0.08231664       0.00000000 NULL      -0.00761161      -0.01689605       0.00344154
P        5.04636032       8.86848002       7.49351042       0.00000000 NULL       0.00394818      -0.00691571      -0.00580193
P        9.71417178       7.91532014       1.80304259       0.00000000 NULL      -0.00596024      -0.00481952       0.00619074
P        9.73744980       3.11771625       7.46527332       0.00000000 NULL      -0.00593830       0.00527657      -0.00582855
P        7.33268597       0.07923180       5.74297567       0.00000000 NULL       0.00607342       0.01038065       0.00987332
P        1.57968748       6.87689314       6.08023510       0.00000000 NULL       0.01140467       0.01037873       0.00208379
P        7.05465713       6.01507090      -0.89836828       0.00000000 NULL       0.01249493       0.00358991       0.00855080
P       11.01056053       1.33791665       1.96186110       0.00000000 NULL      -0.00674655      -0.01287009      -0.00188118
P        3.56510892       3.71905877      10.01648459       0.00000000 NULL      -0.01397921      -0.00252827      -0.00358937
P        4.37051607      10.33440757       0.98487196       0.00000000 NULL      -0.00533836      -0.00577545      -0.01236285
P        1.81097249       1.10743807       2.56185934       0.00000000 NULL       0.00454473      -0.00677756       0.00258795
P        1.45493836       2.78736545       1.08761757       0.00000000 NULL      -0.00570281       0.00354266       0.00531176
P        3.02630315       1.21682572       0.65573479       0.00000000 NULL       0.00229929       0.00416198      -0.00711889
P        0.84588633       1.73785535       9.29591613       0.00000000 NULL       0.02264951       0.01858631      -0.01371971
P        1.87428344       9.24080729      -1.11546574       0.00000000 NULL       0.02283199      -0.01039802       0.02042701
P        9.42878766      -1.10916903       0.13201860       0.00000000 NULL      -0.00550026       0.02429143       0.02064837
P        5.33749638       1.67486823       6.15458694       0.00000000 NULL      -0.00850678       0.00492641      -0.00577355
P        2.73276006       6.89489796       3.76369448       0.00000000 NULL       0.00307928      -0.00727676      -0.00821799
P        7.30849257       3.92352517       0.60405144       0.00000000 NULL      -0.00649164      -0.00733244       0.00583632
42
Lattice="10.525051396950193 -1.6626842011074572 -1.4003768988852612 0.5286848104981448 10.642448873835566 -1.4003768988853105 0.5286848104980917 0.42948963999342055 10.725591458762262" Properties=species:S:1:pos:R:3:initial_magmoms:R:1:castep_labels:S:1:forces:R:3 n_minim_iter=3 energy=-212.83757953761324 stress="0.00017059865883981516 -8.896755477174628e-06 -7.493190924419689e-06 -8.896755477174628e-06 0.00017432273166473805 -6.087275749269432e-06 -7.493190924419689e-06 -6.087275749269432e-06 0.00017642328780899887" free_energy=-212.83757953761324 pbc="T T T"
P        4.55533204       6.17775050       3.86697423       0.00000000 NULL      -0.00046733       0.00898223       0.00327702
P        6.97991674       4.35358963       2.48920880       0.00000000 NULL       0.00869600       0.00283868      -0.00282119
P        5.69112985       3.46291696       5.43032117       0.00000000 NULL       0.00455989      -0.00143181       0.00829427
P        2.37033108       3.05435682       8.30310834       0.00000000 NULL      -0.02086444      -0.00189375       0.00032942
P        3.47515488       8.47029681       0.25796043       0.00000000 NULL      -0.00612777      -0.00308165      -0.01979832
P        9.00256410       0.53751186       1.59815322       0.00000000 NULL      -0.00427160      -0.02042250      -0.00192219
P        7.52632069       0.31079306       7.88583833       0.00000000 NULL       0.00564774      -0.01999828      -0.00057271
P        1.84600488       9.01271446       5.85591886       0.00000000 NULL      -0.01841720       0.00107206       0.00958195
P        9.19973914       5.76394956      -1.03451769       0.00000000 NULL      -0.00272352       0.00634013      -0.01960973
P        1.60814650       7.66306543       9.40219640       0.00000000 NULL       0.00527782       0.00245058       0.02232600
P        7.82998653       9.26601738      -1.59443937       0.00000000 NULL       0.00347980       0.02279390       0.00080000
P       10.67351754      -0.59090665       5.95288641       0.00000000 NULL       0.02302335       0.00057354      -0.00138106
P        7.93368811       1.79557604       0.06122790       0.00000000 NULL      -0.00659275       0.00176783       0.02254080
P        3.38275031       1.31810967       7.27948050       0.00000000 NULL       0.00037978       0.02105387      -0.01054834
P        1.98312837       7.69053268       1.75902192       0.00000000 NULL       0.02068516      -0.01106487      -0.00209040
P        3.25432407      10.05662023       7.45866321       0.00000000 NULL      -0.01374085       0.00393097      -0.01836475
P       10.51000710       7.54136871      -0.15937731       0.00000000 NULL       0.00103272      -0.02052101      -0.01092471
P        9.53445969       1.32933620       8.64203889       0.00000000 NULL      -0.01987425      -0.00987903       0.00699619
P       10.06777995       6.44184174       7.51760197       0.00000000 NULL      -0.00759840       0.01022681       0.02509340
P        8.36765871       8.85923947       7.13218208       0.00000000 NULL       0.00845335       0.02310732      -0.01365997
P       10.38551115       8.11230068       5.06987112       0.00000000 NULL       0.02434898      -0.01285912       0.00581141
P        9.29362065       0.77919735       5.00027449       0.00000000 NULL      -0.01798088      -0.00075189      -0.00143162
P        2.66651533       6.44696191       7.95661087       0.00000000 NULL      -0.00441941      -0.00437694      -0.01694810
P        6.85648563       8.05996942      -0.08231695       0.00000000 NULL      -0.00518946      -0.01728435      -0.00049753
P        5.04717686       8.86984775       7.49466543       0.00000000 NULL      -0.00137036      -0.00266191      -0.00786574
P        9.71567777       7.91654658       1.80335769       0.00000000 NULL      -0.00288618      -0.00788656       0.00055296
P        9.73895874       3.11823467       7.46642475       0.00000000 NULL      -0.00831055       0.00033929      -0.00128578
P        7.33388475       0.07929950       5.74394715       0.00000000 NULL       0.00803099       0.01274761       0.01252655
P        1.57999932       6.87804762       6.08121253       0.00000000 NULL       0.01412245       0.01323667       0.00304301
P        7.05585100       6.01604579      -0.89846674       0.00000000 NULL       0.01584900       0.00488791       0.01043219
P       11.01228063       1.33804642       1.96215999       0.00000000 NULL      -0.00846796      -0.01665646      -0.00607198
P        3.56558831       3.71963505      10.01806668       0.00000000 NULL      -0.01803792      -0.00681265      -0.00377284
P        4.37117833      10.33602633       0.98494902       0.00000000 NULL      -0.01036333      -0.00648246      -0.01538156
P        1.81128708       1.10757361       2.56227926       0.00000000 NULL       0.00508959      -0.00444338      -0.00046850
P        1.45513548       2.78782688       1.08782225       0.00000000 NULL      -0.00330652       0.00054009       0.00588577
P        3.02679518       1.21704415       0.65579697       0.00000000 NULL      -0.00014872       0.00523099      -0.00429903
P        0.84615350       1.73824394       9.29731965       0.00000000 NULL       0.02054706       0.01865547      -0.01519297
P        1.87471852       9.24222130      -1.11552513       0.00000000 NULL       0.02246900      -0.01220212       0.01863564
P        9.43026081      -1.10920440       0.13216289       0.00000000 NULL      -0.00734046       0.02252857       0.02096702
P        5.33829174       1.67516232       6.15553057       0.00000000 NULL      -0.00604313       0.01089346      -0.00741190
P        2.73321084       6.89594997       3.76424183       0.00000000 NULL       0.00942447      -0.00868909      -0.00676773
P        7.30961461       3.92410293       0.60418081       0.00000000 NULL      -0.00657417      -0.00479814       0.01199505
42
Lattice="10.524201544367399 -1.6615678337892907 -1.399436651181017 0.5296034059218478 10.641388351394014 -1.3994366511810263 0.5296034059218276 0.43023588276413766 10.724386512571956" Properties=species:S:1:pos:R:3:initial_magmoms:R:1:castep_labels:S:1:forces:R:3 n_minim_iter=4 energy=-212.83822930677374 stress="-3.5656377055841818e-06 1.3792640612681548e-06 1.1616759391632026e-06 1.3792640612681548e-06 -4.1429792661981015e-06 9.437147914198524e-07 1.1616759391632026e-06 9.437147914198524e-07 -4.4686271568474655e-06" free_energy=-212.83822930677374 pbc="T T T"
P        4.55653109       6.17836885       3.86753664       0.00000000 NULL       0.01144302       0.00519228       0.00196593
P        6.98076762       4.35432186       2.49014489       0.00000000 NULL       0.00742632       0.00366079       0.00965483
P        5.69202085       3.46395552       5.43083490       0.00000000 NULL       0.00510447       0.01062262       0.00478242
P        2.36952635       3.05474616       8.30236480       0.00000000 NULL      -0.00041170       0.02006478      -0.00652320
P        3.47537111       8.46941662       0.25723206       0.00000000 NULL       0.01955491      -0.00719560      -0.00333852
P        9.00174687       0.53686074       1.59866332       0.00000000 NULL      -0.00303708       0.00021502       0.02088173
P        7.52696846       0.31064273       7.88576915       0.00000000 NULL       0.00239957       0.01455774      -0.00482575
P        1.84599044       9.01275932       5.85658578       0.00000000 NULL       0.01474057      -0.00486320       0.00019617
P        9.19978009       5.76460280      -1.03465407       0.00000000 NULL      -0.00174039       0.00281581       0.01516627
P        1.61011097       7.66324398       9.40357918       0.00000000 NULL      -0.00254361      -0.00941640      -0.00078173
P        7.83056372       9.26770074      -1.59281571       0.00000000 NULL      -0.00973777      -0.00086568      -0.00041959
P       10.67528344      -0.58926921       5.95282726       0.00000000 NULL      -0.00284215      -0.00200387      -0.00914638
P        7.93289715       1.79631069       0.06350493       0.00000000 NULL      -0.00574720      -0.00465358       0.00897137
P        3.38330735       1.32019633       7.27818214       0.00000000 NULL      -0.00573223       0.00804639      -0.00612933
P        1.98528488       7.68927325       1.75935873       0.00000000 NULL       0.00670147      -0.00727430      -0.00611117
P        3.25453601      10.05693283       7.45747386       0.00000000 NULL       0.00128851       0.00185696      -0.01198008
P       10.51035649       7.54022106      -0.15903378       0.00000000 NULL       0.00208153      -0.01165590       0.00290486
P        9.53340795       1.32977285       8.64254916       0.00000000 NULL      -0.01098229       0.00361495       0.00386683
P       10.06759368       6.44344009       7.51964505       0.00000000 NULL       0.01582508       0.01054144      -0.00576669
P        8.36918501       8.86116613       7.13133237       0.00000000 NULL       0.01355973      -0.00341630       0.01411640
P       10.38770963       8.11165024       5.07109883       0.00000000 NULL      -0.00056608       0.01628644       0.01136844
P        9.29237006       0.78054759       5.00025427       0.00000000 NULL       0.00565507      -0.00868196       0.00165188
P        2.66758074       6.44668684       7.95513547       0.00000000 NULL      -0.00733937       0.00287133       0.00692633
P        6.85643465       8.05870240      -0.08098294       0.00000000 NULL       0.00130693       0.00550407      -0.00883641
P        5.04863684       8.86958718       7.49438873       0.00000000 NULL      -0.01353237       0.00620189      -0.00972831
P        9.71572181       7.91652594       1.80486555       0.00000000 NULL       0.00329820      -0.01205472      -0.01265046
P        9.73894756       3.11972862       7.46621502       0.00000000 NULL      -0.01112341      -0.01149752       0.00776564
P        7.33438892       0.08114444       5.74457311       0.00000000 NULL      -0.00128654       0.00491619       0.00212467
P        1.58190841       6.87868411       6.08121996       0.00000000 NULL       0.00454837       0.00170840      -0.00259461
P        7.05686508       6.01634865      -0.89675509       0.00000000 NULL       0.00260393      -0.00185940       0.00448336
P       11.01160379       1.33825661       1.96281623       0.00000000 NULL      -0.01007791      -0.01096453       0.00068058
P        3.56565538       3.72016177      10.01725983       0.00000000 NULL      -0.01279651      -0.00062458      -0.00762284
P        4.37170762      10.33522405       0.98504457       0.00000000 NULL      -0.00323276      -0.00961968      -0.01092060
P        1.81184081       1.10739762       2.56232168       0.00000000 NULL       0.00326278      -0.00516398      -0.00099010
P        1.45507665       2.78796697       1.08838466       0.00000000 NULL      -0.00438607      -0.00025284       0.00435789
P        3.02692025       1.21758370       0.65561633       0.00000000 NULL      -0.00114598       0.00357332      -0.00492045
P        0.84862182       1.74011369       9.29548108       0.00000000 NULL      -0.00363910      -0.00045668      -0.00184947
P        1.87705427       9.24075515      -1.11320919       0.00000000 NULL      -0.00119248      -0.00241225      -0.00310342
P        9.42930424      -1.10648239       0.13431803       0.00000000 NULL      -0.00260537      -0.00317266      -0.00013558
P        5.33813530       1.67637475       6.15494418       0.00000000 NULL      -0.00369046       0.00367445      -0.00425863
P        2.73436552       6.89530385       3.76394588       0.00000000 NULL       0.00284052      -0.00493877      -0.00357730
P        7.30921874       3.92402596       0.60547528       0.00000000 NULL      -0.00425214      -0.00288048       0.00434502
42
Lattice="10.52613349794319 -1.6586205244022316 -1.396954313298281 0.5328839798517615 10.642675562306097 -1.3969543132982416 0.5328839798517816 0.4329009347727219 10.72523292328064" Properties=species:S:1:pos:R:3:initial_magmoms:R:1:castep_labels:S:1:forces:R:3 n_minim_iter=5 energy=-212.8389558740976 stress="-3.9643398943663863e-07 1.0178986339280254e-06 8.57316366903545e-07 1.0178986339280254e-06 -8.22511582247374e-07 6.964603994668556e-07 8.57316366903545e-07 6.964603994668556e-07 -1.0628391204531294e-06" free_energy=-212.8389558740976 pbc="T T T"
P        4.56367461       6.18315241       3.87105566       0.00000000 NULL      -0.00378996       0.01050327       0.00022575
P        6.98691311       4.35881184       2.49547112       0.00000000 NULL       0.00950413      -0.00077409      -0.00581427
P        5.69767455       3.47007053       5.43495049       0.00000000 NULL       0.00118929      -0.00412099       0.01031196
P        2.37159321       3.06164326       8.30271895       0.00000000 NULL      -0.00631633       0.00443386      -0.01245788
P        3.48254535       8.46986935       0.25777308       0.00000000 NULL       0.00304590      -0.01348208      -0.00486929
P        9.00365967       0.53857204       1.60539978       0.00000000 NULL      -0.01257219      -0.00382191       0.00648745
P        7.53219300       0.31628405       7.88766077       0.00000000 NULL      -0.00687868      -0.00233966       0.01643981
P        1.85258239       9.01529638       5.86016461       0.00000000 NULL      -0.00369917       0.01513719      -0.00895763
P        9.20361373       5.76913819      -1.02941652       0.00000000 NULL       0.01405838      -0.00997005      -0.00510076
P        1.61574046       7.66517869       9.40813358       0.00000000 NULL       0.00599891       0.01865302      -0.00401859
P        7.83361063       9.27305829      -1.58855076       0.00000000 NULL       0.01948634      -0.00361143       0.00270393
P       10.68115154      -0.58474590       5.95395944       0.00000000 NULL       0.00045703       0.00603324       0.01906469
P        7.93394512       1.79839560       0.06953094       0.00000000 NULL      -0.00424787      -0.00953827       0.00643102
P        3.38556272       1.32623639       7.27774749       0.00000000 NULL      -0.01020618       0.00596268      -0.00326517
P        1.99165887       7.68900988       1.76038870       0.00000000 NULL       0.00374544      -0.00512381      -0.01049282
P        3.25975083      10.06189181       7.45734019       0.00000000 NULL      -0.01089962       0.01066563       0.00861274
P       10.51627858       7.54078446      -0.15498222       0.00000000 NULL       0.00820660       0.00630195      -0.01413060
P        9.53517257       1.33473134       8.64745866       0.00000000 NULL       0.00784947      -0.01277862       0.00904596
P       10.07668938       6.45217974       7.52502111       0.00000000 NULL       0.00782223       0.00681240       0.01011821
P        8.37960261       8.86767320       7.13742720       0.00000000 NULL       0.00827035       0.01103538       0.00444929
P       10.39621280       8.11916337       5.07879716       0.00000000 NULL       0.01249557       0.00537648       0.00499287
P        9.29630831       0.78330710       5.00336433       0.00000000 NULL       0.00665300      -0.00117187      -0.01102065
P        2.67108850       6.45031089       7.95784823       0.00000000 NULL       0.00021588      -0.00971219       0.00852744
P        6.86070042       8.06183318      -0.07879240       0.00000000 NULL      -0.00946199       0.00877748       0.00071897
P        5.05258196       8.87491603       7.49584701       0.00000000 NULL       0.01197551      -0.00093291      -0.00518206
P        9.72174583       7.91843393       1.80734709       0.00000000 NULL       0.00154011      -0.00308117       0.01262027
P        9.74204914       3.12311008       7.47121834       0.00000000 NULL      -0.00270032       0.01280014      -0.00003825
P        7.33821054       0.08665612       5.74813542       0.00000000 NULL       0.00102764      -0.00645987      -0.01564180
P        1.58808608       6.88263857       6.08318773       0.00000000 NULL      -0.00611236      -0.01501803       0.00495476
P        7.06200120       6.01917811      -0.89192935       0.00000000 NULL      -0.01595168       0.00438849      -0.00370633
P       11.01321304       1.33937647       1.96628857       0.00000000 NULL       0.00326485       0.00630281       0.00976841
P        3.56708115       3.72381235      10.01799557       0.00000000 NULL       0.00683797       0.00994998       0.00021586
P        4.37557286      10.33605920       0.98555774       0.00000000 NULL       0.01113976       0.00100412       0.00455017
P        1.81441843       1.10725770       2.56313600       0.00000000 NULL      -0.00078770      -0.00293056      -0.00894236
P        1.45546773       2.78920327       1.09076067       0.00000000 NULL      -0.00302977      -0.00884117       0.00135225
P        3.02821044       1.21994714       0.65533998       0.00000000 NULL      -0.00927434       0.00113629      -0.00136747
P        0.85300296       1.74409223       9.29526937       0.00000000 NULL      -0.02544223      -0.00087726      -0.01556431
P        1.88184593       9.24113706      -1.10975056       0.00000000 NULL      -0.00607061      -0.01954120      -0.02171667
P        9.43065964      -1.10229000       0.13827463       0.00000000 NULL      -0.02037037      -0.02173011       0.00178183
P        5.34054131       1.68097240       6.15585597       0.00000000 NULL       0.00133869       0.01409580      -0.00518669
P        2.73935854       6.89644264       3.76518342       0.00000000 NULL       0.01407110      -0.00537935      -0.00067247
P        7.31135622       3.92603674       0.60985096       0.00000000 NULL      -0.00238273       0.00186638       0.01477243
42