52
Lattice="5.073179999999998 0.0 -9.213150345291038e-17 0.0 12.76089 0.0 -0.47609168555278547 0.0 17.120571661105462" Properties=species:S:1:pos:R:3:initial_magmoms:R:1:castep_labels:S:1 n_minim_iter=1 pbc="T T T"
P        0.72804449       5.27034072       8.88850089       0.00000000 NULL
P        3.86904382       5.27034072       8.23207078       0.00000000 NULL
P        3.86904382       7.49054928       8.23207078       0.00000000 NULL
P        0.72804449       7.49054928       8.88850089       0.00000000 NULL
P        3.93701308       5.37598048      14.94865594       0.00000000 NULL
P        0.66007523       5.37598048       2.17191573       0.00000000 NULL
P        0.66007523       7.38490952       2.17191573       0.00000000 NULL
P        3.93701308       7.38490952      14.94865594       0.00000000 NULL
P        1.25123141       8.71531398       6.03636773       0.00000000 NULL
P        3.34585690       8.71531398      11.08420394       0.00000000 NULL
P        3.34585690       4.04557602      11.08420394       0.00000000 NULL
P        1.25123141       4.04557602       6.03636773       0.00000000 NULL
P        3.11003754      10.33716822       7.92471200       0.00000000 NULL
P        1.48705077      10.33716822       9.19585967       0.00000000 NULL
P        1.48705077       2.42372178       9.19585967       0.00000000 NULL
P        3.11003754       2.42372178       7.92471200       0.00000000 NULL
P        1.03253712       1.00006074       1.51171395       0.00000000 NULL
P        3.56455119       1.00006074      15.60885772       0.00000000 NULL
P        3.56455119      11.76082926      15.60885772       0.00000000 NULL
P        1.03253712      11.76082926       1.51171395       0.00000000 NULL
P        2.53230506       5.37627781       9.76193253       0.00000000 NULL
P        2.06478325       5.37627781       7.35863914       0.00000000 NULL
P        2.06478325       7.38461219       7.35863914       0.00000000 NULL
P        2.53230506       7.38461219       9.76193253       0.00000000 NULL
P        3.89168940       5.36826269       1.26658160       0.00000000 NULL
P        0.70539891       5.36826269      15.85399007       0.00000000 NULL
P        0.70539891       7.39262731      15.85399007       0.00000000 NULL
P        3.89168940       7.39262731       1.26658160       0.00000000 NULL
P        0.88895943       9.31635828      12.61831843       0.00000000 NULL
P        3.70812888       9.31635828       4.50225324       0.00000000 NULL
P        3.70812888       3.44453172       4.50225324       0.00000000 NULL
P        0.88895943       3.44453172      12.61831843       0.00000000 NULL
P        0.49404278      11.49510031      15.52018342       0.00000000 NULL
P        4.10304553      11.49510031       1.60038825       0.00000000 NULL
P        4.10304553       1.26578969       1.60038825       0.00000000 NULL
P        0.49404278       1.26578969      15.52018342       0.00000000 NULL
P        1.21097360       9.89726589      14.54542710       0.00000000 NULL
P        3.38611471       9.89726589       2.57514457       0.00000000 NULL
P        3.38611471       2.86362411       2.57514457       0.00000000 NULL
P        1.21097360       2.86362411      14.54542710       0.00000000 NULL
P        0.07478281       1.00788061       4.38250339       0.00000000 NULL
P        4.52230550       1.00788061      12.73806828       0.00000000 NULL
P        4.52230550      11.75300939      12.73806828       0.00000000 NULL
P        0.07478281      11.75300939       4.38250339       0.00000000 NULL
P        1.11267549      11.75090512      11.48585425       0.00000000 NULL
P        3.48441282      11.75090512       5.63471742       0.00000000 NULL
P        3.48441282       1.00998488       5.63471742       0.00000000 NULL
P        1.11267549       1.00998488      11.48585425       0.00000000 NULL
P        4.60350251       2.48825998      11.36000093       0.00000000 NULL
P       -0.00641420       2.48825998       5.76057074       0.00000000 NULL
P       -0.00641420      10.27263002       5.76057074       0.00000000 NULL
P        4.60350251      10.27263002      11.36000093       0.00000000 NULL
52
Lattice="5.1349742046093505 0.0 0.009408850289836653 0.0 12.934486155652898 0.0 -0.45013849867475336 0.0 17.251474884944624" Properties=species:S:1:pos:R:3:initial_magmoms:R:1:castep_labels:S:1 n_minim_iter=2 pbc="T T T"
P        0.75325203       5.34189615       8.95850303       0.00000000 NULL
P        3.93158367       5.34189615       8.30238072       0.00000000 NULL
P        3.93158367       7.59259001       8.30238072       0.00000000 NULL
P        0.75325203       7.59259001       8.95850303       0.00000000 NULL
P        4.01251013       5.44884281      15.07096977       0.00000000 NULL
P        0.67232557       5.44884281       2.18991398       0.00000000 NULL
P        0.67232557       7.48564334       2.18991398       0.00000000 NULL
P        4.01251013       7.48564334      15.07096977       0.00000000 NULL
P        1.27782989       8.83376040       6.08499181       0.00000000 NULL
P        3.40700581       8.83376040      11.17589194       0.00000000 NULL
P        3.40700581       4.10072576      11.17589194       0.00000000 NULL
P        1.27782989       4.10072576       6.08499181       0.00000000 NULL
P        3.16264405      10.47774712       7.99145755       0.00000000 NULL
P        1.52219165      10.47774712       9.26942620       0.00000000 NULL
P        1.52219165       2.45673903       9.26942620       0.00000000 NULL
P        3.16264405       2.45673903       7.99145755       0.00000000 NULL
P        1.04818080       1.01393132       1.52521907       0.00000000 NULL
P        3.63665490       1.01393132      15.73566468       0.00000000 NULL
P        3.63665490      11.92055484      15.73566468       0.00000000 NULL
P        1.04818080      11.92055484       1.52521907       0.00000000 NULL
P        2.58145441       5.44920053       9.84223539       0.00000000 NULL
P        2.10338129       5.44920053       7.41864835       0.00000000 NULL
P        2.10338129       7.48528563       7.41864835       0.00000000 NULL
P        2.58145441       7.48528563       9.84223539       0.00000000 NULL
P        3.94125904       5.44091567       1.28344810       0.00000000 NULL
P        0.74357667       5.44091567      15.97743564       0.00000000 NULL
P        0.74357667       7.49357049      15.97743564       0.00000000 NULL
P        3.94125904       7.49357049       1.28344810       0.00000000 NULL
P        0.92332289       9.44293671      12.71705707       0.00000000 NULL
P        3.76151281       9.44293671       4.54382667       0.00000000 NULL
P        3.76151281       3.49154945       4.54382667       0.00000000 NULL
P        0.92332289       3.49154945      12.71705707       0.00000000 NULL
P        0.52904052      11.65160968      15.64067538       0.00000000 NULL
P        4.15579518      11.65160968       1.62020836       0.00000000 NULL
P        4.15579518       1.28287647       1.62020836       0.00000000 NULL
P        0.52904052       1.28287647      15.64067538       0.00000000 NULL
P        1.25283462      10.03171948      14.65969524       0.00000000 NULL
P        3.43200108      10.03171948       2.60118850       0.00000000 NULL
P        3.43200108       2.90276668       2.60118850       0.00000000 NULL
P        1.25283462       2.90276668      14.65969524       0.00000000 NULL
P        0.08404652       1.02170149       4.41609415       0.00000000 NULL
P        4.60078918       1.02170149      12.84478959       0.00000000 NULL
P        4.60078918      11.91278466      12.84478959       0.00000000 NULL
P        0.08404652      11.91278466       4.41609415       0.00000000 NULL
P        1.14784706      11.91056698      11.57619152       0.00000000 NULL
P        3.53698865      11.91056698       5.68469222       0.00000000 NULL
P        3.53698865       1.02391918       5.68469222       0.00000000 NULL
P        1.14784706       1.02391918      11.57619152       0.00000000 NULL
P        4.68052472       2.52212229      11.45575380       0.00000000 NULL
P        0.00431098       2.52212229       5.80512994       0.00000000 NULL
P        0.00431098      10.41236387       5.80512994       0.00000000 NULL
P        4.68052472      10.41236387      11.45575380       0.00000000 NULL
52
Lattice="5.387031868162861 0.0 0.05506187080904661 0.0 13.619527971764539 0.0 -0.3197265575554999 0.0 17.771420446121546" Properties=species:S:1:pos:R:3:initial_magmoms:R:1:castep_labels:S:1 n_minim_iter=3 pbc="T T T"
P        0.86886151       5.62431762       9.23824538       0.00000000 NULL
P        4.19844379       5.62431762       8.58823694       0.00000000 NULL
P        4.19844379       7.99521036       8.58823694       0.00000000 NULL
P        0.86886151       7.99521036       9.23824538       0.00000000 NULL
P        4.34192551       5.73633161      15.56392029       0.00000000 NULL
P        0.72537979       5.73633161       2.26256204       0.00000000 NULL
P        0.72537979       7.88319636       2.26256204       0.00000000 NULL
P        4.34192551       7.88319636      15.56392029       0.00000000 NULL
P        1.39512673       9.30109734       6.28036393       0.00000000 NULL
P        3.67217857       9.30109734      11.54611839       0.00000000 NULL
P        3.67217857       4.31843064      11.54611839       0.00000000 NULL
P        1.39512673       4.31843064       6.28036393       0.00000000 NULL
P        3.38849741      11.03240121       8.26203333       0.00000000 NULL
P        1.67880790      11.03240121       9.56444900       0.00000000 NULL
P        1.67880790       2.58712676       9.56444900       0.00000000 NULL
P        3.38849741       2.58712676       8.26203333       0.00000000 NULL
P        1.11416760       1.06876736       1.58058131       0.00000000 NULL
P        3.95313771       1.06876736      16.24590102       0.00000000 NULL
P        3.95313771      12.55076061      16.24590102       0.00000000 NULL
P        1.11416760      12.55076061       1.58058131       0.00000000 NULL
P        2.79612489       5.73682867      10.16615611       0.00000000 NULL
P        2.27118042       5.73682867       7.66032622       0.00000000 NULL
P        2.27118042       7.88269930       7.66032622       0.00000000 NULL
P        2.79612489       7.88269930      10.16615611       0.00000000 NULL
P        4.14529852       5.72741871       1.35685721       0.00000000 NULL
P        0.92200679       5.72741871      16.46962511       0.00000000 NULL
P        0.92200679       7.89210926      16.46962511       0.00000000 NULL
P        4.14529852       7.89210926       1.35685721       0.00000000 NULL
P        1.08162302       9.94242848      13.11124702       0.00000000 NULL
P        3.98568229       9.94242848       4.71523530       0.00000000 NULL
P        3.98568229       3.67709949       4.71523530       0.00000000 NULL
P        1.08162302       3.67709949      13.11124702       0.00000000 NULL
P        0.69409776      12.26928197      16.12076740       0.00000000 NULL
P        4.37320755      12.26928197       1.70571492       0.00000000 NULL
P        4.37320755       1.35024600       1.70571492       0.00000000 NULL
P        0.69409776       1.35024600      16.12076740       0.00000000 NULL
P        1.44446291      10.56224630      15.11621088       0.00000000 NULL
P        3.62284239      10.56224630       2.71027145       0.00000000 NULL
P        3.62284239       3.05728167       2.71027145       0.00000000 NULL
P        1.44446291       3.05728167      15.11621088       0.00000000 NULL
P        0.12814412       1.07620664       4.54974750       0.00000000 NULL
P        4.93916118       1.07620664      13.27673482       0.00000000 NULL
P        4.93916118      12.54332134      13.27673482       0.00000000 NULL
P        0.12814412      12.54332134       4.54974750       0.00000000 NULL
P        1.30788433      12.54050936      11.93730894       0.00000000 NULL
P        3.75942098      12.54050936       5.88917339       0.00000000 NULL
P        3.75942098       1.07901861       5.88917339       0.00000000 NULL
P        1.30788433       1.07901861      11.93730894       0.00000000 NULL
P        5.01092541       2.65579158      11.84409814       0.00000000 NULL
P        0.05637990       2.65579158       5.98238418       0.00000000 NULL
P        0.05637990      10.96373639       5.98238418       0.00000000 NULL
P        5.01092541      10.96373639      11.84409814       0.00000000 NULL
52
Lattice="5.450793847927346 0.0 0.09294285339733364 0.0 13.751425204924352 0.0 -0.19787250771386192 0.0 17.92613364466003" Properties=species:S:1:pos:R:3:initial_magmoms:R:1:castep_labels:S:1 n_minim_iter=4 pbc="T T T"
P        0.94452011       5.67879918       9.32663085       0.00000000 NULL
P        4.30840123       5.67879918       8.69244566       0.00000000 NULL
P        4.30840123       8.07262602       8.69244566       0.00000000 NULL
P        0.94452011       8.07262602       9.32663085       0.00000000 NULL
P        4.50308990       5.79162636      15.73149641       0.00000000 NULL
P        0.74983144       5.79162636       2.28758009       0.00000000 NULL
P        0.74983144       7.95979884       2.28758009       0.00000000 NULL
P        4.50308990       7.95979884      15.73149641       0.00000000 NULL
P        1.45691013       9.39096850       6.34486870       0.00000000 NULL
P        3.79601120       9.39096850      11.67420780       0.00000000 NULL
P        3.79601120       4.36045671      11.67420780       0.00000000 NULL
P        1.45691013       4.36045671       6.34486870       0.00000000 NULL
P        3.48644848      11.13902184       8.35865783       0.00000000 NULL
P        1.76647286      11.13902184       9.66041867       0.00000000 NULL
P        1.76647286       2.61240337       9.66041867       0.00000000 NULL
P        3.48644848       2.61240337       8.35865783       0.00000000 NULL
P        1.13872178       1.07953141       1.60208222       0.00000000 NULL
P        4.11419956       1.07953141      16.41699428       0.00000000 NULL
P        4.11419956      12.67189379      16.41699428       0.00000000 NULL
P        1.13872178      12.67189379       1.60208222       0.00000000 NULL
P        2.90186855       5.79169611      10.27746341       0.00000000 NULL
P        2.35105278       5.79169611       7.74161309       0.00000000 NULL
P        2.35105278       7.95972910       7.74161309       0.00000000 NULL
P        2.90186855       7.95972910      10.27746341       0.00000000 NULL
P        4.20373035       5.78216845       1.39758978       0.00000000 NULL
P        1.04919099       5.78216845      16.62148673       0.00000000 NULL
P        1.04919099       7.96925676      16.62148673       0.00000000 NULL
P        4.20373035       7.96925676       1.39758978       0.00000000 NULL
P        1.18737951      10.03864918      13.23457526       0.00000000 NULL
P        4.06554182      10.03864918       4.78450125       0.00000000 NULL
P        4.06554182       3.71277602       4.78450125       0.00000000 NULL
P        1.18737951       3.71277602      13.23457526       0.00000000 NULL
P        0.81655183      12.38833135      16.26796491       0.00000000 NULL
P        4.43636950      12.38833135       1.75111160       0.00000000 NULL
P        4.43636950       1.36309385       1.75111160       0.00000000 NULL
P        0.81655183       1.36309385      16.26796491       0.00000000 NULL
P        1.56856878      10.66416181      15.25973629       0.00000000 NULL
P        3.68435256      10.66416181       2.75934022       0.00000000 NULL
P        3.68435256       3.08726340       2.75934022       0.00000000 NULL
P        1.56856878       3.08726340      15.25973629       0.00000000 NULL
P        0.16224410       1.08673211       4.59020732       0.00000000 NULL
P        5.09067724       1.08673211      13.42886919       0.00000000 NULL
P        5.09067724      12.66469310      13.42886919       0.00000000 NULL
P        0.16224410      12.66469310       4.59020732       0.00000000 NULL
P        1.40830949      12.66122931      12.05144241       0.00000000 NULL
P        3.84461184      12.66122931       5.96763410       0.00000000 NULL
P        3.84461184       1.09019590       5.96763410       0.00000000 NULL
P        1.40830949       1.09019590      12.05144241       0.00000000 NULL
P        5.15351269       2.68173312      11.98313992       0.00000000 NULL
P        0.09940865       2.68173312       6.03593659       0.00000000 NULL
P        0.09940865      11.06969209       6.03593659       0.00000000 NULL
P        5.15351269      11.06969209      11.98313992       0.00000000 NULL
52
Lattice="5.464095916565026 0.0 0.12627373922238427 0.0 13.768422236585002 0.0 -0.08663836758541235 0.0 18.0126373451669" Properties=species:S:1:pos:R:3:initial_magmoms:R:1:castep_labels:S:1 n_minim_iter=5 pbc="T T T"
P        1.00519529       5.68591316       9.37899411       0.00000000 NULL
P        4.37226226       5.68591316       8.75991698       0.00000000 NULL
P        4.37226226       8.08250908       8.75991698       0.00000000 NULL
P        1.00519529       8.08250908       9.37899411       0.00000000 NULL
P        4.61204110       5.79871654      15.83570035       0.00000000 NULL
P        0.76541645       5.79871654       2.30321075       0.00000000 NULL
P        0.76541645       7.96970569       2.30321075       0.00000000 NULL
P        4.61204110       7.96970569      15.83570035       0.00000000 NULL
P        1.50111522       9.40237029       6.38388080       0.00000000 NULL
P        3.87634232       9.40237029      11.75503029       0.00000000 NULL
P        3.87634232       4.36605194      11.75503029       0.00000000 NULL
P        1.50111522       4.36605194       6.38388080       0.00000000 NULL
P        3.54627930      11.15260538       8.42082182       0.00000000 NULL
P        1.83117824      11.15260538       9.71808927       0.00000000 NULL
P        1.83117824       2.61581686       9.71808927       0.00000000 NULL
P        3.54627930       2.61581686       8.42082182       0.00000000 NULL
P        1.15142607       1.08115506       1.61650627       0.00000000 NULL
P        4.22603147       1.08115506      16.52240482       0.00000000 NULL
P        4.22603147      12.68726718      16.52240482       0.00000000 NULL
P        1.15142607      12.68726718       1.61650627       0.00000000 NULL
P        2.97386252       5.79799717      10.34789364       0.00000000 NULL
P        2.40359502       5.79799717       7.79101745       0.00000000 NULL
P        2.40359502       7.97042507       7.79101745       0.00000000 NULL
P        2.97386252       7.97042507      10.34789364       0.00000000 NULL
P        4.22267429       5.78872234       1.42987254       0.00000000 NULL
P        1.15478325       5.78872234      16.70903855       0.00000000 NULL
P        1.15478325       7.97969990      16.70903855       0.00000000 NULL
P        4.22267429       7.97969990       1.42987254       0.00000000 NULL
P        1.27301946      10.05118682      13.30665060       0.00000000 NULL
P        4.10443808      10.05118682       4.83226050       0.00000000 NULL
P        4.10443808       3.71723542       4.83226050       0.00000000 NULL
P        1.27301946       3.71723542      13.30665060       0.00000000 NULL
P        0.92006601      12.40384442      16.35241046       0.00000000 NULL
P        4.45739154      12.40384442       1.78650064       0.00000000 NULL
P        4.45739154       1.36457781       1.78650064       0.00000000 NULL
P        0.92006601       1.36457781      16.35241046       0.00000000 NULL
P        1.66753206      10.67694535      15.34368460       0.00000000 NULL
P        3.70992548      10.67694535       2.79522650       0.00000000 NULL
P        3.70992548       3.09147688       2.79522650       0.00000000 NULL
P        1.66753206       3.09147688      15.34368460       0.00000000 NULL
P        0.19171573       1.08825215       4.61304965       0.00000000 NULL
P        5.18574181       1.08825215      13.52586144       0.00000000 NULL
P        5.18574181      12.68017009      13.52586144       0.00000000 NULL
P        0.19171573      12.68017009       4.61304965       0.00000000 NULL
P        1.48736404      12.67595640      12.11848679       0.00000000 NULL
P        3.89009350      12.67595640       6.02042431       0.00000000 NULL
P        3.89009350       1.09246584       6.02042431       0.00000000 NULL
P        1.48736404       1.09246584      12.11848679       0.00000000 NULL
P        5.24031747       2.68543700      12.07259566       0.00000000 NULL
P        0.13714007       2.68543700       6.06631543       0.00000000 NULL
P        0.13714007      11.08298524       6.06631543       0.00000000 NULL
P        5.24031747      11.08298524      12.07259566       0.00000000 NULL
52
Lattice="5.454505410500674 0.0 0.15606496201374243 0.0 13.740440172441193 0.0 0.014798743825751474 0.0 18.08385336773572" Properties=species:S:1:pos:R:3:initial_magmoms:R:1:castep_labels:S:1 n_minim_iter=6 pbc="T T T"
P        1.05656954       5.67447103       9.42328536       0.00000000 NULL
P        4.41273461       5.67447103       8.81663298       0.00000000 NULL
P        4.41273461       8.06596914       8.81663298       0.00000000 NULL
P        1.05656954       8.06596914       9.42328536       0.00000000 NULL
P        4.69314609       5.78693362      15.92362886       0.00000000 NULL
P        0.77615806       5.78693362       2.31628948       0.00000000 NULL
P        0.77615806       7.95350655       2.31628948       0.00000000 NULL
P        4.69314609       7.95350655      15.92362886       0.00000000 NULL
P        1.53594965       9.38295497       6.41618929       0.00000000 NULL
P        3.93335450       9.38295497      11.82372905       0.00000000 NULL
P        3.93335450       4.35748520      11.82372905       0.00000000 NULL
P        1.53594965       4.35748520       6.41618929       0.00000000 NULL
P        3.58649316      11.12974323       8.47370852       0.00000000 NULL
P        1.88281099      11.12974323       9.76620982       0.00000000 NULL
P        1.88281099       2.61069694       9.76620982       0.00000000 NULL
P        3.58649316       2.61069694       8.47370852       0.00000000 NULL
P        1.15832296       1.07931017       1.62868255       0.00000000 NULL
P        4.31098119       1.07931017      16.61123579       0.00000000 NULL
P        4.31098119      12.66113000      16.61123579       0.00000000 NULL
P        1.15832296      12.66113000       1.62868255       0.00000000 NULL
P        3.02793994       5.78498403      10.40865685       0.00000000 NULL
P        2.44136421       5.78498403       7.83126149       0.00000000 NULL
P        2.44136421       7.95545614       7.83126149       0.00000000 NULL
P        3.02793994       7.95545614      10.40865685       0.00000000 NULL
P        4.22350783       5.77624223       1.45841737       0.00000000 NULL
P        1.24579632       5.77624223      16.78150097       0.00000000 NULL
P        1.24579632       7.96419794      16.78150097       0.00000000 NULL
P        4.22350783       7.96419794       1.45841737       0.00000000 NULL
P        1.34601675      10.03105105      13.36671869       0.00000000 NULL
P        4.12328740      10.03105105       4.87319964       0.00000000 NULL
P        4.12328740       3.70938912       4.87319964       0.00000000 NULL
P        1.34601675       3.70938912      13.36671869       0.00000000 NULL
P        1.01052055      12.37888883      16.42227982       0.00000000 NULL
P        4.45878360      12.37888883       1.81763852       0.00000000 NULL
P        4.45878360       1.36155134       1.81763852       0.00000000 NULL
P        1.01052055       1.36155134      16.42227982       0.00000000 NULL
P        1.75088700      10.65468970      15.41330964       0.00000000 NULL
P        3.71841715      10.65468970       2.82660870       0.00000000 NULL
P        3.71841715       3.08575047       2.82660870       0.00000000 NULL
P        1.75088700       3.08575047      15.41330964       0.00000000 NULL
P        0.21802304       1.08632964       4.63166122       0.00000000 NULL
P        5.25128111       1.08632964      13.60825712       0.00000000 NULL
P        5.25128111      12.65411054      13.60825712       0.00000000 NULL
P        0.21802304      12.65411054       4.63166122       0.00000000 NULL
P        1.55363646      12.64889517      12.17410738       0.00000000 NULL
P        3.91566769      12.64889517       6.06581096       0.00000000 NULL
P        3.91566769       1.09154501       6.06581096       0.00000000 NULL
P        1.55363646       1.09154501      12.17410738       0.00000000 NULL
P        5.29857674       2.68056558      12.14846275       0.00000000 NULL
P        0.17072741       2.68056558       6.09145559       0.00000000 NULL
P        0.17072741      11.05987460       6.09145559       0.00000000 NULL
P        5.29857674      11.05987460      12.14846275       0.00000000 NULL
52
Lattice="5.429763699097776 0.0 0.19445020380922784 0.0 13.697140986168165 0.0 0.14666014160263566 0.0 18.228675948675424" Properties=species:S:1:pos:R:3:initial_magmoms:R:1:castep_labels:S:1 n_minim_iter=7 pbc="T T T"
P        1.12145390       5.65670563       9.50970440       0.00000000 NULL
P        4.45496994       5.65670563       8.91342176       0.00000000 NULL
P        4.45496994       8.04043536       8.91342176       0.00000000 NULL
P        1.12145390       8.04043536       9.50970440       0.00000000 NULL
P        4.78886313       5.76864606      16.08355054       0.00000000 NULL
P        0.78756070       5.76864606       2.33957563       0.00000000 NULL
P        0.78756070       7.92849492       2.33957563       0.00000000 NULL
P        4.78886313       7.92849492      16.08355054       0.00000000 NULL
P        1.57939236       9.35260363       6.47545836       0.00000000 NULL
P        3.99703148       9.35260363      11.94766780       0.00000000 NULL
P        3.99703148       4.34453736      11.94766780       0.00000000 NULL
P        1.57939236       4.34453736       6.47545836       0.00000000 NULL
P        3.63055361      11.09427330       8.56673767       0.00000000 NULL
P        1.94587023      11.09427330       9.85638849       0.00000000 NULL
P        1.94587023       2.60286769       9.85638849       0.00000000 NULL
P        3.63055361       2.60286769       8.56673767       0.00000000 NULL
P        1.16472986       1.07680286       1.64860800       0.00000000 NULL
P        4.41169398       1.07680286      16.77451816       0.00000000 NULL
P        4.41169398      12.62033813      16.77451816       0.00000000 NULL
P        1.16472986      12.62033813       1.64860800       0.00000000 NULL
P        3.09252130       5.76392874      10.52055377       0.00000000 NULL
P        2.48390254       5.76392874       7.90257239       0.00000000 NULL
P        2.48390254       7.93321224       7.90257239       0.00000000 NULL
P        3.09252130       7.93321224      10.52055377       0.00000000 NULL
P        4.21588028       5.75639479       1.49947459       0.00000000 NULL
P        1.36054356       5.75639479      16.92365157       0.00000000 NULL
P        1.36054356       7.94074620      16.92365157       0.00000000 NULL
P        4.21588028       7.94074620       1.49947459       0.00000000 NULL
P        1.43855360      10.00017253      13.48354965       0.00000000 NULL
P        4.13787024      10.00017253       4.93957651       0.00000000 NULL
P        4.13787024       3.69696846       4.93957651       0.00000000 NULL
P        1.43855360       3.69696846      13.48354965       0.00000000 NULL
P        1.12608790      12.34044765      16.56026685       0.00000000 NULL
P        4.45033593      12.34044765       1.86285932       0.00000000 NULL
P        4.45033593       1.35669334       1.86285932       0.00000000 NULL
P        1.12608790       1.35669334      16.56026685       0.00000000 NULL
P        1.85549264      10.61979197      15.54756730       0.00000000 NULL
P        3.72093120      10.61979197       2.87555887       0.00000000 NULL
P        3.72093120       3.07734902       2.87555887       0.00000000 NULL
P        1.85549264       3.07734902      15.54756730       0.00000000 NULL
P        0.25258949       1.08363321       4.66845427       0.00000000 NULL
P        5.32383435       1.08363321      13.75467190       0.00000000 NULL
P        5.32383435      12.61350778      13.75467190       0.00000000 NULL
P        0.25258949      12.61350778       4.66845427       0.00000000 NULL
P        1.63734969      12.60609572      12.28075272       0.00000000 NULL
P        3.93907414      12.60609572       6.14237344       0.00000000 NULL
P        3.93907414       1.09104527       6.14237344       0.00000000 NULL
P        1.63734969       1.09104527      12.28075272       0.00000000 NULL
P        5.36270887       2.67339729      12.28123601       0.00000000 NULL
P        0.21371496       2.67339729       6.14189016       0.00000000 NULL
P        0.21371496      11.02374370       6.14189016       0.00000000 NULL
P        5.36270887      11.02374370      12.28123601       0.00000000 NULL
52
Lattice="5.402961633960005 0.0 0.20644287601111538 0.0 13.680517774547296 0.0 0.18964731024406062 0.0 18.375455714242108" Properties=species:S:1:pos:R:3:initial_magmoms:R:1:castep_labels:S:1 n_minim_iter=8 pbc="T T T"
P        1.14024238       5.64976063       9.59386359       0.00000000 NULL
P        4.45236656       5.64976063       8.98803501       0.00000000 NULL
P        4.45236656       8.03075714       8.98803501       0.00000000 NULL
P        1.14024238       8.03075714       9.59386359       0.00000000 NULL
P        4.80592559       5.76139729      16.22294998       0.00000000 NULL
P        0.78668335       5.76139729       2.35894862       0.00000000 NULL
P        0.78668335       7.91912049       2.35894862       0.00000000 NULL