8
Lattice="3.7940099999999988 -1.5914417589455133e-16 -3.820508351153034e-16 -1.3803930941692513 6.252781625898173 -4.639170310345102e-16 -1.3158299658637884 -3.000261580061552 7.091444507929356" Properties=species:S:1:pos:R:3:initial_magmoms:R:1:castep_labels:S:1 n_minim_iter=1 pbc="T T T"
P        1.15054521       2.36234020       5.03600776       0.00000000 NULL
P       -0.05275827       0.89017985       2.05543675       0.00000000 NULL
P        1.51153179       2.13316119       1.06064112       0.00000000 NULL
P       -0.41374485       1.11935886       6.03080339       0.00000000 NULL
P        0.99964455       0.40542975       4.58570812       0.00000000 NULL
P        0.09814239       2.84709030       2.50573639       0.00000000 NULL
P        0.33366469       4.01335423       0.87222853       0.00000000 NULL
P        0.76412225      -0.76083418       6.21921598       0.00000000 NULL
8
Lattice="3.796942732856528 0.0006124339758047082 -0.0017702347131375391 -1.380450792559931 6.263390212152327 -0.001086001687968862 -1.3206401696156629 -3.0076333240292525 7.110425972378025" Properties=species:S:1:pos:R:3:initial_magmoms:R:1:castep_labels:S:1 n_minim_iter=2 pbc="T T T"
P        1.14952575       2.36558307       5.04733478       0.00000000 NULL
P       -0.05367398       0.89078625       2.06023496       0.00000000 NULL
P        1.51255801       2.13669932       1.06214783       0.00000000 NULL
P       -0.41670624       1.11967000       6.04542191       0.00000000 NULL
P        0.99842481       0.40477117       4.59598761       0.00000000 NULL
P        0.09742697       2.85159815       2.51158212       0.00000000 NULL
P        0.33411934       4.02035565       0.87325077       0.00000000 NULL
P        0.76173243      -0.76398633       6.23431896       0.00000000 NULL
8
Lattice="3.8718404940973246 0.017553385858120208 -0.048498596077666906 -1.3797813899306668 6.535491551202936 -0.029570686411167196 -1.447353485406069 -3.1986151673142222 7.607768369080398" Properties=species:S:1:pos:R:3:initial_magmoms:R:1:castep_labels:S:1 n_minim_iter=3 pbc="T T T"
P        1.12230152       2.44870364       5.34380736       0.00000000 NULL
P       -0.07759590       0.90572613       2.18589172       0.00000000 NULL
P        1.53895259       2.22778704       1.10159801       0.00000000 NULL
P       -0.49424697       1.12664273       6.42810108       0.00000000 NULL
P        0.96571578       0.38723797       4.86461112       0.00000000 NULL
P        0.07898984       2.96719180       2.66508797       0.00000000 NULL
P        0.34678037       4.20030203       0.90003083       0.00000000 NULL
P        0.69792524      -0.84587226       6.62966826       0.00000000 NULL
8
Lattice="3.8954495655493324 0.05216503743944129 -0.08464812213329354 -1.331328881935808 6.529726438574488 -0.010416830969068208 -1.5504797001909822 -3.207088936417871 7.815703478950055" Properties=species:S:1:pos:R:3:initial_magmoms:R:1:castep_labels:S:1 n_minim_iter=4 pbc="T T T"
P        1.10326466       2.46868304       5.47715444       0.00000000 NULL
P       -0.08962368       0.90611950       2.24348409       0.00000000 NULL
P        1.55595611       2.24421627       1.12370425       0.00000000 NULL
P       -0.54231513       1.13058627       6.59693427       0.00000000 NULL
P        0.93308082       0.39830200       4.97563639       0.00000000 NULL
P        0.08056016       2.97650054       2.74500214       0.00000000 NULL
P        0.37820835       4.20953893       0.92955694       0.00000000 NULL
P        0.63543264      -0.83473639       6.79108158       0.00000000 NULL
8
Lattice="3.9116637692488148 0.09702358397436397 -0.12143051920445068 -1.2632982966912174 6.435684935318496 0.04113556864379368 -1.6603272853331608 -3.1420649864417736 7.956400558158012" Properties=species:S:1:pos:R:3:initial_magmoms:R:1:castep_labels:S:1 n_minim_iter=5 pbc="T T T"
P        1.08707656       2.48385685       5.58561526       0.00000000 NULL
P       -0.09903837       0.90678668       2.29049035       0.00000000 NULL
P        1.57452325       2.24159629       1.15005804       0.00000000 NULL
P       -0.58648506       1.14904724       6.72604757       0.00000000 NULL
P        0.89854985       0.43073113       5.05525202       0.00000000 NULL
P        0.08948833       2.95991240       2.82085359       0.00000000 NULL
P        0.42050843       4.16886988       0.97425656       0.00000000 NULL
P        0.56752975      -0.77822634       6.90184905       0.00000000 NULL
8
Lattice="4.006953393310211 0.28210636119484866 -0.27993029863082236 -0.9929392175970347 6.050809314038573 0.33187542230192746 -2.13599131329375 -2.789558967072348 8.57601444287202" Properties=species:S:1:pos:R:3:initial_magmoms:R:1:castep_labels:S:1 n_minim_iter=6 pbc="T T T"
P        1.01762984       2.60891164       6.11222488       0.00000000 NULL
P       -0.13960698       0.93444506       2.51573468       0.00000000 NULL
P        1.65552120       2.24130961       1.29943950       0.00000000 NULL
P       -0.77749833       1.30204710       7.32852007       0.00000000 NULL
P        0.75499830       0.61672367       5.42847403       0.00000000 NULL
P        0.12302456       2.92663303       3.19948554       0.00000000 NULL
P        0.59498665       4.01742595       1.21946913       0.00000000 NULL
P        0.28303621      -0.47406924       7.40849044       0.00000000 NULL
8
Lattice="3.8956108622763694 0.21855744115387046 -0.14864105671395575 -1.0571617838663505 6.318607959226882 0.37051364108423696 -1.8017271454069046 -2.786927062557744 8.205364778960988" Properties=species:S:1:pos:R:3:initial_magmoms:R:1:castep_labels:S:1 n_minim_iter=7 pbc="T T T"
P        1.11447017       2.75114487       5.98439008       0.00000000 NULL
P       -0.07774824       0.99909347       2.44284728       0.00000000 NULL
P        1.60905919       2.29646761       1.34212287       0.00000000 NULL
P       -0.57233725       1.45377073       7.08511449       0.00000000 NULL
P        0.86902092       0.67240161       5.28729326       0.00000000 NULL
P        0.16770101       3.07783673       3.13994411       0.00000000 NULL
P        0.54587900       4.19449729       1.25584138       0.00000000 NULL
P        0.49084293      -0.44425895       7.17139598       0.00000000 NULL
8
Lattice="3.899519503547695 0.22593415466400119 -0.15021001192085842 -1.0464265677553932 6.168874595638089 0.3529051767125723 -1.8118487149935294 -2.7395445752129355 8.351204324937253" Properties=species:S:1:pos:R:3:initial_magmoms:R:1:castep_labels:S:1 n_minim_iter=8 pbc="T T T"
P        1.11529068       2.67839951       6.07332415       0.00000000 NULL
P       -0.07404646       0.97686467       2.48057534       0.00000000 NULL
P        1.60963306       2.24150069       1.36276370       0.00000000 NULL
P       -0.56838884       1.41376349       7.19113579       0.00000000 NULL
P        0.86804628       0.65311148       5.36805331       0.00000000 NULL
P        0.17319794       3.00215269       3.18584618       0.00000000 NULL
P        0.55471982       4.10238393       1.26571105       0.00000000 NULL
P        0.48652440      -0.44711975       7.28818844       0.00000000 NULL
8
Lattice="3.901908917974843 0.22589134308198044 -0.13408351981384672 -1.0473664763607418 6.173762565736131 0.3659623400976935 -1.782501268169445 -2.720404816193239 8.436478577427321" Properties=species:S:1:pos:R:3:initial_magmoms:R:1:castep_labels:S:1 n_minim_iter=9 pbc="T T T"
P        1.13498152       2.69399738       6.15695276       0.00000000 NULL
P       -0.06294035       0.98525172       2.51140464       0.00000000 NULL
P        1.61121455       2.24029401       1.39546692       0.00000000 NULL
P       -0.53917337       1.43895508       7.27289048       0.00000000 NULL
P        0.88606950       0.66524292       5.43322142       0.00000000 NULL
P        0.18597167       3.01400618       3.23513598       0.00000000 NULL
P        0.55878993       4.11359229       1.29634159       0.00000000 NULL
P        0.51325125      -0.43434320       7.37201581       0.00000000 NULL
8
Lattice="3.890817252280842 0.22854784103643908 -0.11544468713360667 -1.0389528558574457 6.151090884049299 0.37409982719020485 -1.745917072296019 -2.6939914211777083 8.46579263831106" Properties=species:S:1:pos:R:3:initial_magmoms:R:1:castep_labels:S:1 n_minim_iter=10 pbc="T T T"
P        1.15621312       2.69702496       6.19902443       0.00000000 NULL
P       -0.05026580       0.98862234       2.52542334       0.00000000 NULL
P        1.61037918       2.23247235       1.41767910       0.00000000 NULL
P       -0.50443185       1.45317495       7.30676868       0.00000000 NULL
P        0.90389202       0.67440328       5.46466424       0.00000000 NULL
P        0.20205530       3.01124402       3.25978353       0.00000000 NULL
P        0.56534601       4.10535751       1.31642260       0.00000000 NULL
P        0.54060131      -0.41971020       7.40802518       0.00000000 NULL
8
Lattice="3.878961263909008 0.23131346945190864 -0.09249685030282669 -1.0300812938390667 6.1401420102014495 0.38649796250914525 -1.701100066658862 -2.666649703150376 8.512377645745257" Properties=species:S:1:pos:R:3:initial_magmoms:R:1:castep_labels:S:1 n_minim_iter=11 pbc="T T T"
P        1.18270807       2.70917821       6.26005846       0.00000000 NULL
P       -0.03492817       0.99562757       2.54632029       0.00000000 NULL
P        1.60989807       2.22849379       1.44729540       0.00000000 NULL
P       -0.46211816       1.47631199       7.35908336       0.00000000 NULL
P        0.92613854       0.68801560       5.51085388       0.00000000 NULL
P        0.22164136       3.01679018       3.29552488       0.00000000 NULL
P        0.57292243       4.10670794       1.34440399       0.00000000 NULL
P        0.57485747      -0.40190216       7.46197477       0.00000000 NULL
8
Lattice="3.8097427641717214 0.2469728519108964 0.006077313309285306 -0.9790894836069995 6.08630942036353 0.44366039159087944 -1.505230592472418 -2.543479503309059 8.703936767497584" Properties=species:S:1:pos:R:3:initial_magmoms:R:1:castep_labels:S:1 n_minim_iter=12 pbc="T T T"
P        1.29410674       2.76344672       6.51816860       0.00000000 NULL
P        0.03131595       1.02635605       2.63550588       0.00000000 NULL
P        1.60280271       2.21164508       1.57260996       0.00000000 NULL
P       -0.27738002       1.57815769       7.58106451       0.00000000 NULL
P        1.01630706       0.75000879       5.70651305       0.00000000 NULL
P        0.30911562       3.03979398       3.44716142       0.00000000 NULL
P        0.60785167       4.11048718       1.46809626       0.00000000 NULL
P        0.71757102      -0.32068441       7.68557821       0.00000000 NULL
8
Lattice="3.704192624599636 0.2775278922144623 0.041622421850557485 -0.8903299183073242 6.10323031600703 0.5050586442213619 -1.4263485948501735 -2.483229381067983 8.676118950016345" Properties=species:S:1:pos:R:3:initial_magmoms:R:1:castep_labels:S:1 n_minim_iter=13 pbc="T T T"
P        1.32783973       2.83871417       6.56637800       0.00000000 NULL
P        0.05967438       1.05881466       2.65642201       0.00000000 NULL
P        1.57736803       2.22414603       1.61082722       0.00000000 NULL
P       -0.18985392       1.67338280       7.61197279       0.00000000 NULL
P        1.02210603       0.80809059       5.73861524       0.00000000 NULL
P        0.36540808       3.08943824       3.48418478       0.00000000 NULL
P        0.63633204       4.16261349       1.54151151       0.00000000 NULL
P        0.75118207      -0.26508466       7.68128851       0.00000000 NULL
8
Lattice="3.7120932278712235 0.2963061656688964 0.01944188265357082 -0.8622565855996909 6.090350149126382 0.49600600841230774 -1.4853963163347654 -2.506259322404694 8.830016494436844" Properties=species:S:1:pos:R:3:initial_magmoms:R:1:castep_labels:S:1 n_minim_iter=14 pbc="T T T"
P        1.31403557       2.82788575       6.64835539       0.00000000 NULL
P        0.05040475       1.05251125       2.69710900       0.00000000 NULL
P        1.58366603       2.22227320       1.61579245       0.00000000 NULL
P       -0.21922570       1.65812379       7.72967194       0.00000000 NULL
P        0.99742333       0.79985859       5.81881736       0.00000000 NULL
P        0.36701699       3.08053840       3.52664703       0.00000000 NULL
P        0.65052308       4.16271435       1.55078355       0.00000000 NULL
P        0.71391724      -0.28231736       7.79468084       0.00000000 NULL
