9
Lattice="5.051047104866706 -2.8485867704074734e-14 -9.197459310912988e-43 -2.525523552433328 4.374335108526423 6.39436881514401e-42 1.1565215737457711e-42 -8.616662090168034e-42 6.351368078196823" Properties=species:S:1:pos:R:3:initial_magmoms:R:1:castep_labels:S:1:forces:R:3 n_minim_iter=1 energy=-48.50653955206296 stress="-0.0044617408927736775 4.089170370392559e-12 1.6955073216190293e-12 4.089170370392559e-12 -0.004461740901408718 -1.4272102399032584e-12 1.6955073216190293e-12 -1.4272102399032584e-12 -0.011527194747241145" free_energy=-48.50653955206296 pbc="T T T"
P        2.10788342       2.87594203       2.48500211       0.00000000 NULL      -0.09865375       0.05241117      -0.16506929
P        3.96222069       1.11088351       0.36787942       0.00000000 NULL       0.09471628       0.05923107      -0.16506929
P        1.50646654       0.38750958       4.60212480       0.00000000 NULL       0.00393748      -0.11164224      -0.16506929
P       -2.10772059       2.84999044       4.56304648       0.00000000 NULL       0.06031106       0.20798330       0.22733268
P        0.99650086       4.77467947       2.44592379       0.00000000 NULL       0.14996329      -0.15622256       0.22733268
P        1.11121973       1.12400032       6.68016917       0.00000000 NULL      -0.21027435      -0.05176074       0.22733268
P       -0.00852935       1.75169650       3.54151309       0.00000000 NULL      -0.03863463      -0.05148879      -0.06226339
P       -1.00424521       3.50587349       1.42439039       0.00000000 NULL      -0.02527329       0.05920297      -0.06226339
P        1.01277456       3.49110023       5.65863578       0.00000000 NULL       0.06390792      -0.00771418      -0.06226339
9
Lattice="5.067192931464891 -2.812378092927756e-14 -9.196347059602375e-43 -2.533596465732421 4.388317804525549 6.420911052961e-42 1.1700564043200716e-42 -8.676572204590799e-42 6.403953323540552" Properties=species:S:1:pos:R:3:initial_magmoms:R:1:castep_labels:S:1:forces:R:3 n_minim_iter=2 energy=-48.51597341394278 stress="0.0024129407316383963 -1.2717658791441703e-11 -4.596887374723487e-13 -1.2717658791441703e-11 0.002412940724921488 1.0971228745833994e-12 -4.596887374723487e-13 1.0971228745833994e-12 -0.00012573761228548482" free_energy=-48.51597341394278 pbc="T T T"
P        2.11411688       2.88540306       2.50472799       0.00000000 NULL      -0.05277796       0.11603226      -0.07083747
P        3.97537037       1.11473735       0.37007689       0.00000000 NULL       0.12687586      -0.01230907      -0.07083747
P        1.51130214       0.38817740       4.63937910       0.00000000 NULL      -0.07409790      -0.10372318      -0.07083747
P       -2.11414959       2.86016402       4.60199390       0.00000000 NULL       0.02537161       0.26539851       0.12684680
P        1.00045302       4.78914305       2.46734279       0.00000000 NULL       0.21715605      -0.15467171       0.12684680
P        1.11369657       1.12732855       6.73664501       0.00000000 NULL      -0.24252766      -0.11072680       0.12684680
P       -0.00875417       1.75703257       3.57051455       0.00000000 NULL      -0.03299479      -0.12267979      -0.05600933
P       -1.00758455       3.51738285       1.43586344       0.00000000 NULL      -0.08974641       0.08991422      -0.05600933
P        1.01633871       3.50222019       5.70516566       0.00000000 NULL       0.12274121       0.03276556      -0.05600933
9
Lattice="5.054267681899496 -2.7891018333183325e-14 -9.0697488505201e-43 -2.527133840949723 4.3771242100516625 6.425150601162501e-42 1.1876252972390415e-42 -8.66422196786217e-42 6.4243359814876575" Properties=species:S:1:pos:R:3:initial_magmoms:R:1:castep_labels:S:1:forces:R:3 n_minim_iter=3 energy=-48.519359088261304 stress="-0.002070789092582834 -2.2678211441686685e-12 -5.038765178789864e-12 -2.2678211441686685e-12 -0.0020707890921014007 -1.4779450623663404e-12 -5.038765178789864e-12 -1.4779450623663404e-12 0.0022310098996655317" free_energy=-48.519359088261304 pbc="T T T"
P        2.10797021       2.87939718       2.51161218       0.00000000 NULL      -0.02368156       0.02091818      -0.01284195
P        3.96677985       1.11186987       0.37016686       0.00000000 NULL       0.02995646       0.01004974      -0.01284195
P        1.50665147       0.38585716       4.65305751       0.00000000 NULL      -0.00627490      -0.03096792      -0.01284195
P       -2.10837060       2.85612831       4.61846198       0.00000000 NULL       0.00378465       0.15528578       0.06064106
P        1.00053113       4.77496256       2.47701665       0.00000000 NULL       0.13258910      -0.08092049       0.06064106
P        1.10783947       1.12315755       6.75990730       0.00000000 NULL      -0.13637375      -0.07436529       0.06064106
P       -0.00916070       1.75112632       3.58114605       0.00000000 NULL      -0.02068131      -0.09491569      -0.04779911
P       -1.00603361       3.50949445       1.43970072       0.00000000 NULL      -0.07185874       0.06536839      -0.04779911
P        1.01519432       3.49362765       5.72259138       0.00000000 NULL       0.09254005       0.02954730      -0.04779911
9
Lattice="5.095245350887651 -2.899444714183418e-14 -9.126165535742796e-43 -2.5476226754437983 4.412611912383275 6.480912750358326e-42 1.1802659475464487e-42 -8.582792469741393e-42 6.369788564591545" Properties=species:S:1:pos:R:3:initial_magmoms:R:1:castep_labels:S:1:forces:R:3 n_minim_iter=4 energy=-48.532014792042965 stress="-0.00012296457557288938 3.065402688218561e-12 9.776002163955519e-12 3.065402688218561e-12 -0.00012296456184133773 -1.4350446683610402e-11 9.776002163955519e-12 -1.4350446683610402e-11 -3.978449821587047e-05" free_energy=-48.532014792042965 pbc="T T T"
P        2.12093292       2.90891876       2.48569971       0.00000000 NULL       0.13972634      -0.04333493      -0.06227738
P        4.00635376       1.12137075       0.36243685       0.00000000 NULL      -0.10739232      -0.09933909      -0.06227738
P        1.51558135       0.38232241       4.60896256       0.00000000 NULL      -0.03233402       0.14267403      -0.06227738
P       -2.12386206       2.90047104       4.58934089       0.00000000 NULL      -0.09148317      -0.02400217       0.04731610
P        1.02618995       4.80169489       2.46607804       0.00000000 NULL       0.02495510       0.09122783       0.04731610
P        1.09767211       1.12305790       6.71260375       0.00000000 NULL       0.06652807      -0.06722566       0.04731610
P       -0.01203074       1.75440037       3.54523334       0.00000000 NULL       0.07167108      -0.11506930       0.01496128
P       -1.02225202       3.54583066       1.42197049       0.00000000 NULL      -0.13548848      -0.00453432       0.01496128
P        1.03428276       3.52499280       5.66849620       0.00000000 NULL       0.06381740       0.11960362       0.01496128
9
Lattice="5.148327855304525 -3.0700948054919465e-14 -9.219623363903886e-43 -2.574163927652234 4.458582709704788 6.548748654747733e-42 1.1702045744098201e-42 -8.499660516913054e-42 6.310195106255205" Properties=species:S:1:pos:R:3:initial_magmoms:R:1:castep_labels:S:1:forces:R:3 n_minim_iter=5 energy=-48.54373917512818 stress="-0.002468861649110482 -7.689631344227535e-12 8.157635148137098e-12 -7.689631344227535e-12 -0.0024688616567507767 1.4838329469893035e-11 8.157635148137098e-12 1.4838329469893035e-11 -0.0012989067966249752" free_energy=-48.54373917512818 pbc="T T T"
P        2.16580738       2.93954578       2.44348847       0.00000000 NULL      -0.01083204       0.12010471       0.03224227
P        4.03698156       1.11316562       0.34009010       0.00000000 NULL       0.10942975      -0.05067154       0.03224227
P        1.51970285       0.40587132       4.54688683       0.00000000 NULL      -0.09859771      -0.06943318       0.03224227
P       -2.16242231       2.95597945       4.56994987       0.00000000 NULL       0.03182426       0.01316505      -0.04389972
P        1.06700052       4.85330564       2.46655150       0.00000000 NULL      -0.00451086      -0.03414314      -0.04389972
P        1.09542178       1.10788033       6.67334824       0.00000000 NULL      -0.02731340       0.02097809      -0.04389972
P       -0.00141041       1.73363183       3.50747613       0.00000000 NULL       0.02973052       0.10994742       0.01165745
P       -1.07208952       3.59298825       1.40407776       0.00000000 NULL       0.08035200      -0.08072110       0.01165745
P        1.07349993       3.59054535       5.61087450       0.00000000 NULL      -0.11008252      -0.02922632       0.01165745
9
Lattice="5.164908980490429 -2.9591420826507474e-14 -9.249699595597536e-43 -2.582454490245187 4.4729423853391115 6.56977566928692e-42 1.1690168227025388e-42 -8.489753984643745e-42 6.303110739960895" Properties=species:S:1:pos:R:3:initial_magmoms:R:1:castep_labels:S:1:forces:R:3 n_minim_iter=6 energy=-48.54683411544339 stress="-0.0026975401494649678 4.3814612512636435e-13 -1.8417383246997027e-11 4.3814612512636435e-13 -0.0026975401499953503 1.184900590880464e-11 -1.8417383246997027e-11 1.184900590880464e-11 -0.0013742392086583618" free_energy=-48.54683411544339 pbc="T T T"
P        2.18056741       2.96050825       2.43900879       0.00000000 NULL      -0.04145615       0.02694674       0.03802342
P        4.05604613       1.10426149       0.33797188       0.00000000 NULL       0.04406464       0.02242871       0.03802342
P        1.51074992       0.40817265       4.54004570       0.00000000 NULL      -0.00260849      -0.04937545       0.03802342
P       -2.17247438       2.97096256       4.56536683       0.00000000 NULL      -0.03042303      -0.00418332       0.01063304
P        1.07671175       4.86887911       2.46432991       0.00000000 NULL       0.01158865       0.02843878       0.01063305
P        1.09576263       1.10604311       6.66640374       0.00000000 NULL       0.01883438      -0.02425546       0.01063305
P        0.00536067       1.73822548       3.50472717       0.00000000 NULL      -0.07598919       0.10978010      -0.04865646
P       -1.07978740       3.59918717       1.40369025       0.00000000 NULL       0.13306696       0.01091852      -0.04865646
P        1.07442673       3.60847213       5.60576408       0.00000000 NULL      -0.05707776      -0.12069862      -0.04865646
9
Lattice="5.185818107875428 -2.8574329601839966e-14 -9.288661352912983e-43 -2.592909053937687 4.491050220825485 6.596347119115293e-42 1.1676038575692016e-42 -8.47922056027068e-42 6.295347802486933" Properties=species:S:1:pos:R:3:initial_magmoms:R:1:castep_labels:S:1:forces:R:3 n_minim_iter=7 energy=-48.55108587634699 stress="-0.0032856431940612783 1.4300377488909806e-12 -6.780122021513658e-12 1.4300377488909806e-12 -0.003285643201183067 -5.2047530085585415e-12 -6.780122021513658e-12 -5.2047530085585415e-12 -0.0018335661162036374" free_energy=-48.55108587634699 pbc="T T T"
P        2.20195892       2.99026924       2.43693941       0.00000000 NULL      -0.04958833      -0.02414779      -0.02743249
P        4.08157872       1.08896324       0.33849015       0.00000000 NULL       0.00388156       0.05501865      -0.02743249
P        1.49518952       0.41181774       4.53538868       0.00000000 NULL       0.04570677      -0.03087085      -0.02743249
P       -2.19919096       2.98903037       4.56476087       0.00000000 NULL       0.04189949      -0.01239606       0.01624969
P        1.09526266       4.90109028       2.46631160       0.00000000 NULL      -0.03168505      -0.03008799       0.01624969
P        1.10392830       1.09197979       6.66321013       0.00000000 NULL      -0.01021444       0.04248405       0.01624969
P        0.00276542       1.75306902       3.49445945       0.00000000 NULL      -0.00748414       0.09439370       0.01118280
P       -1.07608946       3.61212079       1.39601018       0.00000000 NULL       0.08548942      -0.04071539       0.01118280
P        1.07332404       3.61691064       5.59290872       0.00000000 NULL      -0.07800527      -0.05367831       0.01118280
9
Lattice="5.191161290151094 -2.925331778788479e-14 -9.562632511173068e-43 -2.59558064507552 4.495677552413264 4.232719211585114e-42 1.1332087659898738e-42 -8.808248727964982e-42 6.279062869678658" Properties=species:S:1:pos:R:3:initial_magmoms:R:1:castep_labels:S:1:forces:R:3 n_minim_iter=8 energy=-48.55229526331921 stress="-0.002725156087977102 4.78956640151531e-12 -1.2278083314367557e-12 4.78956640151531e-12 -0.00272515610378906 1.4559156952364055e-11 -1.2278083314367557e-12 1.4559156952364055e-11 -0.002531642908473574" free_energy=-48.55229526331921 pbc="T T T"
P        2.20621773       2.99544451       2.42547397       0.00000000 NULL      -0.03434536      -0.02446175       0.01324942
P        4.08660282       1.08731470       0.33245301       0.00000000 NULL      -0.00401182       0.04197483       0.01324942
P        1.49392139       0.41291835       4.51849493       0.00000000 NULL       0.03835718      -0.01751308       0.01324942
P       -2.20423187       2.99382609       4.55696499       0.00000000 NULL       0.01820157      -0.00701452      -0.01536457
P        1.09926474       4.90768531       2.46394404       0.00000000 NULL      -0.01517554      -0.01225576      -0.01536457
P        1.10496713       1.08984371       6.64998595       0.00000000 NULL      -0.00302603       0.01927028      -0.01536457
P        0.00302315       1.76291336       3.48656909       0.00000000 NULL      -0.01637412       0.04486372       0.00211515
P       -1.07036446       3.61160275       1.39354813       0.00000000 NULL       0.04704018      -0.00825145       0.00211515
P        1.06734131       3.61683900       5.57959004       0.00000000 NULL      -0.03066606      -0.03661226       0.00211515
9
Lattice="5.19167959107128 -3.000343962429036e-14 -9.750518522299287e-43 -2.5958397955356123 4.49612641417695 6.718017153538389e-42 1.1120548572622312e-42 -1.1725185975154404e-41 6.287518849665954" Properties=species:S:1:pos:R:3:initial_magmoms:R:1:castep_labels:S:1:forces:R:3 n_minim_iter=9 energy=-48.552994994390986 stress="-0.0013613199865693793 -3.2816871037096226e-12 -3.9649175815146906e-12 -3.2816871037096226e-12 -0.0013613199644624972 -5.318985706615596e-12 -3.9649175815146906e-12 -5.318985706615596e-12 -0.0010430054660664054" free_energy=-48.552994994390986 pbc="T T T"
P        2.20642772       2.99334758       2.42928265       0.00000000 NULL      -0.02280092      -0.00037293      -0.00147713
P        4.08494098       1.08863018       0.33344303       0.00000000 NULL       0.01107749       0.01993264      -0.00147713
P        1.49615069       0.41414867       4.52512227       0.00000000 NULL       0.01172343      -0.01955971      -0.00147713
P       -2.20610568       2.99764806       4.55977523       0.00000000 NULL       0.01281385      -0.02145881       0.00601989
P        1.10325241       4.90784595       2.46393562       0.00000000 NULL      -0.02499080      -0.00036771       0.00601989
P        1.10285327       1.08675883       6.65561485       0.00000000 NULL       0.01217695       0.02182652       0.00601989
P        0.00206196       1.76733109       3.49404872       0.00000000 NULL      -0.00919531       0.01124884      -0.00454276
P       -1.06631715       3.61067516       1.39820911       0.00000000 NULL       0.01433943       0.00233896      -0.00454276
P        1.06425519       3.61424658       5.58988834       0.00000000 NULL      -0.00514412      -0.01358779      -0.00454276
9
Lattice="5.192972563265971 -2.923045224823961e-14 -9.761201678328993e-43 -2.5964862816329584 4.497246160943939 6.729397880339267e-42 1.1115552025586152e-42 -1.1787285696208314e-41 6.290272595840044" Properties=species:S:1:pos:R:3:initial_magmoms:R:1:castep_labels:S:1:forces:R:3 n_minim_iter=10 energy=-48.55328363314456 stress="-0.0002823884994357257 -1.5773494340011597e-12 1.0058516518003884e-11 -1.5773494340011597e-12 -0.00028238850085176285 4.5776521245064636e-12 1.0058516518003884e-11 4.5776521245064636e-12 -0.00011554598635805013" free_energy=-48.55328363314456 pbc="T T T"
P        2.20390321       2.99591226       2.43021079       0.00000000 NULL      -0.00150843      -0.00565600      -0.00000986
P        4.08907080       1.09065387       0.33345325       0.00000000 NULL      -0.00414402       0.00413434      -0.00000986
P        1.49648484       0.41068004       4.52696832       0.00000000 NULL       0.00565246       0.00152166      -0.00000986
P       -2.20590549       2.99511498       4.56109381       0.00000000 NULL       0.00053605      -0.00028658       0.00231152
P        1.10031212       4.91005886       2.46433628       0.00000000 NULL      -0.00051621      -0.00032094       0.00231152
P        1.10559337       1.08931848       6.65785134       0.00000000 NULL      -0.00001983       0.00060752       0.00231152
P        0.00046124       1.76659355       3.49639330       0.00000000 NULL      -0.00078435      -0.00024674      -0.00230166
P       -1.06680201       3.61354994       1.39963577       0.00000000 NULL       0.00017849       0.00080264      -0.00230166
P        1.06634077       3.61434883       5.59315083       0.00000000 NULL       0.00060586      -0.00055590      -0.00230166
