44
Lattice="9.727 -7.388018440887188e-18 0.0 -1.5573244352348232 9.601524337490405 0.0 0.0 0.0 10.21832" Properties=species:S:1:pos:R:3:initial_magmoms:R:1:castep_labels:S:1 n_minim_iter=1 pbc="T T T"
P        9.20808344       0.03517038       1.52342991       0.00000000 NULL
P       -1.03840788       9.56635395       6.63258991       0.00000000 NULL
P        9.60920307       0.50659178       3.58573009       0.00000000 NULL
P       -1.43952751       9.09493255       8.69489009       0.00000000 NULL
P        0.10820480       8.24135416       0.13606511       0.00000000 NULL
P        8.06147076       1.36017017       5.24522511       0.00000000 NULL
P        0.05195658       8.17524766       4.97309489       0.00000000 NULL
P        8.11771899       1.42627667      10.08225489       0.00000000 NULL
P        5.23595541       8.55964853       1.67866868       0.00000000 NULL
P        2.93372015       1.04187580       6.78782868       0.00000000 NULL
P        0.55873772       3.06268367       3.43049132       0.00000000 NULL
P        7.61093784       6.53884066       8.53965132       0.00000000 NULL
P        9.06647947       1.61080933       7.02106592       0.00000000 NULL
P       -0.89680391       7.99071500       1.91190592       0.00000000 NULL
P        8.03121818       0.39410416       8.30641408       0.00000000 NULL
P        0.13845739       9.20742017       3.19725408       0.00000000 NULL
P        2.94595290       8.77237222       4.93029853       0.00000000 NULL
P        5.22372266       0.82915211      10.03945853       0.00000000 NULL
P       -0.01787877       5.28908801       0.17886147       0.00000000 NULL
P        8.18755433       4.31243632       5.28802147       0.00000000 NULL
P        4.44180426       7.23825122       3.32135558       0.00000000 NULL
P        3.72787130       2.36327311       8.43051558       0.00000000 NULL
P        1.73594317       4.05815051       1.78780442       0.00000000 NULL
P        6.43373239       5.54337382       6.89696442       0.00000000 NULL
P        2.01428245       8.23033737       8.71760132       0.00000000 NULL
P        6.15539311       1.37118696       3.60844132       0.00000000 NULL
P        0.36800050       6.29552172       6.60987868       0.00000000 NULL
P        7.80167506       3.30600261       1.50071868       0.00000000 NULL
P        2.53129638       2.84574587       3.87039102       0.00000000 NULL
P        5.63837918       6.75577846       8.97955102       0.00000000 NULL
P        5.76590785       6.64726779       1.23876898       0.00000000 NULL
P        2.40376771       2.95425654       6.34792898       0.00000000 NULL
P        0.07619033       2.48274584       5.35550121       0.00000000 NULL
P        8.09348523       7.11877849       0.24634121       0.00000000 NULL
P        5.73115479       9.12882113       9.97197879       0.00000000 NULL
P        2.43852077       0.47270320       4.86281879       0.00000000 NULL
P        5.98971731       8.66965223       6.86877105       0.00000000 NULL
P        2.17995825       0.93187210       1.75961105       0.00000000 NULL
P        0.57083278       2.30103314       8.45870895       0.00000000 NULL
P        7.59884279       7.30049119       3.34954895       0.00000000 NULL
P        7.99697437       5.02481662       3.38834075       0.00000000 NULL
P        0.17270119       4.57670771       8.49750075       0.00000000 NULL
P        4.49001940       0.90321923       1.72081925       0.00000000 NULL
P        3.67965616       8.69830510       6.82997925       0.00000000 NULL
44
Lattice="9.767798118304786 0.011970985876076158 0.0 -1.5520397836788187 9.643712765026736 0.0 0.0 0.0 10.293861895611013" Properties=species:S:1:pos:R:3:initial_magmoms:R:1:castep_labels:S:1 n_minim_iter=2 pbc="T T T"
P        9.24651640       0.04693354       1.53464642       0.00000000 NULL
P       -1.03075807       9.60875021       6.68157736       0.00000000 NULL
P        9.64982767       0.52093069       3.61228453       0.00000000 NULL
P       -1.43406933       9.13475306       8.75921548       0.00000000 NULL
P        0.11918747       8.27950246       0.13676450       0.00000000 NULL
P        8.09657086       1.37618128       5.28369545       0.00000000 NULL
P        0.06214151       8.21245840       5.01016645       0.00000000 NULL
P        8.15361682       1.44322534      10.15709740       0.00000000 NULL
P        5.26833865       8.60558012       1.69142799       0.00000000 NULL
P        2.94741968       1.05010362       6.83835893       0.00000000 NULL
P        0.56466607       3.07752378       3.45550296       0.00000000 NULL
P        7.65109227       6.57815996       8.60243391       0.00000000 NULL
P        9.10632212       1.62955943       7.07313170       0.00000000 NULL
P       -0.89056379       8.02612431       1.92620076       0.00000000 NULL
P        8.06517166       0.40593293       8.36766114       0.00000000 NULL
P        0.15058668       9.24975081       3.22073019       0.00000000 NULL
P        2.96912417       8.81631370       4.96655130       0.00000000 NULL
P        5.24663416       0.83937004      10.11348224       0.00000000 NULL
P       -0.01146085       5.31333988       0.18037965       0.00000000 NULL
P        8.22721918       4.34234386       5.32731060       0.00000000 NULL
P        4.46933671       7.27702349       3.34592099       0.00000000 NULL
P        3.74642162       2.37866025       8.49285194       0.00000000 NULL
P        1.74816186       4.07892506       1.80100995       0.00000000 NULL
P        6.46759648       5.57675868       6.94794090       0.00000000 NULL
P        2.03287781       8.27067432       8.78200726       0.00000000 NULL
P        6.18288052       1.38500943       3.63507632       0.00000000 NULL
P        0.37724384       6.32486757       6.65878558       0.00000000 NULL
P        7.83851449       3.33081618       1.51185463       0.00000000 NULL
P        2.54566779       2.86188493       3.89907263       0.00000000 NULL
P        5.67009054       6.79379881       9.04600358       0.00000000 NULL
P        5.79836066       6.68465726       1.24785831       0.00000000 NULL
P        2.41739767       2.97102648       6.39478926       0.00000000 NULL
P        0.07978598       2.49463322       5.39499254       0.00000000 NULL
P        8.13597235       7.16105053       0.24806160       0.00000000 NULL
P        5.76607920       9.17752806      10.04580030       0.00000000 NULL
P        2.44967913       0.47815568       4.89886935       0.00000000 NULL
P        6.02527040       8.71661831       6.91926868       0.00000000 NULL
P        2.19048793       0.93906544       1.77233774       0.00000000 NULL
P        0.57624749       2.31257867       8.52152416       0.00000000 NULL
P        7.63951085       7.34310508       3.37459321       0.00000000 NULL
P        8.03669540       5.05780452       3.41323073       0.00000000 NULL
P        0.17906293       4.59787922       8.56016168       0.00000000 NULL
P        4.50989927       0.91288853       1.73370021       0.00000000 NULL
P        3.70585907       8.74279521       6.88063116       0.00000000 NULL
44
Lattice="10.00181266184084 0.08803813241418762 0.0 -1.5144203746194882 9.886887182741399 0.0 0.0 0.0 10.730152886982223" Properties=species:S:1:pos:R:3:initial_magmoms:R:1:castep_labels:S:1 n_minim_iter=3 pbc="T T T"
P        9.46681919       0.12163504       1.59948971       0.00000000 NULL
P       -0.97942691       9.85329027       6.96456615       0.00000000 NULL
P        9.88299494       0.61075135       3.76558674       0.00000000 NULL
P       -1.39560265       9.36417396       9.13066318       0.00000000 NULL
P        0.18868730       8.50056785       0.14057936       0.00000000 NULL
P        8.29870499       1.47435746       5.50565580       0.00000000 NULL
P        0.12668891       8.42770338       5.22449708       0.00000000 NULL
P        8.36070338       1.54722193      10.58957353       0.00000000 NULL
P        5.46054029       8.87522828       1.76542725       0.00000000 NULL
P        3.02685200       1.09969703       7.13050370       0.00000000 NULL
P        0.60090236       3.16387151       3.59964919       0.00000000 NULL
P        7.88648993       6.81105380       8.96472563       0.00000000 NULL
P        9.33598887       1.74457232       7.37394286       0.00000000 NULL
P       -0.84859658       8.23035299       2.00886641       0.00000000 NULL
P        8.26004675       0.48005645       8.72128647       0.00000000 NULL
P        0.22734554       9.49486886       3.35621003       0.00000000 NULL
P        3.10875731       9.07278390       5.17585246       0.00000000 NULL
P        5.37863497       0.90214140      10.54092890       0.00000000 NULL
P        0.02936702       5.45368782       0.18922399       0.00000000 NULL
P        8.45802527       4.52123749       5.55430043       0.00000000 NULL
P        4.63281833       7.50468295       3.48775100       0.00000000 NULL
P        3.85457396       2.47024236       8.85282744       0.00000000 NULL
P        1.82124704       4.20034486       1.87732545       0.00000000 NULL
P        6.66614525       5.77458045       7.24240189       0.00000000 NULL
P        2.14582897       8.50567032       9.15395045       0.00000000 NULL
P        6.34156332       1.46925498       3.78887401       0.00000000 NULL
P        0.43499702       6.49499138       6.94127888       0.00000000 NULL
P        8.05239527       3.47993392       1.57620244       0.00000000 NULL
P        2.63041105       2.95705676       4.06482150       0.00000000 NULL
P        5.85698124       7.01786855       9.42989794       0.00000000 NULL
P        5.98961815       6.90501142       1.30025494       0.00000000 NULL
P        2.49777414       3.06991389       6.66533139       0.00000000 NULL
P        0.10244473       2.56382348       5.62298249       0.00000000 NULL
P        8.38494756       7.41110183       0.25790605       0.00000000 NULL
P        5.97304317       9.46332559      10.47224684       0.00000000 NULL
P        2.51434912       0.51159972       5.10717039       0.00000000 NULL
P        6.23556384       8.99258635       7.21073281       0.00000000 NULL
P        2.25182844       0.98233896       1.84565637       0.00000000 NULL
P        0.60914198       2.38005614       8.88449652       0.00000000 NULL
P        7.87825031       7.59486917       3.51942007       0.00000000 NULL
P        8.26838412       5.25438691       3.55694322       0.00000000 NULL
P        0.21900817       4.72053840       8.92201966       0.00000000 NULL
P        4.62458081       0.97195662       1.80813322       0.00000000 NULL
P        3.86281147       9.00296869       7.17320967       0.00000000 NULL
44
Lattice="10.01884754802826 0.14260473122976178 0.0 -1.4632850109893147 9.912438614014972 0.0 0.0 0.0 10.75899113916882" Properties=species:S:1:pos:R:3:initial_magmoms:R:1:castep_labels:S:1 n_minim_iter=4 pbc="T T T"
P        9.48183803       0.17477506       1.60413306       0.00000000 NULL
P       -0.92627550       9.88026828       6.98362863       0.00000000 NULL
P        9.90111523       0.66753639       3.77536251       0.00000000 NULL
P       -1.34555269       9.38750695       9.15485808       0.00000000 NULL
P        0.23668879       8.53131866       0.13951137       0.00000000 NULL
P        8.31887375       1.52372467       5.51900694       0.00000000 NULL
P        0.17219021       8.45551582       5.23998419       0.00000000 NULL
P        8.38337232       1.59952751      10.61947976       0.00000000 NULL
P        5.51737017       8.93581332       1.77198607       0.00000000 NULL
P        3.03819236       1.11923002       7.15148164       0.00000000 NULL
P        0.61836775       3.17819288       3.60750950       0.00000000 NULL
P        7.93719479       6.87685046       8.98700507       0.00000000 NULL
P        9.36026267       1.80221460       7.39450771       0.00000000 NULL
P       -0.80470013       8.25282873       2.01501214       0.00000000 NULL
P        8.27520460       0.52698509       8.74397900       0.00000000 NULL
P        0.28035793       9.52805825       3.36448343       0.00000000 NULL
P        3.16333656       9.12073547       5.18921635       0.00000000 NULL
P        5.39222598       0.93430787      10.56871192       0.00000000 NULL
P        0.05894258       5.47225346       0.19027922       0.00000000 NULL
P        8.49661996       4.58278988       5.56977479       0.00000000 NULL
P        4.68159505       7.55603367       3.49692193       0.00000000 NULL
P        3.87396749       2.49900966       8.87641750       0.00000000 NULL
P        1.84653829       4.22409395       1.88257364       0.00000000 NULL
P        6.70902425       5.83094938       7.26206921       0.00000000 NULL
P        2.19564142       8.54670259       9.17836743       0.00000000 NULL
P        6.35992112       1.50834075       3.79887186       0.00000000 NULL
P        0.47063945       6.51937013       6.96011928       0.00000000 NULL
P        8.08492309       3.53567321       1.58062371       0.00000000 NULL
P        2.65176697       2.98122170       4.07631030       0.00000000 NULL
P        5.90379557       7.07382163       9.45580587       0.00000000 NULL
P        6.03735432       6.96018013       1.30318527       0.00000000 NULL
P        2.51820821       3.09486321       6.68268084       0.00000000 NULL
P        0.11726548       2.57526607       5.63758115       0.00000000 NULL
P        8.43829706       7.47977727       0.25808558       0.00000000 NULL
P        6.03229129       9.52698206      10.50090556       0.00000000 NULL
P        2.52327125       0.52806128       5.12140999       0.00000000 NULL
P        6.29320430       9.05632358       7.22898760       0.00000000 NULL
P        2.26235823       0.99871975       1.84949203       0.00000000 NULL
P        0.62362561       2.39307271       8.90949911       0.00000000 NULL
P        7.93193693       7.66197062       3.53000354       0.00000000 NULL
P        8.31069294       5.31754403       3.56625691       0.00000000 NULL
P        0.24486960       4.73749931       8.94575248       0.00000000 NULL
P        4.63718243       1.00019994       1.81323866       0.00000000 NULL
P        3.91838011       9.05484340       7.19273423       0.00000000 NULL
44
Lattice="10.015350502583901 0.2106322569648973 0.0 -1.3955751335053233 9.91987810832489 0.0 0.0 0.0 10.746003550873723" Properties=species:S:1:pos:R:3:initial_magmoms:R:1:castep_labels:S:1 n_minim_iter=5 pbc="T T T"
P        9.47678814       0.24127331       1.60276997       0.00000000 NULL
P       -0.85701277       9.88923705       6.97577175       0.00000000 NULL
P        9.89887912       0.73734158       3.77023180       0.00000000 NULL
P       -1.27910375       9.39316878       9.14323358       0.00000000 NULL
P        0.29649289       8.54881970       0.13721544       0.00000000 NULL
P        8.32328248       1.58169065       5.51021721       0.00000000 NULL
P        0.22870260       8.46914822       5.23578634       0.00000000 NULL
P        8.39107277       1.66136214      10.60878811       0.00000000 NULL
P        5.57484644       8.98969242       1.77258593       0.00000000 NULL
P        3.04492892       1.14081794       7.14558770       0.00000000 NULL
P        0.63859865       3.18829884       3.60041585       0.00000000 NULL
P        7.98117672       6.94221152       8.97341762       0.00000000 NULL
P        9.36729635       1.87028166       7.38673275       0.00000000 NULL
P       -0.74752098       8.26022870       2.01373097       0.00000000 NULL
P        8.27335454       0.58461140       8.73227258       0.00000000 NULL
P        0.34642083       9.54589896       3.35927080       0.00000000 NULL
P        3.22392744       9.15823239       5.18216406       0.00000000 NULL
P        5.39584793       0.97227796      10.55516583       0.00000000 NULL
P        0.09584299       5.48190783       0.19083772       0.00000000 NULL
P        8.52393238       4.64860253       5.56383949       0.00000000 NULL
P        4.73123387       7.60179377       3.49236873       0.00000000 NULL
P        3.88854150       2.52871659       8.86537050       0.00000000 NULL
P        1.87352865       4.24323614       1.88063305       0.00000000 NULL
P        6.74624672       5.88727422       7.25363482       0.00000000 NULL
P        2.25262824       8.57700457       9.16702305       0.00000000 NULL
P        6.36714713       1.55350578       3.79402127       0.00000000 NULL
P        0.51406495       6.53373400       6.95198228       0.00000000 NULL
P        8.10571041       3.59677636       1.57898050       0.00000000 NULL
P        2.67215071       3.00409351       4.07225619       0.00000000 NULL
P        5.94762465       7.12641685       9.44525797       0.00000000 NULL
P        6.08225390       7.01186449       1.30074558       0.00000000 NULL
P        2.53752147       3.11864586       6.67374736       0.00000000 NULL
P        0.13555012       2.58370489       5.63005387       0.00000000 NULL
P        8.48422525       7.54680547       0.25705210       0.00000000 NULL
P        6.09110159       9.58304922      10.48895145       0.00000000 NULL
P        2.52867378       0.54746113       5.11594968       0.00000000 NULL
P        6.34949233       9.11360287       7.21862003       0.00000000 NULL
P        2.27028304       1.01690749       1.84561825       0.00000000 NULL
P        0.64030994       2.40380721       8.90038530       0.00000000 NULL
P        7.97946543       7.72670315       3.52738352       0.00000000 NULL
P        8.34314797       5.38363383       3.56162380       0.00000000 NULL
P        0.27662740       4.74687653       8.93462558       0.00000000 NULL
P        4.64135417       1.03304940       1.81137798       0.00000000 NULL
P        3.97842120       9.09746096       7.18437975       0.00000000 NULL
44
Lattice="9.986706365036328 0.36606792957769946 0.0 -1.2375585190471063 9.91648923069331 0.0 0.0 0.0 10.68499193896874" Properties=species:S:1:pos:R:3:initial_magmoms:R:1:castep_labels:S:1 n_minim_iter=6 pbc="T T T"
P        9.44396911       0.39501278       1.59543495       0.00000000 NULL
P       -0.69482126       9.88754437       6.93793092       0.00000000 NULL
P        9.87124089       0.89716985       3.74706102       0.00000000 NULL
P       -1.12209304       9.38538730       9.08955699       0.00000000 NULL
P        0.43440039       8.57212952       0.12987724       0.00000000 NULL
P        8.31474745       1.71042763       5.47237321       0.00000000 NULL
P        0.35714539       8.48133450       5.21261873       0.00000000 NULL
P        8.39200246       1.80122265      10.55511470       0.00000000 NULL
P        5.69459768       9.09532474       1.77129350       0.00000000 NULL
P        3.05455016       1.18723241       7.11378947       0.00000000 NULL
P        0.68287399       3.20522707       3.57120247       0.00000000 NULL
P        8.06627385       7.07733008       8.91369844       0.00000000 NULL
P        9.36309043       2.02405460       7.34853569       0.00000000 NULL
P       -0.61394258       8.25850255       2.00603972       0.00000000 NULL
P        8.25026432       0.71619031       8.67895222       0.00000000 NULL
P        0.49888352       9.56636684       3.33645625       0.00000000 NULL
P        3.35631631       9.22540274       5.15017379       0.00000000 NULL
P        5.39283153       1.05715441      10.49266976       0.00000000 NULL
P        0.18010748       5.49251933       0.19232217       0.00000000 NULL
P        8.56904036       4.79003782       5.53481814       0.00000000 NULL
P        4.83560243       7.69165442       3.47150832       0.00000000 NULL
P        3.91354541       2.59090273       8.81400429       0.00000000 NULL
P        1.93090940       4.27787371       1.87098765       0.00000000 NULL
P        6.81823844       6.00468344       7.21348362       0.00000000 NULL
P        2.37865658       8.62914297       9.11419459       0.00000000 NULL
P        6.37049126       1.65341418       3.77169862       0.00000000 NULL
P        0.61214916       6.55303065       6.91329332       0.00000000 NULL
P        8.13699869       3.72952650       1.57079735       0.00000000 NULL
P        2.71460474       3.05014023       4.05184972       0.00000000 NULL
P        6.03454310       7.23241692       9.39434569       0.00000000 NULL
P        6.17297067       7.11463268       1.29064625       0.00000000 NULL
P        2.57617718       3.16792447       6.63314222       0.00000000 NULL
P        0.17753500       2.60021319       5.59596827       0.00000000 NULL
P        8.57161285       7.68234396       0.25347230       0.00000000 NULL
P        6.21090063       9.69100969      10.43151964       0.00000000 NULL
P        2.53824722       0.59154746       5.08902367       0.00000000 NULL
P        6.46372456       9.22513817       7.17246999       0.00000000 NULL
P        2.28542328       1.05741899       1.82997402       0.00000000 NULL
P        0.67787485       2.42523817       8.85501792       0.00000000 NULL
P        8.07127300       7.85731898       3.51252195       0.00000000 NULL
P        8.40051890       5.52462351       3.54022937       0.00000000 NULL
P        0.34862895       4.75793364       8.88272534       0.00000000 NULL
P        4.64074096       1.10589242       1.80226660       0.00000000 NULL
P        4.10840688       9.17666473       7.14476257       0.00000000 NULL
44
Lattice="9.955170412573999 0.3938363648044358 0.0 -1.2050992802271696 9.889805900543607 0.0 0.0 0.0 10.708627846420427" Properties=species:S:1:pos:R:3:initial_magmoms:R:1:castep_labels:S:1 n_minim_iter=7 pbc="T T T"
P        9.40659573       0.42938048       1.60077184       0.00000000 NULL
P       -0.65652460       9.85426177       6.95508576       0.00000000 NULL
P        9.83225620       0.92964385       3.75354208       0.00000000 NULL
P       -1.08218507       9.35399841       9.10785601       0.00000000 NULL
P        0.46412904       8.55667298       0.12277482       0.00000000 NULL
P        8.28594209       1.72696927       5.47708874       0.00000000 NULL
P        0.37808548       8.45554909       5.23153910       0.00000000 NULL
P        8.37198565       1.82809316      10.58585303       0.00000000 NULL
P        5.69988626       9.09347555       1.78595864       0.00000000 NULL
P        3.05018487       1.19016671       7.14027256       0.00000000 NULL
P        0.68646934       3.20138789       3.56835529       0.00000000 NULL
P        8.06360179       7.08225437       8.92266921       0.00000000 NULL
P        9.33379993       2.05335315       7.36928066       0.00000000 NULL
P       -0.58372880       8.23028911       2.01496674       0.00000000 NULL
P        8.21757750       0.74149728       8.69366111       0.00000000 NULL
P        0.53249363       9.54214498       3.33934719       0.00000000 NULL
P        3.37268848       9.21393892       5.15815743       0.00000000 NULL
P        5.37738266       1.06970334      10.51247135       0.00000000 NULL
P        0.19496795       5.47927887       0.19615649       0.00000000 NULL
P        8.55510318       4.80436339       5.55047041       0.00000000 NULL
P        4.84319995       7.69031559       3.47808605       0.00000000 NULL
P        3.90687118       2.59332667       8.83239997       0.00000000 NULL
P        1.93437064       4.27167366       1.87622788       0.00000000 NULL
P        6.81570049       6.01196860       7.23054180       0.00000000 NULL
P        2.39593737       8.61742530       9.13357720       0.00000000 NULL
P        6.35413376       1.66621696       3.77926327       0.00000000 NULL
P        0.62740567       6.53893393       6.92936457       0.00000000 NULL
P        8.12266547       3.74470833       1.57505065       0.00000000 NULL
P        2.71992004       3.04976857       4.06393023       0.00000000 NULL
P        6.03015109       7.23387369       9.41824416       0.00000000 NULL
P        6.17511182       7.11053056       1.29038369       0.00000000 NULL
P        2.57495931       3.17311170       6.64469761       0.00000000 NULL
P        0.18591800       2.60503984       5.60631132       0.00000000 NULL
P        8.56415313       7.67860242       0.25199740       0.00000000 NULL
P        6.20840167       9.68304717      10.45663045       0.00000000 NULL
P        2.54166946       0.60059509       5.10231652       0.00000000 NULL
P        6.46221458       9.21847691       7.18217019       0.00000000 NULL
P        2.28785655       1.06516535       1.82785626       0.00000000 NULL
P        0.68513171       2.42888027       8.88077158       0.00000000 NULL
P        8.06493942       7.85476199       3.52645766       0.00000000 NULL
P        8.38965182       5.53843552       3.54609516       0.00000000 NULL
P        0.36041931       4.74520674       8.90040908       0.00000000 NULL
P        4.62629055       1.11549308       1.80821877       0.00000000 NULL
P        4.12378058       9.16814918       7.16253269       0.00000000 NULL
44
Lattice="9.909715512519295 0.39514951431027256 0.0 -1.196525592194333 9.8451475958946 0.0 0.0 0.0 10.671574161175228" Properties=species:S:1:pos:R:3:initial_magmoms:R:1:castep_labels:S:1 n_minim_iter=8 pbc="T T T"
P        9.36103315       0.43303380       1.59588724       0.00000000 NULL
P       -0.64784324       9.80726331       6.93167432       0.00000000 NULL
P        9.78447409       0.93068862       3.73989984       0.00000000 NULL
P       -1.07128417       9.30960849       9.07568692       0.00000000 NULL
P        0.46678886       8.51962085       0.11985914       0.00000000 NULL
P        8.24640106       1.72067625       5.45564622       0.00000000 NULL
P        0.37820428       8.41551060       5.21592794       0.00000000 NULL
P        8.33498564       1.82478650      10.55171502       0.00000000 NULL
P        5.67591831       9.05552857       1.78342636       0.00000000 NULL
P        3.03727161       1.18476853       7.11921344       0.00000000 NULL
P        0.68320825       3.18777693       3.55236072       0.00000000 NULL
P        8.02998167       7.05252017       8.88814780       0.00000000 NULL
P        9.29022783       2.04953657       7.34506409       0.00000000 NULL
P       -0.57703791       8.19076054       2.00927701       0.00000000 NULL
P        8.17748760       0.74177320       8.66229715       0.00000000 NULL
P        0.53570232       9.49852390       3.32651007       0.00000000 NULL
P        3.36043529       9.17390538       5.13918650       0.00000000 NULL
P        5.35275463       1.06639172      10.47497358       0.00000000 NULL
P        0.19564208       5.45443833       0.19660058       0.00000000 NULL
P        8.51754784       4.78585877       5.53238767       0.00000000 NULL
P        4.82384025       7.65834559       3.46564379       0.00000000 NULL
P        3.88934967       2.58195151       8.80143087       0.00000000 NULL
P        1.92594747       4.25255697       1.87014329       0.00000000 NULL
P        6.78724245       5.98774013       7.20593037       0.00000000 NULL
P        2.38767152       8.58014550       9.10174579       0.00000000 NULL
P        6.32551840       1.66015160       3.76595871       0.00000000 NULL
P        0.62599996       6.50971662       6.90561545       0.00000000 NULL
P        8.08718995       3.73058049       1.56982837       0.00000000 NULL
P        2.71021960       3.03655134       4.05102739       0.00000000 NULL
P        6.00297032       7.20374577       9.38681447       0.00000000 NULL
P        6.14972427       7.07887682       1.28475969       0.00000000 NULL
P        2.56346565       3.16142028       6.62054677       0.00000000 NULL
P        0.18625130       2.59693494       5.58631527       0.00000000 NULL
P        8.52693862       7.64336216       0.25052819       0.00000000 NULL
P        6.17957417       9.64067064      10.42104597       0.00000000 NULL
P        2.53361575       0.59962646       5.08525889       0.00000000 NULL
P        6.43320065       9.17798642       7.15521816       0.00000000 NULL
P        2.27998927       1.06231069       1.81943108       0.00000000 NULL
P        0.68357345       2.42065743       8.85214308       0.00000000 NULL
P        8.02961647       7.81963967       3.51635600       0.00000000 NULL
P        8.35321266       5.51710979       3.53323782       0.00000000 NULL
P        0.35997726       4.72318731       8.86902490       0.00000000 NULL
P        4.60462595       1.11153135       1.80254926       0.00000000 NULL
P        4.10856397       9.12876575       7.13833634       0.00000000 NULL
44
Lattice="9.907622179727401 0.3975257605090531 0.0 -1.1938448495175205 9.843461711297259 0.0 0.0 0.0 10.694248072249982" Properties=species:S:1:pos:R:3:initial_magmoms:R:1:castep_labels:S:1 n_minim_iter=9 pbc="T T T"
P        9.35747403       0.43689590       1.59961168       0.00000000 NULL
P       -0.64369670       9.80409157       6.94673572       0.00000000 NULL
P        9.78067939       0.93427385       3.74751235       0.00000000 NULL
P       -1.06690206       9.30671361       9.09463639       0.00000000 NULL
P        0.47013105       8.51925586       0.11860604       0.00000000 NULL
P        8.24364628       1.72173160       5.46573007       0.00000000 NULL
P        0.37968707       8.41296033       5.22851800       0.00000000 NULL
P        8.33409026       1.82802714      10.57564203       0.00000000 NULL
P        5.67645419       9.05631248       1.78944081       0.00000000 NULL
P        3.03732314       1.18467499       7.13656485       0.00000000 NULL
P        0.68310766       3.18781282       3.55768322       0.00000000 NULL
P        8.03066967       7.05317464       8.90480726       0.00000000 NULL
P        9.28776588       2.05306823       7.36140056       0.00000000 NULL
P       -0.57398855       8.18791923       2.01427652       0.00000000 NULL
P        8.17419474       0.74432832       8.67997155       0.00000000 NULL
P        0.53958259       9.49665914       3.33284752       0.00000000 NULL
P        3.36216373       9.17355599       5.14937297       0.00000000 NULL