12
Lattice="4.990634560855183 -4.569165204015872e-06 -2.902063803613839e-42 -2.495313947282107 3.640604081370468 -5.291262539858991e-41 8.255186428988761e-42 2.1198296384042156e-40 14.195983583245056" Properties=species:S:1:pos:R:3:initial_magmoms:R:1:castep_labels:S:1:forces:R:3 n_minim_iter=1 energy=-61.07146408998356 stress="0.0013307475875936284 -1.5661253792631692e-09 -5.5143477969195396e-12 -1.5661253792631692e-09 -0.00039790287385884715 6.739413669557875e-12 -5.5143477969195396e-12 6.739413669557875e-12 -0.0011005471504517321" free_energy=-61.07146408998356 pbc="T T T"
P        1.44438649       2.93170710       8.59593966       0.00000000 NULL      -0.00787742      -0.01285982      -0.02760053
P        3.93970174       0.70888905       5.60004393       0.00000000 NULL      -0.00787740       0.01285983       0.02760053
P        1.44438446       0.70889134       8.59593966       0.00000000 NULL      -0.00787740       0.01285983      -0.02760053
P       -1.05093079       2.93170938       5.60004393       0.00000000 NULL      -0.00787742      -0.01285982       0.02760053
P       -2.07425300       3.46278179      10.31720942       0.00000000 NULL       0.01626655       0.01626100       0.00656226
P        0.42106127       0.17782080       3.87877417       0.00000000 NULL       0.01626652      -0.01626103      -0.00656226
P        2.91637855       0.17781852      10.31720942       0.00000000 NULL       0.01626652      -0.01626103       0.00656226
P        0.42106428       3.46277951       3.87877417       0.00000000 NULL       0.01626655       0.01626100      -0.00656226
P        1.62668947      -0.00774166       1.06957107       0.00000000 NULL      -0.00838912       0.00434293       0.02548144
P       -0.86862447       3.64834205      13.12641251       0.00000000 NULL      -0.00838913      -0.00434291      -0.02548144
P        1.62669281       3.64833977       1.06957107       0.00000000 NULL      -0.00838913      -0.00434291       0.02548144
P        4.12200675      -0.00774395      13.12641251       0.00000000 NULL      -0.00838912       0.00434293      -0.02548144
12
Lattice="4.9858640243518995 -4.5647975491582505e-06 -3.4101358490840294e-41 -2.492928678077193 3.6416452830489163 -1.1645193446547724e-40 -8.717384880843744e-41 -1.0292503394234796e-40 14.207215899388887" Properties=species:S:1:pos:R:3:initial_magmoms:R:1:castep_labels:S:1:forces:R:3 n_minim_iter=2 energy=-61.07178680169848 stress="-0.00022295052297895804 3.9060728083721236e-11 1.2868304461766396e-11 3.9060728083721236e-11 -0.00017836116287242877 -5.6446198694155564e-12 1.2868304461766396e-11 -5.6446198694155564e-12 -0.00025458558175190857" free_energy=-61.07178680169848 pbc="T T T"
P        1.44298388       2.93250972       8.60266407       0.00000000 NULL      -0.01113419      -0.01320974      -0.02273052
P        3.93591386       0.70912764       5.60455182       0.00000000 NULL      -0.01113416       0.01320976       0.02273052
P        1.44298185       0.70912992       8.60266407       0.00000000 NULL      -0.01113416       0.01320976      -0.02273052
P       -1.04994813       2.93251200       5.60455182       0.00000000 NULL      -0.01113419      -0.01320974       0.02273052
P       -2.07222494       3.46381746      10.32539102       0.00000000 NULL       0.01955845       0.01564299       0.00319155
P        0.42070406       0.17782634       3.88182488       0.00000000 NULL       0.01955842      -0.01564303      -0.00319155
P        2.91363607       0.17782405      10.32539102       0.00000000 NULL       0.01955842      -0.01564303       0.00319155
P        0.42070707       3.46381518       3.88182488       0.00000000 NULL       0.01955845       0.01564299      -0.00319155
P        1.62511116      -0.00773177       1.07048841       0.00000000 NULL      -0.00842426       0.00517834       0.00219749
P       -0.86781750       3.64937336      13.13672749       0.00000000 NULL      -0.00842427      -0.00517833      -0.00219749
P        1.62511451       3.64937108       1.07048841       0.00000000 NULL      -0.00842427      -0.00517833       0.00219749
P        4.11804318      -0.00773405      13.13672749       0.00000000 NULL      -0.00842426       0.00517834      -0.00219749
12
Lattice="4.986564360366334 -4.5654387403426535e-06 4.413793285881313e-40 -2.493278845605921 3.642167909177976 8.348717536741036e-40 1.2868119434091745e-39 4.598824166744647e-39 14.210287419717993" Properties=species:S:1:pos:R:3:initial_magmoms:R:1:castep_labels:S:1:forces:R:3 n_minim_iter=3 energy=-61.071805301014976 stress="0.00021026338088883515 -1.945571945086344e-10 -8.850525306314386e-13 -1.945571945086344e-10 5.258465687543895e-06 -1.1990464560700517e-12 -8.850525306314386e-13 -1.1990464560700517e-12 0.00018632611649246024" free_energy=-61.071805301014976 pbc="T T T"
P        1.44315330       2.93289072       8.60445481       0.00000000 NULL      -0.01163772      -0.01188084      -0.01703247
P        3.93643345       0.70926927       5.60583261       0.00000000 NULL      -0.01163770       0.01188086       0.01703247
P        1.44315126       0.70927155       8.60445481       0.00000000 NULL      -0.01163770       0.01188086      -0.01703247
P       -1.05012888       2.93289300       5.60583261       0.00000000 NULL      -0.01163772      -0.01188084       0.01703247
P       -2.07245738       3.46436185      10.32763324       0.00000000 NULL       0.01985292       0.01801487      -0.00118432
P        0.42082179       0.17780457       3.88265418       0.00000000 NULL       0.01985289      -0.01801491       0.00118432
P        2.91410398       0.17780229      10.32763324       0.00000000 NULL       0.01985289      -0.01801491      -0.00118432
P        0.42082480       3.46435957       3.88265418       0.00000000 NULL       0.01985292       0.01801487       0.00118432
P        1.62531406      -0.00771731       1.07072841       0.00000000 NULL      -0.00821519       0.00516446      -0.00449017
P       -0.86796477       3.64988153      13.13955901       0.00000000 NULL      -0.00821520      -0.00516444       0.00449017
P        1.62531741       3.64987925       1.07072841       0.00000000 NULL      -0.00821520      -0.00516444      -0.00449017
P        4.11859624      -0.00771960      13.13955901       0.00000000 NULL      -0.00821519       0.00516446       0.00449017
12
Lattice="4.985863871255227 -4.56479740896238e-06 8.240702129875261e-41 -2.4929285974218183 3.6461311633707667 1.4699364572064888e-40 2.7220705397010552e-40 1.3519253970325376e-39 14.203739188887873" Properties=species:S:1:pos:R:3:initial_magmoms:R:1:castep_labels:S:1:forces:R:3 n_minim_iter=4 energy=-61.072004222040825 stress="4.0960482160925356e-05 6.038043025279761e-10 4.766626156603846e-12 6.038043025279761e-10 0.0006868794478406868 1.6506202154336355e-11 4.766626156603846e-12 1.6506202154336355e-11 -0.00025950752424375645" free_energy=-61.072004222040825 pbc="T T T"
P        1.44219035       2.93525824       8.59921574       0.00000000 NULL      -0.00743564      -0.01366471      -0.00669824
P        3.93512025       0.71086500       5.60452345       0.00000000 NULL      -0.00743561       0.01366473       0.00669824
P        1.44218832       0.71086728       8.59921574       0.00000000 NULL      -0.00743561       0.01366473      -0.00669824
P       -1.05074158       2.93526052       5.60452345       0.00000000 NULL      -0.00743564      -0.01366471       0.00669824
P       -2.07085737       3.46926360      10.32290690       0.00000000 NULL       0.01288050       0.01429791      -0.01135167
P        0.42207155       0.17686607       3.88083229       0.00000000 NULL       0.01288047      -0.01429793       0.01135167
P        2.91500348       0.17686379      10.32290690       0.00000000 NULL       0.01288047      -0.01429793      -0.01135167
P        0.42207456       3.46926132       3.88083229       0.00000000 NULL       0.01288050       0.01429791       0.01135167
P        1.62453710      -0.00738159       1.07008433       0.00000000 NULL      -0.00544486       0.00084865       0.01575751
P       -0.86839149       3.65350906      13.13365486       0.00000000 NULL      -0.00544486      -0.00084864      -0.01575751
P        1.62454045       3.65350678       1.07008433       0.00000000 NULL      -0.00544486      -0.00084864       0.01575751
P        4.11746903      -0.00738387      13.13365486       0.00000000 NULL      -0.00544486       0.00084865      -0.01575751
12
Lattice="4.985628521849911 -4.564581935290648e-06 7.501611662219846e-41 -2.4928109257922624 3.642774591999425 1.3348285262522889e-40 2.5103370565012825e-40 1.281802604172227e-39 14.206503568791035" Properties=species:S:1:pos:R:3:initial_magmoms:R:1:castep_labels:S:1:forces:R:3 n_minim_iter=5 energy=-61.07229562550748 stress="6.413830038349073e-05 -1.0390711547929377e-10 -5.2688733041241705e-12 -1.0390711547929377e-10 -6.97474165018404e-05 -3.392255984171247e-12 -5.2688733041241705e-12 -3.392255984171247e-12 -1.0208411524615752e-05" free_energy=-61.07229562550748 pbc="T T T"
P        1.44096187       2.93122334       8.59902561       0.00000000 NULL      -0.00104037       0.01061330       0.00738416
P        3.93377410       0.71154333       5.60747796       0.00000000 NULL      -0.00104039      -0.01061330      -0.00738416
P        1.44095984       0.71154561       8.59902561       0.00000000 NULL      -0.00104039      -0.01061330       0.00738416
P       -1.05185239       2.93122562       5.60747796       0.00000000 NULL      -0.00104037       0.01061330      -0.00738416
P       -2.06876183       3.46783706      10.32480631       0.00000000 NULL       0.00276483       0.01331268      -0.01865742
P        0.42404942       0.17493604       3.88169726       0.00000000 NULL       0.00276480      -0.01331269       0.01865742
P        2.91686368       0.17493376      10.32480631       0.00000000 NULL       0.00276481      -0.01331268      -0.01865742
P        0.42405244       3.46783478       3.88169726       0.00000000 NULL       0.00276483       0.01331268       0.01865742
P        1.62362302      -0.00688446       1.07028742       0.00000000 NULL      -0.00172444      -0.00375680       0.01035397
P       -0.86918790       3.64965537      13.13621615       0.00000000 NULL      -0.00172444       0.00375680      -0.01035397
P        1.62362637       3.64965308       1.07028742       0.00000000 NULL      -0.00172443       0.00375680       0.01035397
P        4.11643728      -0.00688675      13.13621615       0.00000000 NULL      -0.00172444      -0.00375680      -0.01035397
12
Lattice="4.986083297271782 -4.564998303996739e-06 7.512368556442732e-41 -2.493038312846033 3.643492375994364 1.3363637864196235e-40 2.5136816668038515e-40 1.2797431251564095e-39 14.206186887731764" Properties=species:S:1:pos:R:3:initial_magmoms:R:1:castep_labels:S:1:forces:R:3 n_minim_iter=6 energy=-61.07241082056451 stress="6.664422335564512e-05 -7.998302059838844e-11 7.479994902876485e-12 -7.998302059838844e-11 -2.6643171402383866e-05 -7.446535013262255e-12 7.479994902876485e-12 -7.446535013262255e-12 -3.7467787083107144e-05" free_energy=-61.07241082056451 pbc="T T T"
P        1.44056646       2.93194835       8.59860625       0.00000000 NULL       0.00477518       0.00077845      -0.00471881
P        3.93360607       0.71153610       5.60758064       0.00000000 NULL       0.00477518      -0.00077846       0.00471881
P        1.44056442       0.71153839       8.59860625       0.00000000 NULL       0.00477518      -0.00077846      -0.00471881
P       -1.05247519       2.93195064       5.60758064       0.00000000 NULL       0.00477518       0.00077845       0.00471881
P       -2.06798628       3.47007120      10.32329538       0.00000000 NULL      -0.00501462       0.00571270      -0.00525899
P        0.42505235       0.17341969       3.88289151       0.00000000 NULL      -0.00501463      -0.00571269       0.00525899
P        2.91809400       0.17341740      10.32329538       0.00000000 NULL      -0.00501463      -0.00571269      -0.00525899
P        0.42505537       3.47006891       3.88289151       0.00000000 NULL      -0.00501462       0.00571270       0.00525899
P        1.62333373      -0.00694144       1.07092006       0.00000000 NULL       0.00023944      -0.00334568      -0.01189910
P       -0.86970457       3.65043013      13.13526683       0.00000000 NULL       0.00023945       0.00334568       0.01189910
P        1.62333708       3.65042785       1.07092006       0.00000000 NULL       0.00023945       0.00334568      -0.01189910
P        4.11637538      -0.00694372      13.13526683       0.00000000 NULL       0.00023944      -0.00334568       0.01189910
12
Lattice="4.9861247020801045 -4.5650362120833895e-06 5.945618949308226e-41 -2.4930590154647057 3.643258077980774 1.0202063697365722e-40 2.0648350009051212e-40 1.1251399100872275e-39 14.213086420676616" Properties=species:S:1:pos:R:3:initial_magmoms:R:1:castep_labels:S:1:forces:R:3 n_minim_iter=7 energy=-61.072477922505385 stress="4.764801309035359e-05 -6.500806527451761e-11 1.782229942490183e-11 -6.500806527451761e-11 -3.051228765570204e-05 4.123055665430874e-12 1.782229942490183e-11 4.123055665430874e-12 -9.770819324285666e-06" free_energy=-61.072477922505385 pbc="T T T"
P        1.44079941       2.93190211       8.60212297       0.00000000 NULL       0.00492411      -0.00114026      -0.00553442
P        3.93385973       0.71134805       5.61096345       0.00000000 NULL       0.00492411       0.00114025       0.00553442
P        1.44079737       0.71135033       8.60212297       0.00000000 NULL       0.00492411       0.00114025      -0.00553442
P       -1.05226294       2.93190439       5.61096345       0.00000000 NULL       0.00492411      -0.00114025       0.00553442
P       -2.06798701       3.47145234      10.32687850       0.00000000 NULL      -0.00602852       0.00443817       0.00210215
P        0.42507232       0.17180425       3.88620792       0.00000000 NULL      -0.00602853      -0.00443816      -0.00210215
P        2.91813467       0.17180197      10.32687850       0.00000000 NULL      -0.00602853      -0.00443815       0.00210215
P        0.42507534       3.47145005       3.88620792       0.00000000 NULL      -0.00602852       0.00443817      -0.00210215
P        1.62310978      -0.00736692       1.07040420       0.00000000 NULL       0.00110442       0.00152908       0.00723138
P       -0.86994922       3.65062131      13.14268222       0.00000000 NULL       0.00110441      -0.00152908      -0.00723138
P        1.62311313       3.65061903       1.07040420       0.00000000 NULL       0.00110441      -0.00152908       0.00723138
P        4.11617213      -0.00736921      13.14268222       0.00000000 NULL       0.00110442       0.00152907      -0.00723138
