16
Lattice="5.90954 7.276519767216589e-16 -1.7525553117620004e-15 -0.805204433273187 7.311737078440196 1.8365411667898772e-16 -2.1928032502211128 -3.2884015023093 8.482864504772532" Properties=species:S:1:pos:R:3:initial_magmoms:R:1:castep_labels:S:1 n_minim_iter=1 pbc="T T T"
P        3.12499493       0.57238845       7.73417706       0.00000000 NULL
P       -0.39940038       1.46918364       8.39296226       0.00000000 NULL
P       -0.55686346      -0.47516072       7.78071491       0.00000000 NULL
P        2.37608063       4.80543760       2.10824971       0.00000000 NULL
P        3.59999436      -1.64290436       6.75460302       0.00000000 NULL
P        2.37635415       2.84740843       1.49427694       0.00000000 NULL
P        1.22700645       1.34651972       2.31602645       0.00000000 NULL
P        1.64205769       4.63405532       5.40680648       0.00000000 NULL
P       -1.38205061      -0.00850353       5.06811624       0.00000000 NULL
P        2.97213364      -0.42547540       3.07052211       0.00000000 NULL
P        0.47973225       1.32429128       6.37812416       0.00000000 NULL
P        0.15137163       3.62046718       4.53027464       0.00000000 NULL
P        2.37136678       2.65305600       4.76561729       0.00000000 NULL
P       -0.92904230       1.96838911       5.01835745       0.00000000 NULL
P        3.46814704       2.02303101       6.34715492       0.00000000 NULL
P        4.39985763       5.13077610       1.91781788       0.00000000 NULL
16
Lattice="5.919670553212051 0.005593717669592522 0.0012567941358523412 -0.7996637944868755 7.327790521628086 -0.0011325778033244162 -2.197870901042203 -3.2991551297367905 8.495840705659274" Properties=species:S:1:pos:R:3:initial_magmoms:R:1:castep_labels:S:1 n_minim_iter=2 pbc="T T T"
P        3.13240618       0.57546459       7.74685583       0.00000000 NULL
P       -0.39693114       1.47139603       8.40558137       0.00000000 NULL
P       -0.55654146      -0.47800055       7.79258774       0.00000000 NULL
P        2.38509111       4.81864983       2.11148229       0.00000000 NULL
P        3.60604340      -1.64410365       6.76599723       0.00000000 NULL
P        2.38349475       2.85574449       1.49661641       0.00000000 NULL
P        1.23088576       1.35032072       2.31976465       0.00000000 NULL
P        1.65054225       4.64558959       5.41479684       0.00000000 NULL
P       -1.38346048      -0.01090457       5.07541196       0.00000000 NULL
P        2.97751968      -0.42390464       3.07598536       0.00000000 NULL
P        0.48345559       1.32687903       6.38791688       0.00000000 NULL
P        0.15589980       3.62851046       4.53660256       0.00000000 NULL
P        2.37874995       2.66083233       4.77281843       0.00000000 NULL
P       -0.92765840       1.97146182       5.02541213       0.00000000 NULL
P        3.47723972       2.03032880       6.35762744       0.00000000 NULL
P        4.41279332       5.14652079       1.92101193       0.00000000 NULL
16
Lattice="6.089488323577816 0.10392848395862399 0.022172066274447757 -0.7011349859454051 7.597028123574045 -0.019916556950467592 -2.2855798821753 -3.4812433561672993 8.712882039162551" Properties=species:S:1:pos:R:3:initial_magmoms:R:1:castep_labels:S:1 n_minim_iter=3 pbc="T T T"
P        3.25676062       0.62945355       7.95904416       0.00000000 NULL
P       -0.35453281       1.50878406       8.61665507       0.00000000 NULL
P       -0.55174551      -0.52599429       7.99122658       0.00000000 NULL
P        2.53993196       5.04267630       2.16567987       0.00000000 NULL
P        3.70598820      -1.66133544       6.95647038       0.00000000 NULL
P        2.50519007       2.99730688       1.53572396       0.00000000 NULL
P        1.29698663       1.41509102       2.38237347       0.00000000 NULL
P        1.79636685       4.84079847       5.54843398       0.00000000 NULL
P       -1.40747805      -0.05248286       5.19732473       0.00000000 NULL
P        3.06750640      -0.39505495       3.16740399       0.00000000 NULL
P        0.54691222       1.37093763       6.55185212       0.00000000 NULL
P        0.23445457       3.76404597       4.64245258       0.00000000 NULL
P        2.50419440       2.79348758       4.89308424       0.00000000 NULL
P       -0.90293743       2.02265520       5.14335372       0.00000000 NULL
P        3.63100260       2.15585704       6.53304932       0.00000000 NULL
P        4.63356904       5.41449640       1.97447902       0.00000000 NULL
16
Lattice="6.094990862323614 0.1688874061767051 0.018661700346342666 -0.6215125632923586 7.599878081436579 -0.016026579319627966 -2.328807436398957 -3.506651405723673 8.732588980673661" Properties=species:S:1:pos:R:3:initial_magmoms:R:1:castep_labels:S:1 n_minim_iter=4 pbc="T T T"
P        3.26033027       0.66575152       7.97791207       0.00000000 NULL
P       -0.34388560       1.51339674       8.63653832       0.00000000 NULL
P       -0.56178063      -0.53007138       8.00991112       0.00000000 NULL
P        2.59508195       5.08000465       2.17264195       0.00000000 NULL
P        3.68705714      -1.61970454       6.96896692       0.00000000 NULL
P        2.53629299       3.02390992       1.53785609       0.00000000 NULL
P        1.31364016       1.43055311       2.38865910       0.00000000 NULL
P        1.84765606       4.86737959       5.56086502       0.00000000 NULL
P       -1.41410725      -0.07010505       5.20762988       0.00000000 NULL
P        3.06445638      -0.35929746       3.17410899       0.00000000 NULL
P        0.56105756       1.38041416       6.56869237       0.00000000 NULL
P        0.27104900       3.77546475       4.65363019       0.00000000 NULL
P        2.52894602       2.82800465       4.90130567       0.00000000 NULL
P       -0.88332668       2.01862308       5.15497929       0.00000000 NULL
P        3.65088219       2.20247713       6.55097284       0.00000000 NULL
P        4.69308860       5.47252496       1.97894268       0.00000000 NULL
16
Lattice="6.087063554742319 0.24494037521070217 0.015534179355732546 -0.5263338494128144 7.567401667060815 -0.010227480859404805 -2.3726754884970727 -3.5186926602053483 8.734280132721839" Properties=species:S:1:pos:R:3:initial_magmoms:R:1:castep_labels:S:1 n_minim_iter=5 pbc="T T T"
P        3.25812538       0.70670932       7.98199751       0.00000000 NULL
P       -0.32883551       1.51297342       8.63970261       0.00000000 NULL
P       -0.57105379      -0.53068223       8.01297481       0.00000000 NULL
P        2.65464422       5.10052669       2.17697247       0.00000000 NULL
P        3.65730859      -1.56154861       6.96734417       0.00000000 NULL
P        2.56667088       3.04115239       1.53763027       0.00000000 NULL
P        1.33081195       1.44279393       2.39084288       0.00000000 NULL
P        1.90434725       4.87691099       5.56358109       0.00000000 NULL
P       -1.41809567      -0.08942693       5.20723961       0.00000000 NULL
P        3.05418324      -0.31466274       3.17504991       0.00000000 NULL
P        0.57770353       1.38622381       6.57384900       0.00000000 NULL
P        0.31464147       3.77181751       4.65673492       0.00000000 NULL
P        2.55277015       2.85621792       4.90004728       0.00000000 NULL
P       -0.85721834       2.00512714       5.15653772       0.00000000 NULL
P        3.66700420       2.24816324       6.55795375       0.00000000 NULL
P        4.75221049       5.51561705       1.98137002       0.00000000 NULL
16
Lattice="6.077764279294414 0.40385022528309267 0.019560613518040712 -0.328451296672574 7.484545834953671 -0.0007063917217437946 -2.4518715363868715 -3.5384495470095163 8.731776246151924" Properties=species:S:1:pos:R:3:initial_magmoms:R:1:castep_labels:S:1 n_minim_iter=6 pbc="T T T"
P        3.27051690       0.78942471       7.99363447       0.00000000 NULL
P       -0.28220089       1.50768517       8.64277736       0.00000000 NULL
P       -0.57737006      -0.53200072       8.01611752       0.00000000 NULL
P        2.78631192       5.13305834       2.18887658       0.00000000 NULL
P        3.61179517      -1.43773737       6.96814984       0.00000000 NULL
P        2.63499995       3.07096844       1.54052143       0.00000000 NULL
P        1.37228317       1.46595594       2.39663691       0.00000000 NULL
P        2.03364574       4.88764186       5.57023686       0.00000000 NULL
P       -1.42005019      -0.12983376       5.20237241       0.00000000 NULL
P        3.04196828      -0.22096828       3.18132126       0.00000000 NULL
P        0.62508287       1.39488102       6.58422257       0.00000000 NULL
P        0.41484376       3.75573028       4.66172280       0.00000000 NULL
P        2.61407890       2.90776163       4.89876188       0.00000000 NULL
P       -0.79506762       1.97198083       5.15544974       0.00000000 NULL
P        3.71707307       2.33800663       6.57678038       0.00000000 NULL
P        4.88446237       5.59462439       1.99313236       0.00000000 NULL
16
Lattice="6.117496570600551 0.7149458344170421 0.07240424151930168 0.05104637711266398 7.345298957670407 0.014433514588096105 -2.5638712909663153 -3.584405386715488 8.720718514091168" Properties=species:S:1:pos:R:3:initial_magmoms:R:1:castep_labels:S:1 n_minim_iter=7 pbc="T T T"
P        3.38049814       0.95317042       8.05142468       0.00000000 NULL
P       -0.12834474       1.50568453       8.65815454       0.00000000 NULL
P       -0.53536971      -0.53308821       8.02949739       0.00000000 NULL
P        3.08593768       5.21295640       2.23551198       0.00000000 NULL
P        3.60983153      -1.19771944       7.00460325       0.00000000 NULL
P        2.80034113       3.13726578       1.56694018       0.00000000 NULL
P        1.48381406       1.51815707       2.42147754       0.00000000 NULL
P        2.34197548       4.93111103       5.60705846       0.00000000 NULL
P       -1.40355341      -0.20592006       5.18892683       0.00000000 NULL
P        3.07104239      -0.03728446       3.21929318       0.00000000 NULL
P        0.77441573       1.42004805       6.62138768       0.00000000 NULL
P        0.65064301       3.73678932       4.68069428       0.00000000 NULL
P        2.79281753       3.01248341       4.91706008       0.00000000 NULL
P       -0.64559855       1.91413989       5.15039922       0.00000000 NULL
P        3.89981154       2.52163975       6.65037327       0.00000000 NULL
P        5.19986645       5.76600084       2.05532887       0.00000000 NULL
16
Lattice="6.147224021016142 0.9148520921474825 0.17568373562821463 0.294335249342203 7.180841745053084 0.10430333835573767 -2.537888309801373 -3.476278978927613 8.43942300915668" Properties=species:S:1:pos:R:3:initial_magmoms:R:1:castep_labels:S:1 n_minim_iter=8 pbc="T T T"
P        3.53243026       1.13529831       7.94670607       0.00000000 NULL
P        0.07268544       1.59716469       8.47537876       0.00000000 NULL
P       -0.41106606      -0.43114455       7.84210830       0.00000000 NULL
P        3.31716848       5.24760692       2.30362549       0.00000000 NULL
P        3.69261485      -0.94020787       6.88003666       0.00000000 NULL
P        2.91315960       3.15452434       1.60421232       0.00000000 NULL
P        1.59197763       1.56778066       2.41483921       0.00000000 NULL
P        2.60262751       4.99183617       5.57711630       0.00000000 NULL
P       -1.35089488      -0.20027336       5.03468789       0.00000000 NULL
P        3.13112758       0.12847799       3.19751250       0.00000000 NULL
P        0.95957199       1.50678953       6.51997119       0.00000000 NULL
P        0.86295171       3.74622481       4.62846174       0.00000000 NULL
P        2.95528973       3.09470603       4.85808410       0.00000000 NULL
P       -0.48687664       1.91738749       5.02921846       0.00000000 NULL
P        4.09231006       2.70097623       6.61096722       0.00000000 NULL
P        5.42006404       5.84551060       2.16563487       0.00000000 NULL
16
Lattice="6.3007195369481535 0.9897730300137834 0.23919200415030573 0.3661186587839748 7.2559336452631635 0.14345669899217992 -2.54537172713309 -3.4869785210179165 8.44309934111539" Properties=species:S:1:pos:R:3:initial_magmoms:R:1:castep_labels:S:1 n_minim_iter=9 pbc="T T T"
P        3.68999453       1.21650430       8.03854037       0.00000000 NULL
P        0.17392667       1.67242157       8.53324003       0.00000000 NULL
P       -0.33987487      -0.39101361       7.88424988       0.00000000 NULL
P        3.47353260       5.35545129       2.37534021       0.00000000 NULL
P        3.84086034      -0.86650336       6.94067927       0.00000000 NULL
P        3.01712481       3.21221094       1.65114978       0.00000000 NULL
P        1.67297771       1.61309009       2.45414949       0.00000000 NULL
P        2.76220534       5.11502986       5.65774378       0.00000000 NULL
P       -1.35139273      -0.19989714       5.04054209       0.00000000 NULL
P        3.24237854       0.18714929       3.24706540       0.00000000 NULL
P        1.07563785       1.57522824       6.57630153       0.00000000 NULL
P        0.96384964       3.82620740       4.68052744       0.00000000 NULL
P        3.08979739       3.17345409       4.91157232       0.00000000 NULL
P       -0.42368527       1.96294862       5.05091264       0.00000000 NULL
P        4.27164929       2.81957919       6.70458754       0.00000000 NULL
P        5.61172225       5.97198578       2.25932573       0.00000000 NULL
16
Lattice="6.211238443091655 0.9752575236249035 0.22699105563756578 0.3603512060197126 7.162052878330044 0.15885968342362783 -2.521605367417347 -3.422539284863752 8.328877084967296" Properties=species:S:1:pos:R:3:initial_magmoms:R:1:castep_labels:S:1 n_minim_iter=10 pbc="T T T"
P        3.62367428       1.21330813       7.93263411       0.00000000 NULL
P        0.15858674       1.67022357       8.42615340       0.00000000 NULL
P       -0.34431393      -0.36671973       7.78352057       0.00000000 NULL
P        3.42421252       5.29214224       2.35172606       0.00000000 NULL
P        3.77812798      -0.83993571       6.83900345       0.00000000 NULL
P        2.96904615       3.16912177       1.62983121       0.00000000 NULL
P        1.64862302       1.59703676       2.42410360       0.00000000 NULL
P        2.71369169       5.06176857       5.59081786       0.00000000 NULL
P       -1.34475543      -0.18975104       4.97517565       0.00000000 NULL
P        3.19328689       0.19188974       3.19961905       0.00000000 NULL
P        1.05371423       1.56967526       6.49281192       0.00000000 NULL
P        0.94492164       3.78847144       4.62835063       0.00000000 NULL
P        3.03647156       3.13978146       4.84670501       0.00000000 NULL
P       -0.42211654       1.94877896       4.98908715       0.00000000 NULL
P        4.19919339       2.79836312       6.61701137       0.00000000 NULL
P        5.52439909       5.89584680       2.23454188       0.00000000 NULL
16
Lattice="6.224042332235669 0.9865742430854847 0.23605218239398174 0.3726085270606627 7.154645424725119 0.1641877741928411 -2.5196468421295264 -3.4164866501780247 8.31727291186758" Properties=species:S:1:pos:R:3:initial_magmoms:R:1:castep_labels:S:1 n_minim_iter=11 pbc="T T T"
P        3.64013829       1.22179374       7.93607012       0.00000000 NULL
P        0.17364092       1.67767211       8.42304617       0.00000000 NULL
P       -0.33214639      -0.35931416       7.77928229       0.00000000 NULL
P        3.44444492       5.29652610       2.35879602       0.00000000 NULL
P        3.79441373      -0.82477801       6.83693056       0.00000000 NULL
P        2.97987637       3.16940175       1.63356073       0.00000000 NULL
P        1.65907986       1.59988399       2.42695157       0.00000000 NULL
P        2.73407994       5.06879722       5.59400742       0.00000000 NULL
P       -1.34527908      -0.19212134       4.96786437       0.00000000 NULL
P        3.20551332       0.20183752       3.20267869       0.00000000 NULL
P        1.07130104       1.57664315       6.49130603       0.00000000 NULL
P        0.95980568       3.79173111       4.62969353       0.00000000 NULL
P        3.05150728       3.14357607       4.84605527       0.00000000 NULL
P       -0.41001631       1.95018915       4.98416549       0.00000000 NULL
P        4.21881168       2.81182901       6.62140478       0.00000000 NULL
P        5.54399726       5.90110114       2.24495710       0.00000000 NULL
16
Lattice="6.233373412927828 1.005117539537023 0.2513041867065201 0.39428031212018944 7.1290567258269695 0.1752400967651984 -2.5115342550194284 -3.3977617425857325 8.280129395672757" Properties=species:S:1:pos:R:3:initial_magmoms:R:1:castep_labels:S:1 n_minim_iter=12 pbc="T T T"
P        3.66046541       1.23576674       7.92787473       0.00000000 NULL
P        0.19961461       1.69058665       8.40226966       0.00000000 NULL
P       -0.30958641      -0.34314600       7.75747269       0.00000000 NULL
P        3.47397982       5.29616374       2.36797869       0.00000000 NULL
P        3.81522654      -0.79432640       6.81891632       0.00000000 NULL
P        2.99238621       3.16397128       1.63711671       0.00000000 NULL
P        1.67454363       1.60258029       2.42803542       0.00000000 NULL
P        2.76436714       5.07451967       5.58989371       0.00000000 NULL
P       -1.34529410      -0.19620054       4.94496432       0.00000000 NULL
P        3.22074467       0.22024482       3.20199303       0.00000000 NULL
P        1.10091589       1.58825760       6.47640825       0.00000000 NULL
P        0.98450711       3.79268461       4.62456002       0.00000000 NULL
P        3.07110851       3.14539839       4.83537061       0.00000000 NULL
P       -0.38680722       1.95056114       4.96616082       0.00000000 NULL
P        4.24383700       2.83333799       6.61703620       0.00000000 NULL
P        5.56626209       5.90046064       2.26016733       0.00000000 NULL
16
Lattice="6.288044688815033 1.1042929848494427 0.3436473665059027 0.5095385601470311 7.021511787369068 0.22046223555798852 -2.454453222086023 -3.3252088803341677 8.09929133405259" Properties=species:S:1:pos:R:3:initial_magmoms:R:1:castep_labels:S:1 n_minim_iter=13 pbc="T T T"
P        3.78319122       1.29581894       7.90725464       0.00000000 NULL
P        0.35349980       1.75505001       8.30663686       0.00000000 NULL
P       -0.17124511      -0.26989001       7.65784122       0.00000000 NULL
P        3.63811681       5.31053642       2.41721829       0.00000000 NULL
P        3.94543628      -0.64833086       6.74153463       0.00000000 NULL
P        3.06317368       3.14167100       1.65695857       0.00000000 NULL
P        1.76209373       1.61633798       2.44064984       0.00000000 NULL
P        2.93738450       5.11756482       5.57228551       0.00000000 NULL
P       -1.34751232      -0.23558240       4.82622295       0.00000000 NULL
P        3.31485080       0.31261476       3.21285334       0.00000000 NULL
P        1.27588279       1.64725988       6.40572050       0.00000000 NULL
P        1.12457280       3.80766327       4.60211286       0.00000000 NULL
P        3.18420447       3.15438824       4.78382829       0.00000000 NULL
P       -0.25001679       1.95254174       4.87435166       0.00000000 NULL
P        4.38992371       2.94927300       6.60863174       0.00000000 NULL
P        5.68987980       5.91360728       2.34337500       0.00000000 NULL
16
Lattice="6.151074736662465 1.0406537293786606 0.3554398637847537 0.44946202438086585 7.02347777463155 0.18011430589490762 -2.3512888918423576 -3.3435255368896204 8.082308667529142" Properties=species:S:1:pos:R:3:initial_magmoms:R:1:castep_labels:S:1 n_minim_iter=14 pbc="T T T"
P        3.70643524       1.18790258       7.92620241       0.00000000 NULL
P        0.35549860       1.74352524       8.28626687       0.00000000 NULL
P       -0.11551698      -0.29282704       7.64892546       0.00000000 NULL
P        3.53115563       5.27139176       2.38572002       0.00000000 NULL
P        3.92375532      -0.70948478       6.70101681       0.00000000 NULL
P        2.98035692       3.08283342       1.62961526       0.00000000 NULL
P        1.72095029       1.56757782       2.44483148       0.00000000 NULL
P        2.85403885       5.09519218       5.52125354       0.00000000 NULL
P       -1.37241869      -0.31324253       4.78248923       0.00000000 NULL
P        3.29069612       0.27155213       3.22843427       0.00000000 NULL
P        1.29305369       1.61869157       6.36071871       0.00000000 NULL
P        1.08494200       3.80450310       4.58668351       0.00000000 NULL
P        3.10494398       3.07715564       4.73067199       0.00000000 NULL
P       -0.19837135       1.93814780       4.83317404       0.00000000 NULL
P        4.27194111       2.91159832       6.58632310       0.00000000 NULL
P        5.52078107       5.85123532       2.31679079       0.00000000 NULL
16
Lattice="6.362036251390658 1.1312281829489792 0.4452061736344425 0.5327831362813519 7.084636531354483 0.22145271034471634 -2.351114059420662 -3.3480405368804704 8.052859599862236" Properties=species:S:1:pos:R:3:initial_magmoms:R:1:castep_labels:S:1 n_minim_iter=15 pbc="T T T"
P        3.94022043       1.29303225       8.00565208       0.00000000 NULL
P        0.49254701       1.82177263       8.32049842       0.00000000 NULL
P       -0.01774693      -0.24568162       7.66468135       0.00000000 NULL
P        3.71612231       5.36809841       2.46396770       0.00000000 NULL
P        4.13539650      -0.61924811       6.76184597       0.00000000 NULL
P        3.12737610       3.15258696       1.68917588       0.00000000 NULL
P        1.82098407       1.61240311       2.48501192       0.00000000 NULL
P        3.06626572       5.21009255       5.59621353       0.00000000 NULL
P       -1.36752410      -0.31391341       4.76878355       0.00000000 NULL
P        3.44810898       0.33957829       3.28565183       0.00000000 NULL
P        1.43955780       1.69070340       6.40183580       0.00000000 NULL
P        1.21209470       3.88110565       4.63289998       0.00000000 NULL
P        3.29690237       3.16941350       4.79731156       0.00000000 NULL
P       -0.11833416       1.98126471       4.85013016       0.00000000 NULL
P        4.51858811       3.03744285       6.67605161       0.00000000 NULL
P        5.79003672       5.98847187       2.42720638       0.00000000 NULL
16
Lattice="6.240438449144926 1.0972848957270758 0.4262341851997896 0.5073542023372576 6.994817063741631 0.22916658719608865 -2.3143392164716823 -3.287019447751765 7.957989621906299" Properties=species:S:1:pos:R:3:initial_magmoms:R:1:castep_labels:S:1 n_minim_iter=16 pbc="T T T"
P        3.85117859       1.27537816       7.90513422       0.00000000 NULL
P        0.46389687       1.81055022       8.22390217       0.00000000 NULL
P       -0.02928916      -0.22998304       7.57468712       0.00000000 NULL
P        3.63135642       5.29285126       2.43469356       0.00000000 NULL
P        4.05005025      -0.61361058       6.66954482       0.00000000 NULL
P        3.05868318       3.10406105       1.66569411       0.00000000 NULL
P        1.78032266       1.58933888       2.45511448       0.00000000 NULL
P        2.98772941       5.14350937       5.52987418       0.00000000 NULL
P       -1.35357937      -0.30231477       4.71372478       0.00000000 NULL
P        3.37945837       0.32920824       3.23967007       0.00000000 NULL
P        1.39839060       1.67451660       6.32469872       0.00000000 NULL
P        1.17329317       3.83664106       4.58338809       0.00000000 NULL
P        3.21996859       3.12572406       4.73762413       0.00000000 NULL
P       -0.12639805       1.96420213       4.79686096       0.00000000 NULL
P        4.41430220       2.99602226       6.59085031       0.00000000 NULL
P        5.66312608       5.89787978       2.39380394       0.00000000 NULL
16
Lattice="6.245917329905935 1.1046170011638667 0.4331367959730515 0.5156795217541793 7.011366835641094 0.2333531194300312 -2.310543845284582 -3.291684310081542 7.969524796312173" Properties=species:S:1:pos:R:3:initial_magmoms:R:1:castep_labels:S:1 n_minim_iter=17 pbc="T T T"
P        3.86394428       1.28485225       7.92596491       0.00000000 NULL
P        0.47478428       1.82147725       8.24142203       0.00000000 NULL
P       -0.02042521      -0.22553535       7.58904280       0.00000000 NULL
P        3.64083301       5.30838657       2.44481895       0.00000000 NULL
P        4.06045415      -0.60803952       6.68442407       0.00000000 NULL
P        3.06618430       3.11357874       1.67289195       0.00000000 NULL
P        1.78534115       1.59417370       2.46305918       0.00000000 NULL
P        3.00129159       5.16154973       5.54478851       0.00000000 NULL
P       -1.35255345      -0.30433361       4.71965444       0.00000000 NULL
P        3.38752127       0.33466973       3.24992251       0.00000000 NULL
P        1.40937691       1.68339939       6.33820086       0.00000000 NULL
P        1.18276262       3.85011792       4.59596829       0.00000000 NULL
P        3.23061911       3.13719530       4.75034695       0.00000000 NULL
P       -0.11715119       1.97149984       4.80654664       0.00000000 NULL
P        4.42617182       3.01160705       6.60909941       0.00000000 NULL
P        5.67584104       5.91737656       2.40606506       0.00000000 NULL
16
Lattice="6.239613983636759 1.1064709449902026 0.4374340056402595 0.5188322260554897 7.012890886380976 0.23737057341289222 -2.303068113860796 -3.2878310453112984 7.967275278695562" Properties=species:S:1:pos:R:3:initial_magmoms:R:1:castep_labels:S:1 n_minim_iter=18 pbc="T T T"
P        3.86695825       1.29009680       7.93146227       0.00000000 NULL
P        0.48120456       1.82866470       8.24401609       0.00000000 NULL
P       -0.01353444      -0.22003735       7.58990843       0.00000000 NULL
P        3.64009398       5.31106131       2.44980160       0.00000000 NULL
P        4.06226889      -0.60270254       6.68607546       0.00000000 NULL
P        3.06578909       3.11494880       1.67622299       0.00000000 NULL
P        1.78570760       1.59494242       2.46619703       0.00000000 NULL
P        3.00475414       5.16734094       5.54903442       0.00000000 NULL
P       -1.35050331      -0.30492882       4.71744522       0.00000000 NULL
P        3.38853705       0.33783402       3.25335239       0.00000000 NULL
P        1.41491742       1.68832659       6.33999673       0.00000000 NULL
P        1.18650425       3.85514192       4.60028814       0.00000000 NULL
P        3.23232539       3.14068688       4.75383172       0.00000000 NULL
P       -0.11018584       1.97495604       4.80783830       0.00000000 NULL
P        4.42636841       3.01895862       6.61425719       0.00000000 NULL
P        5.67407705       5.92154092       2.41259115       0.00000000 NULL
16
Lattice="6.218210869034312 1.114265750975501 0.4599940546105588 0.5313928407066633 7.0173561859791915 0.2554194407785556 -2.2670798294615158 -3.2687032557816114 7.955672892116832" Properties=species:S:1:pos:R:3:initial_magmoms:R:1:castep_labels:S:1 n_minim_iter=19 pbc="T T T"
P        3.88883824       1.31330301       7.95875529       0.00000000 NULL
P        0.51355925       1.86189743       8.25567413       0.00000000 NULL
P        0.02182692      -0.19396644       7.59359731       0.00000000 NULL
P        3.63939130       5.32082229       2.47366386       0.00000000 NULL
P        4.07931310      -0.57780455       6.69496509       0.00000000 NULL
P        3.06743762       3.11955422       1.69239121       0.00000000 NULL
P        1.78977178       1.59708452       2.48166219       0.00000000 NULL
P        3.02455221       5.19220818       5.56865437       0.00000000 NULL
P       -1.34222092      -0.30901656       4.70518106       0.00000000 NULL
P        3.39985872       0.35221139       3.27105029       0.00000000 NULL
P        1.44459692       1.71050047       6.34816695       0.00000000 NULL
P        1.20517290       3.87753938       4.62066711       0.00000000 NULL
P        3.24514857       3.15510631       4.77059916       0.00000000 NULL
P       -0.07623743       1.99019057       4.81314993       0.00000000 NULL
P        4.43354411       3.05257045       6.63952834       0.00000000 NULL
P        5.67173889       5.93852718       2.44440690       0.00000000 NULL
16
Lattice="6.221691774695365 1.1124030330882038 0.49664500328735806 0.5286138521367716 6.992042499872994 0.27356505779994444 -2.2147242392381843 -3.2296675110017588 7.91361100339426" Properties=species:S:1:pos:R:3:initial_magmoms:R:1:castep_labels:S:1 n_minim_iter=20 pbc="T T T"
P        3.94646861       1.32862022       7.97899064       0.00000000 NULL
P        0.55689793       1.89921886       8.24417590       0.00000000 NULL
P        0.07973802      -0.15701398       7.57473605       0.00000000 NULL
P        3.63799509       5.30214028       2.49772178       0.00000000 NULL
P        4.13692622      -0.54797267       6.69064338       0.00000000 NULL
P        3.07932741       3.10498833       1.70859775       0.00000000 NULL
P        1.80065264       1.58467162       2.49924974       0.00000000 NULL
P        3.05451896       5.19768696       5.57286007       0.00000000 NULL
P       -1.34318322      -0.32328060       4.66264617       0.00000000 NULL
P        3.44465308       0.36454143       3.29225008       0.00000000 NULL
P        1.49498929       1.72871368       6.33738697       0.00000000 NULL
P        1.22525219       3.89209140       4.63569287       0.00000000 NULL
P        3.27598226       3.15212098       4.77861139       0.00000000 NULL
P       -0.02792448       1.99928949       4.80231127       0.00000000 NULL
P        4.45777600       3.08403148       6.65630045       0.00000000 NULL
P        5.68197271       5.92894774       2.48062189       0.00000000 NULL
16