52
Lattice="5.74476 0.0 -2.3597476628624885e-15 0.0 13.997560000000002 0.0 -2.595691784633239 0.0 14.100201445230761" Properties=species:S:1:pos:R:3:initial_magmoms:R:1:castep_labels:S:1 n_minim_iter=1 pbc="T T T"
P       -0.29131168       9.47079249      11.72193739       0.00000000 NULL
P        3.44037989       2.47201249       2.37826406       0.00000000 NULL
P        3.44037989       4.52676751       2.37826406       0.00000000 NULL
P       -0.29131168      11.52554751      11.72193739       0.00000000 NULL
P        3.16967563       5.59498010      11.22642106       0.00000000 NULL
P       -0.02060742      12.59376010       2.87378039       0.00000000 NULL
P       -0.02060742       8.40257990       2.87378039       0.00000000 NULL
P        3.16967563       1.40379990      11.22642106       0.00000000 NULL
P        4.50567093       4.51057233       4.60371013       0.00000000 NULL
P       -1.35660272      11.50935233       9.49649132       0.00000000 NULL
P       -1.35660272       9.48698767       9.49649132       0.00000000 NULL
P        4.50567093       2.48820767       4.60371013       0.00000000 NULL
P        2.10256806       9.47606677      11.66290548       0.00000000 NULL
P        1.04650015       2.47728677       2.43729597       0.00000000 NULL
P        1.04650015       4.52149323       2.43729597       0.00000000 NULL
P        2.10256806      11.52027323      11.66290548       0.00000000 NULL
P        2.85101918       8.36922931      10.13903185       0.00000000 NULL
P        0.29804903       1.37044931       3.96116960       0.00000000 NULL
P        0.29804903       5.62833069       3.96116960       0.00000000 NULL
P        2.85101918      12.62711069      10.13903185       0.00000000 NULL
P        4.89911606       2.44849799       0.14368246       0.00000000 NULL
P       -1.75004785       9.44727799      13.95651899       0.00000000 NULL
P       -1.75004785      11.54906201      13.95651899       0.00000000 NULL
P        4.89911606       4.55028201       0.14368246       0.00000000 NULL
P        0.70519280       0.39532749      11.49531613       0.00000000 NULL
P        2.44387541       7.39410749       2.60488532       0.00000000 NULL
P        2.44387541      13.60223251       2.60488532       0.00000000 NULL
P        0.70519280       6.60345251      11.49531613       0.00000000 NULL
P        0.40183240      13.41443985       1.09516970       0.00000000 NULL
P        2.74723581       6.41565985      13.00503175       0.00000000 NULL
P        2.74723581       0.58312015      13.00503175       0.00000000 NULL
P        0.40183240       7.58190015       1.09516970       0.00000000 NULL
P       -1.06326089       6.74236150      10.46305730       0.00000000 NULL
P        4.21232910      13.74114150       3.63714415       0.00000000 NULL
P        4.21232910       7.25519850       3.63714415       0.00000000 NULL
P       -1.06326089       0.25641850      10.46305730       0.00000000 NULL
P        2.73489845       1.28675510       3.82668046       0.00000000 NULL
P        0.41416976       8.28553510      10.27352099       0.00000000 NULL
P        0.41416976      12.71080490      10.27352099       0.00000000 NULL
P        2.73489845       5.71202490       3.82668046       0.00000000 NULL
P       -1.20093317       2.44211930      12.37083571       0.00000000 NULL
P        4.35000138       9.44089930       1.72936574       0.00000000 NULL
P        4.35000138      11.55544070       1.72936574       0.00000000 NULL
P       -1.20093317       4.55666070      12.37083571       0.00000000 NULL
P        1.17498331       5.75411137       0.84444555       0.00000000 NULL
P        1.97408490      12.75289137      13.25575590       0.00000000 NULL
P        1.97408490       8.24344863      13.25575590       0.00000000 NULL
P        1.17498331       1.24466863       0.84444555       0.00000000 NULL
P        0.62091917       7.01284615       8.67958345       0.00000000 NULL
P        2.52814904       0.01406615       5.42061800       0.00000000 NULL
P        2.52814904       6.98471385       5.42061800       0.00000000 NULL
P        0.62091917      13.98349385       8.67958345       0.00000000 NULL
52
Lattice="5.808868461737529 0.0 -0.002529245140095681 0.0 14.227063781827354 0.0 -2.630866217235693 0.0 14.270688023893094" Properties=species:S:1:pos:R:3:initial_magmoms:R:1:castep_labels:S:1 n_minim_iter=2 pbc="T T T"
P       -0.29991716       9.62607812      11.86314462       0.00000000 NULL
P        3.47791940       2.51254623       2.40501416       0.00000000 NULL
P        3.47791940       4.60098566       2.40501416       0.00000000 NULL
P       -0.29991716      11.71451755      11.86314462       0.00000000 NULL
P        3.19989852       5.68641169      11.35960064       0.00000000 NULL
P       -0.02189629      12.79994358       2.90855814       0.00000000 NULL
P       -0.02189629       8.54065209       2.90855814       0.00000000 NULL
P        3.19989852       1.42712020      11.35960064       0.00000000 NULL
P        4.55372827       4.58456571       4.65720208       0.00000000 NULL
P       -1.37572603      11.69809761       9.61095670       0.00000000 NULL
P       -1.37572603       9.64249807       9.61095670       0.00000000 NULL
P        4.55372827       2.52896618       4.65720208       0.00000000 NULL
P        2.12089016       9.63149665      11.80209205       0.00000000 NULL
P        1.05711208       2.51796476       2.46606674       0.00000000 NULL
P        1.05711208       4.59556713       2.46606674       0.00000000 NULL
P        2.12089016      11.70909902      11.80209205       0.00000000 NULL
P        2.87831274       8.50615929      10.25935358       0.00000000 NULL
P        0.29968950       1.39262740       4.00880520       0.00000000 NULL
P        0.29968950       5.72090449       4.00880520       0.00000000 NULL
P        2.87831274      12.83443638      10.25935358       0.00000000 NULL
P        4.95363825       2.48850713       0.14334270       0.00000000 NULL
P       -1.77563601       9.60203902      14.12481609       0.00000000 NULL
P       -1.77563601      11.73855665      14.12481609       0.00000000 NULL
P        4.95363825       4.62502476       0.14334270       0.00000000 NULL
P        0.70816538       0.40199060      11.63332698       0.00000000 NULL
P        2.46983686       7.51552249       2.63483181       0.00000000 NULL
P        2.46983686      13.82507318       2.63483181       0.00000000 NULL
P        0.70816538       6.71154129      11.63332698       0.00000000 NULL
P        0.40582975      13.63425514       1.10795254       0.00000000 NULL
P        2.77217249       6.52072325      13.16020624       0.00000000 NULL
P        2.77217249       0.59280864      13.16020624       0.00000000 NULL
P        0.40582975       7.70634054       1.10795254       0.00000000 NULL
P       -1.07991916       6.85288547      10.58896249       0.00000000 NULL
P        4.25792140      13.96641736       3.67919630       0.00000000 NULL
P        4.25792140       7.37417831       3.67919630       0.00000000 NULL
P       -1.07991916       0.26064642      10.58896249       0.00000000 NULL
P        2.76357382       1.30794862       3.87176080       0.00000000 NULL
P        0.41442842       8.42148051      10.39639799       0.00000000 NULL
P        0.41442842      12.91911516      10.39639799       0.00000000 NULL
P        2.76357382       5.80558327       3.87176080       0.00000000 NULL
P       -1.21960048       2.48233661      12.52000072       0.00000000 NULL
P        4.39760272       9.59586850       1.74815806       0.00000000 NULL
P        4.39760272      11.74472718       1.74815806       0.00000000 NULL
P       -1.21960048       4.63119528      12.52000072       0.00000000 NULL
P        1.18789443       5.84827987       0.85380508       0.00000000 NULL
P        1.99010781      12.96181176      13.41435371       0.00000000 NULL
P        1.99010781       8.37878391      13.41435371       0.00000000 NULL
P        1.18789443       1.26525202       0.85380508       0.00000000 NULL
P        0.62399844       7.12777102       8.78343175       0.00000000 NULL
P        2.55400380       0.01423913       5.48472703       0.00000000 NULL
P        2.55400380       7.09929276       5.48472703       0.00000000 NULL
P        0.62399844      14.21282465       8.78343175       0.00000000 NULL
52
Lattice="6.075767434654556 0.0 -0.010767821136242688 0.0 15.188340877789555 0.0 -2.771682030689225 0.0 14.989609040535973" Properties=species:S:1:pos:R:3:initial_magmoms:R:1:castep_labels:S:1 n_minim_iter=3 pbc="T T T"
P       -0.33119158      10.27663038      12.45955378       0.00000000 NULL
P        3.63527698       2.68245994       2.51928745       0.00000000 NULL
P        3.63527698       4.91171050       2.51928745       0.00000000 NULL
P       -0.33119158      12.50588094      12.45955378       0.00000000 NULL
P        3.33020095       6.06918260      11.92348356       0.00000000 NULL
P       -0.02611555      13.66335303       3.05535766       0.00000000 NULL
P       -0.02611555       9.11915828       3.05535766       0.00000000 NULL
P        3.33020095       1.52498784      11.92348356       0.00000000 NULL
P        4.75553326       4.89446783       4.88505287       0.00000000 NULL
P       -1.45144786      12.48863827      10.09378835       0.00000000 NULL
P       -1.45144786      10.29387304      10.09378835       0.00000000 NULL
P        4.75553326       2.69970261       4.88505287       0.00000000 NULL
P        2.20183956      10.28253427      12.39088186       0.00000000 NULL
P        1.10224584       2.68836383       2.58795936       0.00000000 NULL
P        1.10224584       4.90580661       2.58795936       0.00000000 NULL
P        2.20183956      12.49997705      12.39088186       0.00000000 NULL
P        2.99599456       9.07961222      10.76863248       0.00000000 NULL
P        0.30809084       1.48544178       4.21020875       0.00000000 NULL
P        0.30809084       6.10872866       4.21020875       0.00000000 NULL
P        2.99599456      13.70289910      10.76863248       0.00000000 NULL
P        5.18065298       2.65606463       0.14409218       0.00000000 NULL
P       -1.87656759      10.25023506      14.83474905       0.00000000 NULL
P       -1.87656759      12.53227625      14.83474905       0.00000000 NULL
P        5.18065298       4.93810581       0.14409218       0.00000000 NULL
P        0.72508661       0.42993493      12.21648701       0.00000000 NULL
P        2.57899879       8.02410537       2.76235421       0.00000000 NULL
P        2.57899879      14.75840595       2.76235421       0.00000000 NULL
P        0.72508661       7.16423551      12.21648701       0.00000000 NULL
P        0.42297402      14.55483545       1.16203072       0.00000000 NULL
P        2.88111138       6.96066501      13.81681050       0.00000000 NULL
P        2.88111138       0.63350543      13.81681050       0.00000000 NULL
P        0.42297402       8.22767587       1.16203072       0.00000000 NULL
P       -1.14504866       7.31578608      11.12018667       0.00000000 NULL
P        4.44913406      14.90995652       3.85865455       0.00000000 NULL
P        4.44913406       7.87255479       3.85865455       0.00000000 NULL
P       -1.14504866       0.27838435      11.12018667       0.00000000 NULL
P        2.88451185       1.39658873       4.06352658       0.00000000 NULL
P        0.41957354       8.99075917      10.91531465       0.00000000 NULL
P        0.41957354      13.79175215      10.91531465       0.00000000 NULL
P        2.88451185       6.19758171       4.06352658       0.00000000 NULL
P       -1.29237257       2.65102531      13.14945347       0.00000000 NULL
P        4.59645797      10.24519575       1.82938775       0.00000000 NULL
P        4.59645797      12.53731557       1.82938775       0.00000000 NULL
P       -1.29237257       4.94314513      13.14945347       0.00000000 NULL
P        1.24198344       6.24258628       0.89371115       0.00000000 NULL
P        2.06210196      13.83675671      14.08513008       0.00000000 NULL
P        2.06210196       8.94575460      14.08513008       0.00000000 NULL
P        1.24198344       1.35158416       0.89371115       0.00000000 NULL
P        0.64018278       7.60918718       9.22240278       0.00000000 NULL
P        2.66390261       0.01501674       5.75643845       0.00000000 NULL
P        2.66390261       7.57915370       5.75643845       0.00000000 NULL
P        0.64018278      15.17332414       9.22240278       0.00000000 NULL
52
Lattice="6.12389269270138 0.0 -0.007945563758368728 0.0 15.334200263393136 0.0 -2.786499697465065 0.0 15.212667476860618" Properties=species:S:1:pos:R:3:initial_magmoms:R:1:castep_labels:S:1 n_minim_iter=4 pbc="T T T"
P       -0.32857605      10.37586771      12.64690498       0.00000000 NULL
P        3.66596904       2.70876758       2.55781694       0.00000000 NULL
P        3.66596904       4.95833255       2.55781694       0.00000000 NULL
P       -0.32857605      12.62543268      12.64690498       0.00000000 NULL
P        3.36212349       6.12647338      12.10367406       0.00000000 NULL
P       -0.02473050      13.79357351       3.10104786       0.00000000 NULL
P       -0.02473050       9.20772688       3.10104786       0.00000000 NULL
P        3.36212349       1.54062675      12.10367406       0.00000000 NULL
P        4.79506562       4.94149146       4.96057910       0.00000000 NULL
P       -1.45767263      12.60859159      10.24414282       0.00000000 NULL
P       -1.45767263      10.39270881      10.24414282       0.00000000 NULL
P        4.79506562       2.72560867       4.96057910       0.00000000 NULL
P        2.22517082      10.38123028      12.57772584       0.00000000 NULL
P        1.11222217       2.71413015       2.62699608       0.00000000 NULL
P        1.11222217       4.95296998       2.62699608       0.00000000 NULL
P        2.22517082      12.62007011      12.57772584       0.00000000 NULL
P        3.02498571       9.16659399      10.93075446       0.00000000 NULL
P        0.31240728       1.49949385       4.27396745       0.00000000 NULL
P        0.31240728       6.16760628       4.27396745       0.00000000 NULL
P        3.02498571      13.83470641      10.93075446       0.00000000 NULL
P        5.22168554       2.68147696       0.14937366       0.00000000 NULL
P       -1.88429255      10.34857710      15.05534825       0.00000000 NULL
P       -1.88429255      12.65272330      15.05534825       0.00000000 NULL
P        5.22168554       4.98562317       0.14937366       0.00000000 NULL
P        0.73635336       0.43432160      12.39983111       0.00000000 NULL
P        2.60103963       8.10142173       2.80489081       0.00000000 NULL
P        2.60103963      14.89987866       2.80489081       0.00000000 NULL
P        0.73635336       7.23277853      12.39983111       0.00000000 NULL
P        0.42706932      14.69429941       1.17934416       0.00000000 NULL
P        2.91032367       7.02719927      14.02537776       0.00000000 NULL
P        2.91032367       0.63990086      14.02537776       0.00000000 NULL
P        0.42706932       8.30700099       1.17934416       0.00000000 NULL
P       -1.14894004       7.38597728      11.28552758       0.00000000 NULL
P        4.48633303      15.05307741       3.91919434       0.00000000 NULL
P        4.48633303       7.94822298       3.91919434       0.00000000 NULL
P       -1.14894004       0.28112285      11.28552758       0.00000000 NULL
P        2.90897691       1.40949405       4.12711786       0.00000000 NULL
P        0.42841608       9.07659418      11.07760406       0.00000000 NULL
P        0.42841608      13.92470621      11.07760406       0.00000000 NULL
P        2.90897691       6.25760608       4.12711786       0.00000000 NULL
P       -1.29601564       2.67729430      13.34567293       0.00000000 NULL
P        4.63340863      10.34439443       1.85904899       0.00000000 NULL
P        4.63340863      12.65690597       1.85904899       0.00000000 NULL
P       -1.29601564       4.98980584      13.34567293       0.00000000 NULL
P        1.25214806       6.30178637       0.90706244       0.00000000 NULL
P        2.08524493      13.96888650      14.29765947       0.00000000 NULL
P        2.08524493       9.03241389      14.29765947       0.00000000 NULL
P        1.25214806       1.36531376       0.90706244       0.00000000 NULL
P        0.64924547       7.68257959       9.36126210       0.00000000 NULL
P        2.68814752       0.01547945       5.84345982       0.00000000 NULL
P        2.68814752       7.65162068       5.84345982       0.00000000 NULL
P        0.64924547      15.31872081       9.36126210       0.00000000 NULL
52
Lattice="6.123004711928831 0.0 -0.002969488061533326 0.0 15.320117529145788 0.0 -2.773884967845672 0.0 15.35949322064987" Properties=species:S:1:pos:R:3:initial_magmoms:R:1:castep_labels:S:1 n_minim_iter=5 pbc="T T T"
P       -0.31908562      10.36700648      12.77161225       0.00000000 NULL
P        3.66820536       2.70694771       2.58491149       0.00000000 NULL
P        3.66820536       4.95311105       2.58491149       0.00000000 NULL
P       -0.31908562      12.61316982      12.77161225       0.00000000 NULL
P        3.37131579       6.11976376      12.22538419       0.00000000 NULL
P       -0.02219605      13.77982253       3.13113955       0.00000000 NULL
P       -0.02219605       9.20035377       3.13113955       0.00000000 NULL
P        3.37131579       1.54029500      12.22538419       0.00000000 NULL
P        4.79793853       4.93702036       5.01308799       0.00000000 NULL
P       -1.44881879      12.59707912      10.34343575       0.00000000 NULL
P       -1.44881879      10.38309717      10.34343575       0.00000000 NULL
P        4.79793853       2.72303841       5.01308799       0.00000000 NULL
P        2.23493006      10.37147844      12.70311406       0.00000000 NULL
P        1.11418968       2.71141968       2.65340968       0.00000000 NULL
P        1.11418968       4.94863909       2.65340968       0.00000000 NULL
P        2.23493006      12.60869785      12.70311406       0.00000000 NULL
P        3.03357094       9.15817100      11.03983603       0.00000000 NULL
P        0.31554880       1.49811223       4.31668771       0.00000000 NULL
P        0.31554880       6.16194653       4.31668771       0.00000000 NULL
P        3.03357094      13.82200530      11.03983603       0.00000000 NULL
P        5.22105771       2.67892061       0.15581452       0.00000000 NULL
P       -1.87193797      10.33897937      15.20070922       0.00000000 NULL
P       -1.87193797      12.64119692      15.20070922       0.00000000 NULL
P        5.22105771       4.98113816       0.15581452       0.00000000 NULL
P        0.74565485       0.43412135      12.52189634       0.00000000 NULL
P        2.60346489       8.09418011       2.83462740       0.00000000 NULL
P        2.60346489      14.88599618       2.83462740       0.00000000 NULL
P        0.74565485       7.22593742      12.52189634       0.00000000 NULL
P        0.42811142      14.68051685       1.19113713       0.00000000 NULL
P        2.92100832       7.02045808      14.16538661       0.00000000 NULL
P        2.92100832       0.63960068      14.16538661       0.00000000 NULL
P        0.42811142       8.29965945       1.19113713       0.00000000 NULL
P       -1.13979998       7.37913198      11.39457244       0.00000000 NULL
P        4.48891972      15.03919075       3.96195129       0.00000000 NULL
P        4.48891972       7.94098554       3.96195129       0.00000000 NULL
P       -1.13979998       0.28092678      11.39457244       0.00000000 NULL
P        2.91149181       1.40753117       4.17150253       0.00000000 NULL
P        0.43762793       9.06758993      11.18502120       0.00000000 NULL
P        0.43762793      13.91258636      11.18502120       0.00000000 NULL
P        2.91149181       6.25252760       4.17150253       0.00000000 NULL
P       -1.28482909       2.67564262      13.47531922       0.00000000 NULL
P        4.63394883      10.33570138       1.88120452       0.00000000 NULL
P        4.63394883      12.64447491       1.88120452       0.00000000 NULL
P       -1.28482909       4.98441615      13.47531922       0.00000000 NULL
P        1.25237499       6.29509249       0.91645680       0.00000000 NULL
P        2.09674475      13.95515125      14.44006694       0.00000000 NULL
P        2.09674475       9.02502504      14.44006694       0.00000000 NULL
P        1.25237499       1.36496628       0.91645680       0.00000000 NULL
P        0.65619748       7.67605833       9.45436132       0.00000000 NULL
P        2.69292226       0.01599957       5.90216242       0.00000000 NULL
P        2.69292226       7.64405920       5.90216242       0.00000000 NULL
P        0.65619748      15.30411796       9.45436132       0.00000000 NULL
52
Lattice="6.105184367818027 0.0 0.004254624096202109 0.0 15.266202539813266 0.0 -2.748101896404083 0.0 15.491560136124837" Properties=species:S:1:pos:R:3:initial_magmoms:R:1:castep_labels:S:1 n_minim_iter=6 pbc="T T T"
P       -0.30413801      10.33121985      12.88487568       0.00000000 NULL
P        3.66122047       2.69811858       2.61093909       0.00000000 NULL
P        3.66122047       4.93498269       2.61093909       0.00000000 NULL
P       -0.30413801      12.56808396      12.88487568       0.00000000 NULL
P        3.37556358       6.09706362      12.33756066       0.00000000 NULL
P       -0.01848111      13.73016489       3.15825411       0.00000000 NULL
P       -0.01848111       9.16913892       3.15825411       0.00000000 NULL
P        3.37556358       1.53603765      12.33756066       0.00000000 NULL
P        4.78928922       4.91974403       5.06289714       0.00000000 NULL
P       -1.43220676      12.55284530      10.43291762       0.00000000 NULL
P       -1.43220676      10.34645851      10.43291762       0.00000000 NULL
P        4.78928922       2.71335724       5.06289714       0.00000000 NULL
P        2.24303959      10.33465450      12.81799356       0.00000000 NULL
P        1.11404288       2.70155323       2.67782121       0.00000000 NULL
P        1.11404288       4.93154804       2.67782121       0.00000000 NULL
P        2.24303959      12.56464931      12.81799356       0.00000000 NULL
P        3.03774066       9.12596179      11.14013886       0.00000000 NULL
P        0.31934181       1.49286052       4.35567591       0.00000000 NULL
P        0.31934181       6.14024075       4.35567591       0.00000000 NULL
P        3.03774066      13.77334202      11.14013886       0.00000000 NULL
P        5.20608102       2.66936096       0.16409068       0.00000000 NULL
P       -1.84899855      10.30246223      15.33172408       0.00000000 NULL
P       -1.84899855      12.59684158      15.33172408       0.00000000 NULL
P        5.20608102       4.96374031       0.16409068       0.00000000 NULL
P        0.75726227       0.43279385      12.63296385       0.00000000 NULL
P        2.59982019       8.06589512       2.86285092       0.00000000 NULL
P        2.59982019      14.83340869       2.86285092       0.00000000 NULL
P        0.75726227       7.20030742      12.63296385       0.00000000 NULL
P        0.42834260      14.62848309       1.20215029       0.00000000 NULL
P        2.92873987       6.99538182      14.29366448       0.00000000 NULL
P        2.92873987       0.63771945      14.29366448       0.00000000 NULL
P        0.42834260       8.27082072       1.20215029       0.00000000 NULL
P       -1.12343441       7.35306555      11.49293002       0.00000000 NULL
P        4.48051688      14.98616682       4.00288474       0.00000000 NULL
P        4.48051688       7.91313699       4.00288474       0.00000000 NULL
P       -1.12343441       0.28003572      11.49293002       0.00000000 NULL
P        2.90743275       1.40187062       4.21341345       0.00000000 NULL
P        0.44964972       9.03497189      11.28240131       0.00000000 NULL
P        0.44964972      13.86433192      11.28240131       0.00000000 NULL
P        2.90743275       6.23123065       4.21341345       0.00000000 NULL
P       -1.26526652       2.66707774      13.59237517       0.00000000 NULL
P        4.62234899      10.30017901       1.90343959       0.00000000 NULL
P        4.62234899      12.59912480       1.90343959       0.00000000 NULL
P       -1.26526652       4.96602353      13.59237517       0.00000000 NULL
P        1.24939052       6.27185469       0.92552545       0.00000000 NULL
P        2.10769195      13.90495596      14.57028931       0.00000000 NULL
P        2.10769195       8.99434785      14.57028931       0.00000000 NULL
P        1.24939052       1.36124658       0.92552545       0.00000000 NULL
P        0.66468031       7.64970284       9.53943101       0.00000000 NULL
P        2.69240215       0.01660157       5.95638375       0.00000000 NULL
P        2.69240215       7.61649970       5.95638375       0.00000000 NULL
P        0.66468031      15.24960097       9.53943101       0.00000000 NULL
52
Lattice="6.046138681596324 0.0 0.028021809169648703 0.0 15.138365836483933 0.0 -2.6630876399398686 0.0 15.83641206201994" Properties=species:S:1:pos:R:3:initial_magmoms:R:1:castep_labels:S:1 n_minim_iter=7 pbc="T T T"
P       -0.25429304      10.24641004      13.18245261       0.00000000 NULL
P        3.63734408       2.67722712       2.68198127       0.00000000 NULL
P        3.63734408       4.89195580       2.68198127       0.00000000 NULL
P       -0.25429304      12.46113871      13.18245261       0.00000000 NULL
P        3.38925867       6.04292954      12.63530851       0.00000000 NULL
P       -0.00620763      13.61211246       3.22912537       0.00000000 NULL
P       -0.00620763       9.09543630       3.22912537       0.00000000 NULL
P        3.38925867       1.52625338      12.63530851       0.00000000 NULL
P        4.76066097       4.87884594       5.19777895       0.00000000 NULL
P       -1.37760993      12.44802886      10.66665492       0.00000000 NULL
P       -1.37760993      10.25951989      10.66665492       0.00000000 NULL
P        4.76066097       2.69033697       5.19777895       0.00000000 NULL
P        2.26953721      10.24708656      13.12171194       0.00000000 NULL
P        1.11351383       2.67790365       2.74272194       0.00000000 NULL
P        1.11351383       4.89127927       2.74272194       0.00000000 NULL
P        2.26953721      12.46046219      13.12171194       0.00000000 NULL
P        3.05097705       9.04947856      11.40609703       0.00000000 NULL
P        0.33207398       1.48029565       4.45833685       0.00000000 NULL
P        0.33207398       6.08888727       4.45833685       0.00000000 NULL
P        3.05097705      13.65807019      11.40609703       0.00000000 NULL
P        5.15647761       2.64654368       0.18996008       0.00000000 NULL
P       -1.77342657      10.21572660      15.67447379       0.00000000 NULL
P       -1.77342657      12.49182216      15.67447379       0.00000000 NULL
P        5.15647761       4.92263924       0.18996008       0.00000000 NULL
P        0.79577900       0.42972554      12.92531352       0.00000000 NULL
P        2.58727204       7.99890846       2.93912036       0.00000000 NULL
P        2.58727204      14.70864030       2.93912036       0.00000000 NULL
P        0.79577900       7.13945738      12.92531352       0.00000000 NULL
P        0.42883713      14.50475850       1.23174735       0.00000000 NULL
P        2.95421390       6.93557559      14.63268653       0.00000000 NULL
P        2.95421390       0.63360733      14.63268653       0.00000000 NULL
P        0.42883713       8.20279025       1.23174735       0.00000000 NULL
P       -1.06948301       7.29111636      11.75034921       0.00000000 NULL
P        4.45253404      14.86029928       4.11408467       0.00000000 NULL
P        4.45253404       7.84724947       4.11408467       0.00000000 NULL
P       -1.06948301       0.27806656      11.75034921       0.00000000 NULL
P        2.89424033       1.38839574       4.32612623       0.00000000 NULL
P        0.48881071       8.95757866      11.53830764       0.00000000 NULL
P        0.48881071      13.74997010      11.53830764       0.00000000 NULL
P        2.89424033       6.18078718       4.32612623       0.00000000 NULL
P       -1.20100894       2.64700261      13.89882395       0.00000000 NULL
P        4.58405998      10.21618552       1.96560993       0.00000000 NULL
P        4.58405998      12.49136323       1.96560993       0.00000000 NULL
P       -1.20100894       4.92218031      13.89882395       0.00000000 NULL
P        1.23973435       6.21614047       0.95042261       0.00000000 NULL
P        2.14331668      13.78532339      14.91401126       0.00000000 NULL
P        2.14331668       8.92222537      14.91401126       0.00000000 NULL
P        1.23973435       1.35304245       0.95042261       0.00000000 NULL
P        0.69289851       7.58752445       9.76374040       0.00000000 NULL
P        2.69015253       0.01834154       6.10069348       0.00000000 NULL
P        2.69015253       7.55084138       6.10069348       0.00000000 NULL
P        0.69289851      15.12002430       9.76374040       0.00000000 NULL
52
Lattice="5.934459312059606 3.5747346242462717e-20 0.07082543187592734 0.0 15.051392444808508 1.9311972393559915e-17 -2.5075676661265747 2.0202468077347085e-17 16.238168612450686" Properties=species:S:1:pos:R:3:initial_magmoms:R:1:castep_labels:S:1 n_minim_iter=8 pbc="T T T"
P       -0.16269258      10.18929304      13.53519937       0.00000000 NULL
P        3.58958422       2.66359682       2.77379468       0.00000000 NULL
P        3.58958422       4.86209940       2.77379468       0.00000000 NULL
P       -0.16269258      12.38779562      13.53519937       0.00000000 NULL
P        3.41074441       6.00402854      12.99750744       0.00000000 NULL
P        0.01614723      13.52972476       3.31148661       0.00000000 NULL