18
Lattice="6.350992501327856 1.8387993482389106e-17 0.46314574498978384 -2.4961514966723044e-17 7.2973112950289645 5.2569805740137116e-17 -2.0623563611581557 -7.213780953096679e-17 9.034321250127707" Properties=species:S:1:pos:R:3:initial_magmoms:R:1:castep_labels:S:1:forces:R:3 n_minim_iter=1 energy=-94.42155220596885 stress="0.0017468921424590568 -3.4428958698631198e-12 -0.006241984967842783 -3.4428958698631198e-12 -0.00019891379917611274 -7.906026424969946e-12 -0.006241984967842783 -7.906026424969946e-12 -0.000628590529760039" free_energy=-94.42155220596885 pbc="T T T"
P        1.21402090       2.40954173       1.48513291       0.00000000 NULL      -0.05454095       0.49117755      -0.03189058
P        3.35833897       4.88776956       6.23386641       0.00000000 NULL      -0.05454095      -0.49117755      -0.03189058
P       -0.84621034       1.11919666       2.65911790       0.00000000 NULL      -0.60829421      -0.07265055       0.16160141
P        1.29810773       6.17811464       7.40785140       0.00000000 NULL      -0.60829421       0.07265055       0.16160141
P        4.70849455       0.74138513       6.42624019       0.00000000 NULL      -0.57094078      -0.27662517      -0.30365530
P        2.56417648       6.55592617       1.67750669       0.00000000 NULL      -0.57094078       0.27662516      -0.30365530
P        5.32262623       6.86997445       4.67462983       0.00000000 NULL       0.01990891       0.08297934       0.11747918
P        1.11595180       0.42733685       8.96021758       0.00000000 NULL       0.01990891      -0.08297934       0.11747918
P       -0.77109313       4.08742918       5.81717261       0.00000000 NULL      -0.39473689      -0.11758940       0.19884468
P        3.43558130       3.20988211       1.53158486       0.00000000 NULL      -0.39473689       0.11758940       0.19884468
P        3.18920730       6.18369229       4.46459803       0.00000000 NULL       0.76913648      -0.57603538      -0.03751099
P       -1.01746713       1.11361900       8.75018578       0.00000000 NULL       0.76913648       0.57603538      -0.03751099
P        3.60951214       2.23153210       3.51523214       0.00000000 NULL       0.36391162      -0.05617742       0.16021201
P       -0.59716229       5.06577920       7.80081990       0.00000000 NULL       0.36391162       0.05617742       0.16021201
P        1.82398325       0.88911248       3.05736475       0.00000000 NULL       0.50666645       0.11520753      -0.21577832
P        3.96830132       6.40819882       7.80609824       0.00000000 NULL       0.50666645      -0.11520753      -0.21577832
P       -0.03622627       1.97791800       6.70129175       0.00000000 NULL      -0.03111065      -0.05249302      -0.04930208
P        4.17044816       5.31939330       2.41570400       0.00000000 NULL      -0.03111065       0.05249302      -0.04930208
18
Lattice="6.326031118773555 1.8196517054758807e-17 0.5911142822679556 -2.404926425107091e-17 7.301968793224247 5.270724457872e-17 -1.8706703657084283 -7.146582355192522e-17 9.013143946778232" Properties=species:S:1:pos:R:3:initial_magmoms:R:1:castep_labels:S:1:forces:R:3 n_minim_iter=2 energy=-94.49868776217559 stress="-0.0010623968329082178 6.187446768926459e-12 0.0014813696349158223 6.187446768926459e-12 0.000627341057932737 3.1304833238065053e-12 0.0014813696349158223 3.1304833238065053e-12 0.002628270745049099" free_energy=-94.49868776217559 pbc="T T T"
P        1.23675050       2.41478328       1.51244421       0.00000000 NULL      -0.04436537       0.32206550       0.15651023
P        3.46443088       4.88718551       6.31457333       0.00000000 NULL      -0.04436537      -0.32206550       0.15651023
P       -0.79303652       1.11936317       2.64923276       0.00000000 NULL      -0.40518643      -0.14794208      -0.05250957
P        1.43464386       6.18260562       7.45136188       0.00000000 NULL      -0.40518644       0.14794208      -0.05250957
P        4.80724570       0.73977246       6.53223004       0.00000000 NULL      -0.43786682      -0.06908314      -0.08337068
P        2.57956532       6.56219633       1.73010093       0.00000000 NULL      -0.43786682       0.06908314      -0.08337068
P        5.38754987       6.87498490       4.79227795       0.00000000 NULL       0.11177245       0.00823687      -0.05733183
P        1.28919913       0.42698390       9.00329279       0.00000000 NULL       0.11177245      -0.00823687      -0.05733183
P       -0.65359595       4.08915131       5.81610901       0.00000000 NULL      -0.16688191      -0.17464157       0.18792916
P        3.44475480       3.21281748       1.60509418       0.00000000 NULL      -0.16688191       0.17464157       0.18792916
P        3.26701966       6.18329550       4.53808060       0.00000000 NULL       0.76522898      -0.61660745       0.04616011
P       -0.83133108       1.11867329       8.74909543       0.00000000 NULL       0.76522898       0.61660745       0.04616010
P        3.66307705       2.23253277       3.59644149       0.00000000 NULL      -0.04744580       0.04875358       0.09642163
P       -0.43527370       5.06943602       7.80745632       0.00000000 NULL      -0.04744580      -0.04875358       0.09642163
P        1.87903007       0.89054866       3.09905174       0.00000000 NULL       0.40229572       0.21513392      -0.19798715
P        4.10671045       6.41142013       7.90118086       0.00000000 NULL       0.40229572      -0.21513392      -0.19798715
P        0.09767092       1.97878458       6.71505863       0.00000000 NULL      -0.17755081      -0.23426714      -0.09582190
P        4.19602166       5.32318421       2.50404379       0.00000000 NULL      -0.17755080       0.23426714      -0.09582190
18
Lattice="6.346753306123727 1.8294462885364026e-17 0.5988746213689268 -2.3836471616926226e-17 7.278207199754846 5.202937005090755e-17 -1.8568699441047616 -7.114463898331938e-17 8.883004539857822" Properties=species:S:1:pos:R:3:initial_magmoms:R:1:castep_labels:S:1:forces:R:3 n_minim_iter=3 energy=-94.54141544332485 stress="-0.002692392312308561 -3.127500676504525e-12 0.0017901531262058856 -3.127500676504525e-12 -0.004986129638990776 -7.108267111044136e-12 0.0017901531262058856 -7.108267111044136e-12 -0.00908617570487126" free_energy=-94.54141544332485 pbc="T T T"
P        1.24309880       2.41328382       1.49646607       0.00000000 NULL      -0.05016796       0.50807409       0.34241562
P        3.48804048       4.86492338       6.23740565       0.00000000 NULL      -0.05016796      -0.50807409       0.34241562
P       -0.79767513       1.11342431       2.61003036       0.00000000 NULL      -0.27749659       0.01235972      -0.26659608
P        1.44726656       6.16478289       7.35096994       0.00000000 NULL      -0.27749659      -0.01235972      -0.26659608
P        4.82789212       0.73530201       6.45083802       0.00000000 NULL      -0.46204204       0.14505897       0.00154428
P        2.58295044       6.54290519       1.70989843       0.00000000 NULL      -0.46204204      -0.14505897       0.00154428
P        5.41606228       6.85306287       4.73898118       0.00000000 NULL       0.16531522      -0.22715146      -0.11451268
P        1.31425065       0.42514433       8.88104614       0.00000000 NULL       0.16531522       0.22715146      -0.11451268
P       -0.64672004       4.07300400       5.73672598       0.00000000 NULL      -0.16909582      -0.27764559      -0.03320121
P        3.45509159       3.20520320       1.59466102       0.00000000 NULL      -0.16909582       0.27764559      -0.03320121
P        3.30035542       6.15248795       4.48416301       0.00000000 NULL       0.70581716      -0.45931291      -0.10147014
P       -0.80145620       1.12571925       8.62622797       0.00000000 NULL       0.70581716       0.45931292      -0.10147014
P        3.68305223       2.22569745       3.55760392       0.00000000 NULL      -0.06221457      -0.05785790       0.30428696
P       -0.41875939       5.05250975       7.69966888       0.00000000 NULL      -0.06221457       0.05785790       0.30428696
P        1.89887165       0.89102896       3.05742247       0.00000000 NULL       0.29564564       0.24063131       0.03034944
P        4.14381333       6.38717824       7.79836205       0.00000000 NULL       0.29564564      -0.24063131       0.03034944
P        0.10996204       1.96896450       6.62028052       0.00000000 NULL      -0.14576105      -0.17830940      -0.16281620
P        4.21177366       5.30924270       2.47821556       0.00000000 NULL      -0.14576105       0.17830940      -0.16281620
18
Lattice="6.433267433976441 1.851846669596638e-17 0.5984797954520201 -2.406893728020131e-17 7.332713170283513 5.1882757755685074e-17 -1.8838950231170446 -7.173033240317489e-17 8.860649002674332" Properties=species:S:1:pos:R:3:initial_magmoms:R:1:castep_labels:S:1:forces:R:3 n_minim_iter=4 energy=-94.65944981033894 stress="0.007677112987180633 -3.764411462545109e-12 0.003000606778756073 -3.764411462545109e-12 0.002478050555321928 2.9334434358812855e-12 0.003000606778756073 2.9334434358812855e-12 -0.006557924372084637" free_energy=-94.65944981033894 pbc="T T T"
P        1.25805907       2.44758403       1.49904026       0.00000000 NULL       0.11768075       0.41964770       0.39902096
P        3.53274527       4.88512914       6.22860466       0.00000000 NULL       0.11768075      -0.41964770       0.39902096
P       -0.82713318       1.11722629       2.60094433       0.00000000 NULL      -0.17530499       0.11633572      -0.26079261
P        1.44755303       6.21548688       7.33050873       0.00000000 NULL      -0.17530498      -0.11633572      -0.26079261
P        4.87262891       0.73760689       6.43023728       0.00000000 NULL      -0.25534828       0.12850812       0.12007584
P        2.59794270       6.59510628       1.70067288       0.00000000 NULL      -0.25534828      -0.12850812       0.12007584
P        5.49333024       6.90377606       4.72701649       0.00000000 NULL       0.02409748      -0.21300426      -0.07197227
P        1.33474901       0.42893711       8.85810110       0.00000000 NULL       0.02409748       0.21300426      -0.07197227
P       -0.66536522       4.09592882       5.72849117       0.00000000 NULL      -0.27261118      -0.25183589      -0.00449138
P        3.49321601       3.23678435       1.59740657       0.00000000 NULL      -0.27261118       0.25183589      -0.00449138
P        3.37655306       6.17396321       4.47508746       0.00000000 NULL       0.69919576      -0.32234969      -0.19433238
P       -0.78202817       1.15874996       8.60617206       0.00000000 NULL       0.69919576       0.32234969      -0.19433238
P        3.73421529       2.24283436       3.55526881       0.00000000 NULL      -0.02095103      -0.22131281       0.23632702
P       -0.42436593       5.08987881       7.68635341       0.00000000 NULL      -0.02095103       0.22131281       0.23632702
P        1.94111347       0.90611068       3.04395598       0.00000000 NULL       0.19425439       0.32925144       0.05103431
P        4.21579967       6.42660249       7.77352038       0.00000000 NULL       0.19425439      -0.32925144       0.05103431
P        0.10397564       1.97572045       6.59960651       0.00000000 NULL      -0.31101290      -0.20740297      -0.27486949
P        4.26255686       5.35699272       2.46852191       0.00000000 NULL      -0.31101290       0.20740297      -0.27486949
18
Lattice="6.384583760151788 1.8390585630099062e-17 0.5547198649410354 -2.4364191047747398e-17 7.316563119325026 5.2214110424968437e-17 -1.9356055683523912 -7.177578644744571e-17 8.932926681285691" Properties=species:S:1:pos:R:3:initial_magmoms:R:1:castep_labels:S:1:forces:R:3 n_minim_iter=5 energy=-94.87968602476047 stress="-0.0034383570546222407 2.9453280483376247e-12 0.0013786167144571664 2.9453280483376247e-12 9.478786003807296e-05 -2.755850078037398e-13 0.0013786167144571664 -2.755850078037398e-13 -0.003902100365588768" free_energy=-94.87968602476047 pbc="T T T"
P        1.23638942       2.47505722       1.51346368       0.00000000 NULL       0.10897921       0.30112654       0.24078422
P        3.46087852       4.84150590       6.25728695       0.00000000 NULL       0.10897921      -0.30112654       0.24078422
P       -0.87536675       1.10711789       2.61845456       0.00000000 NULL       0.10804567      -0.03590836      -0.26504463
P        1.34912235       6.20944523       7.36227783       0.00000000 NULL       0.10804566       0.03590836      -0.26504463
P        4.75374409       0.73041873       6.42719190       0.00000000 NULL      -0.17589560       0.03068832       0.04107581
P        2.52925499       6.58614439       1.68336862       0.00000000 NULL      -0.17589560      -0.03068832       0.04107581
P        5.42862892       6.88637630       4.71497338       0.00000000 NULL       0.40070426      -0.03223801       0.27826352
P        1.26853426       0.43018682       8.90407679       0.00000000 NULL       0.40070426       0.03223801       0.27826352
P       -0.72113910       4.07126163       5.78300640       0.00000000 NULL      -0.13930773      -0.24896863       0.09008842
P        3.43895556       3.24530149       1.59390300       0.00000000 NULL      -0.13930773       0.24896863       0.09008842
P        3.38493363       6.11228954       4.48069905       0.00000000 NULL       0.06931455      -0.30619365      -0.37571518
P       -0.77516103       1.20427358       8.66980246       0.00000000 NULL       0.06931455       0.30619365      -0.37571518
P        3.68563859       2.23702048       3.56319655       0.00000000 NULL       0.01395341       0.11464742       0.23527435
P       -0.47445607       5.07954264       7.75229995       0.00000000 NULL       0.01395341      -0.11464741       0.23527435
P        1.93839079       0.92214018       3.03776141       0.00000000 NULL      -0.13879642       0.16755813       0.04362966
P        4.16287988       6.39442294       7.78158468       0.00000000 NULL      -0.13879642      -0.16755813       0.04362966
P        0.04106398       1.95501672       6.63230843       0.00000000 NULL      -0.24699735      -0.06790753      -0.28835618
P        4.20115865       5.36154640       2.44320502       0.00000000 NULL      -0.24699735       0.06790753      -0.28835617
18
Lattice="6.4440462160576475 1.877468956979334e-17 0.5576544456466476 -2.3808067899190398e-17 7.19180598502227 5.2631049076969965e-17 -1.9554651034773114 -7.071939859490307e-17 8.997716069127938" Properties=species:S:1:pos:R:3:initial_magmoms:R:1:castep_labels:S:1:forces:R:3 n_minim_iter=6 energy=-94.92038613061428 stress="0.0012441510523222956 1.4508332876160737e-12 0.0021528391640085755 1.4508332876160737e-12 -0.006837120991171803 1.6433498532574063e-12 0.0021528391640085755 1.6433498532574063e-12 -0.0015657632210096977" free_energy=-94.92038613061428 pbc="T T T"
P        1.24948119       2.44347884       1.52943631       0.00000000 NULL       0.11107165       0.42540765       0.20507717
P        3.49377174       4.74832715       6.30712157       0.00000000 NULL       0.11107165      -0.42540765       0.20507717
P       -0.89003533       1.08582133       2.63381895       0.00000000 NULL       0.09733806       0.03297007      -0.26897368
P        1.35425522       6.10598465       7.41150421       0.00000000 NULL       0.09733806      -0.03297007      -0.26897368
P        4.78651146       0.71562272       6.47067626       0.00000000 NULL      -0.09199554       0.20068743       0.00114033
P        2.54222090       6.47618327       1.69299100       0.00000000 NULL      -0.09199554      -0.20068743       0.00114033
P        5.48614131       6.76949999       4.75354401       0.00000000 NULL       0.23250045      -0.23829619       0.30585156
P        1.28638565       0.42230599       8.97357482       0.00000000 NULL       0.23250045       0.23829619       0.30585156
P       -0.73584286       3.99550580       5.82979466       0.00000000 NULL      -0.10102127      -0.14436443       0.15980680
P        3.46391280       3.19630018       1.60976384       0.00000000 NULL      -0.10102127       0.14436443       0.15980680
P        3.42904374       5.99359658       4.50658264       0.00000000 NULL       0.20737785      -0.19395331      -0.32993676
P       -0.77071192       1.19820940       8.72661345       0.00000000 NULL       0.20737785       0.19395331      -0.32993676
P        3.72181186       2.20060714       3.59368321       0.00000000 NULL      -0.02027770       0.14761672       0.10986118
P       -0.47794380       4.99119884       7.81371403       0.00000000 NULL      -0.02027770      -0.14761673       0.10986118
P        1.96036631       0.91222990       3.05657612       0.00000000 NULL      -0.16724884       0.12461259       0.10437865
P        4.20465687       6.27957608       7.83426138       0.00000000 NULL      -0.16724884      -0.12461259       0.10437865
P        0.03309596       1.91782500       6.67357990       0.00000000 NULL      -0.26774467      -0.20154631      -0.28720525
P        4.23285162       5.27398099       2.45354909       0.00000000 NULL      -0.26774467       0.20154631      -0.28720525
18
Lattice="6.4341057370070365 2.2290302391606957e-17 0.5329129124088263 -2.0634348825744876e-17 7.214069321895322 5.945213169589634e-17 -1.9848183861429856 -6.303996595281174e-17 8.961874929770232" Properties=species:S:1:pos:R:3:initial_magmoms:R:1:castep_labels:S:1:forces:R:3 n_minim_iter=7 energy=-95.06725173202088 stress="0.00022065703848289138 -1.341102116117366e-11 0.002979895769663426 -1.341102116117366e-11 -0.003589372875995734 -5.239106296654017e-12 0.002979895769663426 -5.239106296654017e-12 -0.0036874678714136615" free_energy=-95.06725173202088 pbc="T T T"
P        1.25772667       2.50130752       1.53999165       0.00000000 NULL      -0.13687189       0.17936041      -0.18126834
P        3.48237035       4.71276180       6.28738557       0.00000000 NULL      -0.13687189      -0.17936041      -0.18126834
P       -0.90775209       1.08125926       2.60388426       0.00000000 NULL       0.11093609      -0.22580293       0.07608858
P        1.31689159       6.13281006       7.35127818       0.00000000 NULL       0.11093609       0.22580293       0.07608858
P        4.72421946       0.71246667       6.41547056       0.00000000 NULL      -0.41435830       0.02693596      -0.08129829
P        2.49957579       6.50160265       1.66807663       0.00000000 NULL      -0.41435830      -0.02693596      -0.08129829
P        5.50467786       6.78877082       4.75533568       0.00000000 NULL      -0.14866494      -0.27475392      -0.45041410
P        1.29521580       0.42529850       8.96981668       0.00000000 NULL      -0.14866494       0.27475392      -0.45041410
P       -0.78484643       3.98159809       5.83231407       0.00000000 NULL       0.18130420      -0.05150628       0.00939438
P        3.42461563       3.23247124       1.61783307       0.00000000 NULL       0.18130420       0.05150628       0.00939438
P        3.44853869       5.95761057       4.43194487       0.00000000 NULL       0.44240524      -0.06641024       0.25293377
P       -0.76092337       1.25645876       8.64642588       0.00000000 NULL       0.44240524       0.06641024       0.25293378
P        3.71818690       2.22279664       3.58528643       0.00000000 NULL       0.02964463      -0.02396221       0.17000848
P       -0.49127516       4.99127268       7.79976744       0.00000000 NULL       0.02964463       0.02396221       0.17000848
P        1.94632972       0.93764615       3.02891211       0.00000000 NULL      -0.11580624       0.13666369       0.30675785
P        4.17097339       6.27642317       7.77630603       0.00000000 NULL      -0.11580624      -0.13666369       0.30675785
P       -0.02794338       1.90623847       6.60458866       0.00000000 NULL       0.05141120       0.00879839      -0.10220235
P        4.18151869       5.30783085       2.39010765       0.00000000 NULL       0.05141120      -0.00879839      -0.10220235
18
Lattice="6.397406080039908 2.2211267995262537e-17 0.4597183256320138 -2.130922113738174e-17 7.219457196545922 5.946023769049315e-17 -2.07880876023943 -6.336452897173477e-17 8.986395335048298" Properties=species:S:1:pos:R:3:initial_magmoms:R:1:castep_labels:S:1:forces:R:3 n_minim_iter=8 energy=-95.20467499095005 stress="0.0025826652610861007 -5.854038258729132e-12 0.002253452939340086 -5.854038258729132e-12 -0.0019354003905295777 1.255578487599146e-12 0.002253452939340086 1.255578487599146e-12 -0.0015589761927920433" free_energy=-95.20467499095005 pbc="T T T"
P        1.23593209       2.55543286       1.50090107       0.00000000 NULL      -0.05975755       0.13437021       0.05050354
P        3.39523075       4.66402434       6.22395790       0.00000000 NULL      -0.05975755      -0.13437021       0.05050354
P       -0.91305312       1.04032359       2.62370242       0.00000000 NULL      -0.25809311      -0.03616940       0.03621293
P        1.24624554       6.17913361       7.34675925       0.00000000 NULL      -0.25809311       0.03616940       0.03621293
P        4.55588281       0.68837850       6.33691160       0.00000000 NULL      -0.17916886      -0.01449641       0.03167718
P        2.39658415       6.53107870       1.61385476       0.00000000 NULL      -0.17916886       0.01449641       0.03167718
P        5.45078781       6.78139902       4.70307010       0.00000000 NULL      -0.14350914      -0.46203542       0.02252095
P        1.21268039       0.43805817       8.96640860       0.00000000 NULL      -0.14350914       0.46203542       0.02252095
P       -0.85536245       3.96187145       5.88073118       0.00000000 NULL       0.33198593       0.17966742      -0.09058092
P        3.38274497       3.25758575       1.61739268       0.00000000 NULL       0.33198593      -0.17966742      -0.09058092
P        3.43205245       5.91340791       4.37425331       0.00000000 NULL       0.19444105      -0.00639887       0.04959031
P       -0.80605497       1.30604929       8.63759181       0.00000000 NULL       0.19444105       0.00639887       0.04959031
P        3.69672669       2.24465833       3.57798070       0.00000000 NULL      -0.01459072      -0.32364688       0.01041978
P       -0.54138073       4.97479886       7.84131920       0.00000000 NULL      -0.01459072       0.32364688       0.01041978
P        1.86626332       0.96498172       3.03406163       0.00000000 NULL       0.25887715       0.23626074      -0.05118985
P        4.02556198       6.25447548       7.75711846       0.00000000 NULL       0.25887715      -0.23626074      -0.05118985
P       -0.12743563       1.90914739       6.55926587       0.00000000 NULL      -0.13018474      -0.18281439      -0.05915393
P        4.11067179       5.31030981       2.29592736       0.00000000 NULL      -0.13018474       0.18281439      -0.05915393
18
Lattice="6.37916511415761 2.221489017027842e-17 0.33845866352306236 -2.234745667036727e-17 7.205970765916018 5.958732945704963e-17 -2.24977321899104 -6.379418878433392e-17 9.046667129993825" Properties=species:S:1:pos:R:3:initial_magmoms:R:1:castep_labels:S:1:forces:R:3 n_minim_iter=9 energy=-95.38799437363491 stress="0.006739202918955635 -2.8350759673590283e-12 0.0007184300794014526 -2.8350759673590283e-12 -0.0009627853772310093 -4.554758683120891e-12 0.0007184300794014526 -4.554758683120891e-12 0.0003718116891991387" free_energy=-95.38799437363491 pbc="T T T"
P        1.20249686       2.61996004       1.44684446       0.00000000 NULL       0.36362242       0.16300304       0.22082601
P        3.26719281       4.58601073       6.13940736       0.00000000 NULL       0.36362242      -0.16300304       0.22082601
P       -0.97479709       0.97851499       2.67442180       0.00000000 NULL      -0.12050907      -0.47940934       0.20221955
P        1.08989886       6.22745577       7.36698469       0.00000000 NULL      -0.12050907       0.47940934       0.20221955
P        4.32399449       0.63353689       6.23562588       0.00000000 NULL       0.20101759       0.09514043      -0.12909287
P        2.25929855       6.57243388       1.54306298       0.00000000 NULL       0.20101759      -0.09514043      -0.12909287
P        5.38050317       6.69614132       4.66443108       0.00000000 NULL      -0.27460364      -0.07296887      -0.04580615
P        1.06603401       0.50982945       9.01853532       0.00000000 NULL      -0.27460364       0.07296887      -0.04580615
P       -0.91556367       3.96536457       5.94412683       0.00000000 NULL       0.00186920       0.23175774      -0.16419333
P        3.39890550       3.24060620       1.59002260       0.00000000 NULL       0.00186920      -0.23175774      -0.16419333
P        3.37891484       5.85033185       4.28100707       0.00000000 NULL       0.10973585      -0.23144207       0.02957273
P       -0.93555433       1.35563891       8.63511130       0.00000000 NULL       0.10973585       0.23144207       0.02957273
P        3.67989482       2.21815455       3.55370545       0.00000000 NULL      -0.16900744       0.01940106       0.10360214
P       -0.63457434       4.98781622       7.90780968       0.00000000 NULL      -0.16900744      -0.01940106       0.10360214
P        1.79312612       1.02442494       3.01584146       0.00000000 NULL       0.13598748       0.16534771      -0.25032690
P        3.85782207       6.18154583       7.70840436       0.00000000 NULL       0.13598748      -0.16534771      -0.25032690
P       -0.30077000       1.89170069       6.51235715       0.00000000 NULL      -0.24811240      -0.24296353       0.03319882
P        4.01369916       5.31427008       2.15825292       0.00000000 NULL      -0.24811240       0.24296353       0.03319882
18
Lattice="6.3278326224812425 2.2155161791758844e-17 0.235412131133203 -2.3351917772340336e-17 7.218495845652336 6.099799783462264e-17 -2.3882655175193994 -6.323952733052524e-17 9.164284453386697" Properties=species:S:1:pos:R:3:initial_magmoms:R:1:castep_labels:S:1:forces:R:3 n_minim_iter=10 energy=-95.5808833822158 stress="0.009331033997033934 -2.1325425770755367e-12 -0.0017412601647013772 -2.1325425770755367e-12 0.001354250207134212 -8.1853117759377e-12 -0.0017412601647013772 -8.1853117759377e-12 0.0008764915647578517" free_energy=-95.5808833822158 pbc="T T T"
P        1.19670707       2.69514097       1.41823732       0.00000000 NULL       0.37609992      -0.01900544       0.31461208
P        3.16649062       4.52335487       6.11808561       0.00000000 NULL       0.37609992       0.01900543       0.31461208
P       -1.02272628       0.87071043       2.76059188       0.00000000 NULL      -0.27776404      -0.22409817      -0.01530054
P        0.94705728       6.34778541       7.46044018       0.00000000 NULL      -0.27776404       0.22409817      -0.01530054
P        4.10789743       0.58648700       6.17741652       0.00000000 NULL       0.35568276       0.11599077      -0.08449429
P        2.13811388       6.63200884       1.47756823       0.00000000 NULL       0.35568276      -0.11599077      -0.08449429
P        5.27841374       6.64966535       4.66216344       0.00000000 NULL      -0.27877255      -0.10636343       0.20023473
P        0.92036467       0.56883050       9.12659960       0.00000000 NULL      -0.27877255       0.10636343       0.20023473
P       -0.96016899       3.99672649       6.02808616       0.00000000 NULL       0.07672087       0.00845711       0.11799687
P        3.39788008       3.22176936       1.56365000       0.00000000 NULL       0.07672087      -0.00845711       0.11799687
P        3.30556123       5.78793047       4.22930536       0.00000000 NULL       0.00958901      -0.41125112       0.05730464
P       -1.05248784       1.43056537       8.69374152       0.00000000 NULL       0.00958901       0.41125112       0.05730464
P        3.63057081       2.21795543       3.57581606       0.00000000 NULL       0.07827417      -0.05627778      -0.26428101
P       -0.72747826       5.00054041       8.04025222       0.00000000 NULL       0.07827417       0.05627778      -0.26428101
P        1.71732652       1.09119923       3.00298426       0.00000000 NULL      -0.15856238       0.05567808      -0.41739210
P        3.68711007       6.12729662       7.70283255       0.00000000 NULL      -0.15856238      -0.05567808      -0.41739210
P       -0.46604034       1.87267468       6.52157017       0.00000000 NULL      -0.18126776      -0.14100414       0.09131962
P        3.89200873       5.34582117       2.05713401       0.00000000 NULL      -0.18126776       0.14100414       0.09131962
18
Lattice="6.2561272600988325 2.1973821260265473e-17 0.1619868973709551 -2.4091248110899087e-17 7.219091475628059 6.195399794830801e-17 -2.4830590222443787 -6.369001205509707e-17 9.351196886857338" Properties=species:S:1:pos:R:3:initial_magmoms:R:1:castep_labels:S:1:forces:R:3 n_minim_iter=11 energy=-95.75681617191671 stress="0.014986361486135021 -1.785522583011189e-12 -0.0027468683204335403 -1.785522583011189e-12 0.0025644714755183123 -7.128145983626867e-13 -0.0027468683204335403 -7.128145983626867e-13 0.001723870969802267" free_energy=-95.75681617191671 pbc="T T T"
P        1.19479926       2.74698123       1.41857667       0.00000000 NULL       0.34335801       0.13170098       0.43815786
P        3.08133338       4.47211025       6.17516856       0.00000000 NULL       0.34335801      -0.13170098       0.43815786
P       -1.07003102       0.75704228       2.84954795       0.00000000 NULL      -0.13989340      -0.14191658      -0.19091115
P        0.81650310       6.46204919       7.60613984       0.00000000 NULL      -0.13989340       0.14191658      -0.19091115
P        3.91562629       0.54825216       6.18959095       0.00000000 NULL       0.41257699       0.06932470       0.00065705
P        2.02909217       6.67083932       1.43299905       0.00000000 NULL       0.41257699      -0.06932470       0.00065705