18
Lattice="8.197969999999996 -1.841382768795965e-15 -8.343455257193467e-31 4.098984999999999 7.099650279462712 -3.971627109045589e-31 4.098984999999999 2.3665500931542365 6.810243786799519" Properties=species:S:1:pos:R:3:initial_magmoms:R:1:castep_labels:S:1 n_minim_iter=1 pbc="T T T"
P        6.61198908       4.34437114       0.23309421       0.00000000 NULL
P        9.32760968       3.55396494       0.23309421       0.00000000 NULL
P        8.65431123       6.30096447       0.23309421       0.00000000 NULL
P        6.59314236       3.91843354       5.66434331       0.00000000 NULL
P        9.70590583       3.75061201       5.66434331       0.00000000 NULL
P        8.29486180       6.53025501       5.66434331       0.00000000 NULL
P       11.42730369       6.07953608       1.56672382       0.00000000 NULL
P        5.41725546       6.85656725       1.56672382       0.00000000 NULL
P        7.74935084       1.26319723       1.56672382       0.00000000 NULL
P       11.39200487       4.69543513       5.14528083       0.00000000 NULL
P        6.63357146       7.51804806       5.14528083       0.00000000 NULL
P        6.56833366       1.98581738       5.14528083       0.00000000 NULL
P        6.47891020       5.59695415       4.55054361       0.00000000 NULL
P        8.30938041       2.81242375       4.55054361       0.00000000 NULL
P        9.80561938       5.78992265       4.55054361       0.00000000 NULL
P        6.00010081       0.39701434       0.99397074       0.00000000 NULL
P        4.85409509       4.99773255       0.99397074       0.00000000 NULL
P        1.44275910       1.70490338       0.99397074       0.00000000 NULL
18
Lattice="8.231326939058805 3.993153097646774e-16 -9.864117205046946e-19 4.1156634695294025 7.128538236080132 6.922686575965139e-19 4.115663469529403 2.3761794120267106 6.817286018248998" Properties=species:S:1:pos:R:3:initial_magmoms:R:1:castep_labels:S:1 n_minim_iter=2 pbc="T T T"
P        6.63914959       4.36200876       0.23322382       0.00000000 NULL
P        9.36546868       3.56866783       0.23322382       0.00000000 NULL
P        8.68936254       6.32639989       0.23322382       0.00000000 NULL
P        6.61998846       3.93441188       5.67046949       0.00000000 NULL
P        9.74535900       3.76587224       5.67046949       0.00000000 NULL
P        8.32863335       6.55679235       5.67046949       0.00000000 NULL
P       11.47375809       6.10420396       1.56857644       0.00000000 NULL
P        5.43937913       6.88446401       1.56857644       0.00000000 NULL
P        7.78084359       1.26840851       1.56857644       0.00000000 NULL
P       11.43875688       4.71452386       5.15061142       0.00000000 NULL
P        6.66037801       7.54899212       5.15061142       0.00000000 NULL
P        6.59484592       1.99356050       5.15061142       0.00000000 NULL
P        6.50513365       5.61971965       4.55490571       0.00000000 NULL
P        8.34326707       2.82375117       4.55490571       0.00000000 NULL
P        9.84558009       5.81360565       4.55490571       0.00000000 NULL
P        6.02426243       0.39880926       0.99494200       0.00000000 NULL
P        4.87381677       5.01775968       0.99494200       0.00000000 NULL
P        1.44891120       1.71196930       0.99494200       0.00000000 NULL
18
Lattice="8.6572888379435 3.1134071367725057e-15 3.007651958546245e-17 4.328644418971749 7.497432061558536 -1.7657697563380446e-17 4.32864441897175 2.499144020519513 6.901392277355592" Properties=species:S:1:pos:R:3:initial_magmoms:R:1:castep_labels:S:1 n_minim_iter=3 pbc="T T T"
P        6.98614802       4.58725320       0.23462359       0.00000000 NULL
P        9.84882585       3.75655506       0.23462359       0.00000000 NULL
P        9.13689263       6.65105586       0.23462359       0.00000000 NULL
P        6.96285537       4.13841214       5.74394344       0.00000000 NULL
P       10.24917994       3.96080356       5.74394344       0.00000000 NULL
P        8.75983120       6.89564842       5.74394344       0.00000000 NULL
P       12.06700717       6.41927493       1.59097402       0.00000000 NULL
P        5.72181892       7.24069729       1.59097402       0.00000000 NULL
P        8.18304041       1.33489190       1.59097402       0.00000000 NULL
P       12.03596026       4.95828721       5.21431248       0.00000000 NULL
P        7.00259486       7.94430374       5.21431248       0.00000000 NULL
P        6.93331139       2.09227317       5.21431248       0.00000000 NULL
P        6.83988774       5.91047144       4.60666601       0.00000000 NULL
P        8.77601538       2.96828083       4.60666601       0.00000000 NULL
P       10.35596338       6.11611185       4.60666601       0.00000000 NULL
P        6.33263721       0.42180732       1.00641003       0.00000000 NULL
P        5.12567437       5.27332104       1.00641003       0.00000000 NULL
P        1.52762166       1.80230370       1.00641003       0.00000000 NULL
18
Lattice="8.750919161724166 2.7414239937184745e-15 4.676265817674088e-17 4.375459580862081 7.578518300517153 -1.785679421189648e-17 4.375459580862083 2.526172766839052 6.869736326153785" Properties=species:S:1:pos:R:3:initial_magmoms:R:1:castep_labels:S:1 n_minim_iter=4 pbc="T T T"
P        7.06361139       4.63695693       0.23207847       0.00000000 NULL
P        9.95431012       3.79878844       0.23207847       0.00000000 NULL
P        9.23483596       6.72129122       0.23207847       0.00000000 NULL
P        7.03868882       4.18266152       5.72029811       0.00000000 NULL
P       10.36020278       4.00435257       5.72029811       0.00000000 NULL
P        8.85386588       6.97002252       5.72029811       0.00000000 NULL
P       12.19788487       6.49006989       1.58615818       0.00000000 NULL
P        5.78233049       7.31864322       1.58615818       0.00000000 NULL
P        8.27254212       1.34832348       1.58615818       0.00000000 NULL
P       12.16764863       5.01189323       5.19059749       0.00000000 NULL
P        7.07758714       8.03154621       5.19059749       0.00000000 NULL
P        7.00752170       2.11359716       5.19059749       0.00000000 NULL
P        6.91267754       5.97498205       4.58320751       0.00000000 NULL
P        8.87101331       2.99906333       4.58320751       0.00000000 NULL
P       10.46906663       6.18299122       4.58320751       0.00000000 NULL
P        6.39877038       0.42702939       1.00020507       0.00000000 NULL
P        5.18171567       5.32798301       1.00020507       0.00000000 NULL
P        1.54589269       1.82350590       1.00020507       0.00000000 NULL
18
Lattice="8.783305063798219 2.5654728269791307e-15 3.7877901980423027e-17 4.3916525318991075 7.606565314437758 -4.52001809923118e-18 4.391652531899109 2.5355217714792535 6.8043260593719" Properties=species:S:1:pos:R:3:initial_magmoms:R:1:castep_labels:S:1 n_minim_iter=5 pbc="T T T"
P        7.09164428       4.65426414       0.22809606       0.00000000 NULL
P        9.99007700       3.81441203       0.22809606       0.00000000 NULL
P        9.26819391       6.74445446       0.22809606       0.00000000 NULL
P        7.06534616       4.19736841       5.66878321       0.00000000 NULL
P       10.39890938       4.02008506       5.66878321       0.00000000 NULL
P        8.88565965       6.99567716       5.66878321       0.00000000 NULL
P       12.24372392       6.51634354       1.57378169       0.00000000 NULL
P        5.80142912       7.34520418       1.57378169       0.00000000 NULL
P        8.30476215       1.35158291       1.57378169       0.00000000 NULL
P       12.21351686       5.03040636       5.14138867       0.00000000 NULL
P        7.10339199       8.06201269       5.14138867       0.00000000 NULL
P        7.03300633       2.12071157       5.14138867       0.00000000 NULL
P        6.93695017       5.99796670       4.53740069       0.00000000 NULL
P        8.90374351       3.00859172       4.53740069       0.00000000 NULL
P       10.50922151       6.20657221       4.53740069       0.00000000 NULL
P        6.41983140       0.42900212       0.98873140       0.00000000 NULL
P        5.20186263       5.34523602       0.98873140       0.00000000 NULL
P        1.55326356       1.83232717       0.98873140       0.00000000 NULL
18
Lattice="8.791022212550113 1.6265361749118194e-15 3.495637909342281e-17 4.395511106275055 7.613248561301681 -6.786147098568212e-18 4.395511106275056 2.537749520433894 6.76895706657781" Properties=species:S:1:pos:R:3:initial_magmoms:R:1:castep_labels:S:1 n_minim_iter=6 pbc="T T T"
P        7.09871553       4.65839957       0.22603328       0.00000000 NULL
P        9.99839428       3.81846820       0.22603328       0.00000000 NULL
P        9.27595681       6.74962935       0.22603328       0.00000000 NULL
P        7.07182107       4.20066631       5.64066977       0.00000000 NULL
P       10.40825015       4.02404355       5.64066977       0.00000000 NULL
P        8.89299541       7.00178727       5.64066977       0.00000000 NULL
P       12.25489375       6.52327375       1.56684665       0.00000000 NULL
P        5.80527676       7.35141243       1.56684665       0.00000000 NULL
P        8.31289612       1.35181094       1.56684665       0.00000000 NULL
P       12.22455836       5.03480008       5.11478408       0.00000000 NULL
P        7.10950047       8.06937805       5.11478408       0.00000000 NULL
P        7.03900780       2.12231899       5.11478408       0.00000000 NULL
P        6.94237167       6.00367056       4.51288280       0.00000000 NULL
P        8.91152737       3.01043495       4.51288280       0.00000000 NULL
P       10.51916759       6.21239162       4.51288280       0.00000000 NULL
P        6.42425160       0.42951754       0.98268259       0.00000000 NULL
P        5.20692330       5.34880632       0.98268259       0.00000000 NULL
P        1.55535840       1.83492470       0.98268259       0.00000000 NULL
18
Lattice="8.875004369730865 7.913644254488694e-16 1.718562022199297e-16 4.437502184865433 7.685979242884832 5.217723260603173e-17 4.437502184865433 2.5619930809616105 6.388760922183478" Properties=species:S:1:pos:R:3:initial_magmoms:R:1:castep_labels:S:1 n_minim_iter=7 pbc="T T T"
P        7.17550914       4.70320240       0.20425522       0.00000000 NULL
P       10.08916141       3.86257200       0.20425522       0.00000000 NULL
P        9.36034255       6.80618408       0.20425522       0.00000000 NULL
P        7.14216168       4.23651016       5.33743601       0.00000000 NULL
P       10.51000247       4.06703837       5.33743601       0.00000000 NULL
P        8.97284895       7.06840995       5.33743601       0.00000000 NULL
P       12.37677764       6.59909355       1.49128235       0.00000000 NULL
P        5.84663726       7.41905709       1.49128235       0.00000000 NULL
P        8.40159820       1.35380785       1.49128235       0.00000000 NULL
P       12.34476764       5.08256605       4.82885592       0.00000000 NULL
P        7.17599360       8.14959936       4.82885592       0.00000000 NULL
P        7.10425186       2.13979307       4.82885592       0.00000000 NULL
P        7.00100398       6.06576885       4.25017886       0.00000000 NULL
P        8.99639682       3.03016288       4.25017886       0.00000000 NULL
P       10.62761229       6.27602676       4.25017886       0.00000000 NULL
P        6.47241183       0.43504624       0.91840812       0.00000000 NULL
P        5.26203736       5.38774995       0.91840812       0.00000000 NULL
P        1.57805736       1.86318305       0.91840812       0.00000000 NULL
18
Lattice="8.974608486558974 1.7442008186596877e-15 2.1939193933942432e-16 4.487304243279486 7.7722389383794885 -3.9921591369576596e-17 4.487304243279487 2.590746312793163 5.934762647195802" Properties=species:S:1:pos:R:3:initial_magmoms:R:1:castep_labels:S:1 n_minim_iter=8 pbc="T T T"
P        7.26329709       4.75340969       0.18064027       0.00000000 NULL
P       10.20099488       3.91349495       0.18064027       0.00000000 NULL
P        9.45953349       6.87757324       0.18064027       0.00000000 NULL
P        7.22466194       4.27895956       4.96783069       0.00000000 NULL
P       10.63119832       4.11726100       4.96783069       0.00000000 NULL
P        9.06796519       7.14825732       4.96783069       0.00000000 NULL
P       12.52252186       6.68947197       1.39383439       0.00000000 NULL
P        5.89470338       7.50008607       1.39383439       0.00000000 NULL
P        8.50660021       1.35491984       1.39383439       0.00000000 NULL
P       12.48692518       5.13867454       4.48822241       0.00000000 NULL
P        7.25553169       8.24465715       4.48822241       0.00000000 NULL
P        7.18136859       2.16114619       4.48822241       0.00000000 NULL
P        7.06855677       6.13938582       3.94161786       0.00000000 NULL
P        9.09807450       3.05185682       3.94161786       0.00000000 NULL
P       10.75719418       6.35323524       3.94161786       0.00000000 NULL
P        6.53253246       0.44027314       0.84805503       0.00000000 NULL
P        5.32705452       5.43720249       0.84805503       0.00000000 NULL
P        1.60232573       1.89476330       0.84805503       0.00000000 NULL
18
Lattice="9.112056097777351 8.113722443739643e-16 2.2136207027411776e-16 4.556028048888676 7.8912720613840905 -8.299121926219604e-17 4.556028048888676 2.6304240204613634 5.774318849709218" Properties=species:S:1:pos:R:3:initial_magmoms:R:1:castep_labels:S:1 n_minim_iter=9 pbc="T T T"
P        7.37684123       4.82390174       0.17268315       0.00000000 NULL
P       10.35807012       3.97658104       0.17268315       0.00000000 NULL
P        9.60125693       6.98206134       0.17268315       0.00000000 NULL
P        7.33771483       4.34118796       4.83465660       0.00000000 NULL
P       10.79567572       4.18405347       4.83465660       0.00000000 NULL
P        9.20277774       7.25730269       4.83465660       0.00000000 NULL
P       12.71683070       6.79843225       1.35818006       0.00000000 NULL
P        5.97808181       7.61388232       1.35818006       0.00000000 NULL
P        8.64125578       1.37022955       1.35818006       0.00000000 NULL
P       12.67984581       5.21657855       4.36820169       0.00000000 NULL
P        7.36649975       8.37277931       4.36820169       0.00000000 NULL
P        7.28982273       2.19318626       4.36820169       0.00000000 NULL
P        7.17112973       6.23637981       3.83268945       0.00000000 NULL
P        9.23768399       3.09219062       3.83268945       0.00000000 NULL
P       10.92735457       6.45397370       3.83268945       0.00000000 NULL
P        6.62761753       0.44557944       0.82609724       0.00000000 NULL
P        5.41236421       5.51689543       0.82609724       0.00000000 NULL
P        1.62810240       1.92879719       0.82609724       0.00000000 NULL
18
Lattice="9.118990976983204 -8.557948952424149e-16 2.333298422562607e-16 4.559495488491604 7.897277842948535 -6.990361298496743e-17 4.559495488491603 2.632425947649511 5.623040358246341" Properties=species:S:1:pos:R:3:initial_magmoms:R:1:castep_labels:S:1 n_minim_iter=10 pbc="T T T"
P        7.38326896       4.82521387       0.16532293       0.00000000 NULL
P       10.36758968       3.98149155       0.16532293       0.00000000 NULL
P        9.60611428       6.98785026       0.16532293       0.00000000 NULL
P        7.34635918       4.34063167       4.70797587       0.00000000 NULL
P       10.80570506       4.19181784       4.70797587       0.00000000 NULL
P        9.20490868       7.26210617       4.70797587       0.00000000 NULL
P       12.72882006       6.81029373       1.32377017       0.00000000 NULL
P        5.97568454       7.61833467       1.32377017       0.00000000 NULL
P        8.65246832       1.36592729       1.32377017       0.00000000 NULL
P       12.68950584       5.21973799       4.25510283       0.00000000 NULL
P        7.37280333       8.37956543       4.25510283       0.00000000 NULL
P        7.29466375       2.19525227       4.25510283       0.00000000 NULL
P        7.17146988       6.24479557       3.73088661       0.00000000 NULL
P        9.24409540       3.08827731       3.73088661       0.00000000 NULL
P       10.94140764       6.46148280       3.73088661       0.00000000 NULL
P        6.62879324       0.44290343       0.80618917       0.00000000 NULL
P        5.42102873       5.51925163       0.80618917       0.00000000 NULL
P        1.62866448       1.93512278       0.80618917       0.00000000 NULL
18
Lattice="9.205325232693598 2.2127514429939804e-15 2.564427666987736e-16 4.602662616346798 7.97204550161056 -5.956127017725857e-17 4.602662616346799 2.6573485005368536 5.598621258802652" Properties=species:S:1:pos:R:3:initial_magmoms:R:1:castep_labels:S:1 n_minim_iter=11 pbc="T T T"
P        7.45382094       4.86916448       0.16284951       0.00000000 NULL
P       10.46691986       4.02061605       0.16284951       0.00000000 NULL
P        9.69523490       7.05431048       0.16284951       0.00000000 NULL
P        7.41881321       4.37904076       4.68710241       0.00000000 NULL
P       10.90888332       4.23536033       4.68710241       0.00000000 NULL
P        9.28827916       7.32968992       4.68710241       0.00000000 NULL
P       12.85071116       6.87860673       1.31859269       0.00000000 NULL
P        6.02824671       7.68973896       1.31859269       0.00000000 NULL
P        8.73701782       1.37574531       1.31859269       0.00000000 NULL
P       12.81030149       5.26852805       4.23746299       0.00000000 NULL
P        7.44282058       8.45978250       4.23746299       0.00000000 NULL
P        7.36285361       2.21578045       4.23746299       0.00000000 NULL
P        7.23594001       6.30612591       3.71363501       0.00000000 NULL
P        9.33141522       3.11344492       3.71363501       0.00000000 NULL
P       11.04862046       6.52452018       3.71363501       0.00000000 NULL
P        6.68934862       0.44457703       0.80451137       0.00000000 NULL
P        5.47563592       5.57085733       0.80451137       0.00000000 NULL
P        1.64300330       1.95661114       0.80451137       0.00000000 NULL
18
Lattice="9.20376314448747 1.807337754113389e-15 2.504948010484801e-16 4.601881572243734 7.970692693541101 -7.198955016020936e-17 4.601881572243735 2.6568975645137005 5.560849688128404" Properties=species:S:1:pos:R:3:initial_magmoms:R:1:castep_labels:S:1 n_minim_iter=12 pbc="T T T"
P        7.45254935       4.86700635       0.16030419       0.00000000 NULL
P       10.46630047       4.02059389       0.16030419       0.00000000 NULL
P        9.69243960       7.05378515       0.16030419       0.00000000 NULL
P        7.41969825       4.37612683       4.65512885       0.00000000 NULL
P       10.90784015       4.23758376       4.65512885       0.00000000 NULL
P        9.28375102       7.32767479       4.65512885       0.00000000 NULL
P       12.84959995       6.88070988       1.30999896       0.00000000 NULL
P        6.02385675       7.68772505       1.30999896       0.00000000 NULL
P        8.73783272       1.37295045       1.30999896       0.00000000 NULL
P       12.80800255       5.26722824       4.20955826       0.00000000 NULL
P        7.44197154       8.45844146       4.20955826       0.00000000 NULL
P        7.36131533       2.21571568       4.20955826       0.00000000 NULL
P        7.23218688       6.30704822       3.68805805       0.00000000 NULL
P        9.32936886       3.10973346       3.68805805       0.00000000 NULL
P       11.04973368       6.52460371       3.68805805       0.00000000 NULL
P        6.68666887       0.44228203       0.80041861       0.00000000 NULL
P        5.47740124       5.56968409       0.80041861       0.00000000 NULL
P        1.64157460       1.95872657       0.80041861       0.00000000 NULL
18
Lattice="9.226354302296517 1.9915149636603266e-15 2.403908499467059e-16 4.613177151148258 7.990257210104639 -7.606725625666814e-17 4.613177151148259 2.6634190700348803 5.537002327183708" Properties=species:S:1:pos:R:3:initial_magmoms:R:1:castep_labels:S:1 n_minim_iter=13 pbc="T T T"
P        7.47087338       4.87734900       0.15797969       0.00000000 NULL
P       10.49336377       4.03129164       0.15797969       0.00000000 NULL
P        9.71482575       7.07187378       0.15797969       0.00000000 NULL
P        7.44057897       4.38440326       4.63471962       0.00000000 NULL
P       10.93541451       4.25152878       4.63471962       0.00000000 NULL
P        9.30306942       7.34458238       4.63471962       0.00000000 NULL
P       12.88235373       6.90123190       1.30468535       0.00000000 NULL
P        6.03488960       7.70582964       1.30468535       0.00000000 NULL
P        8.76181957       1.37345288       1.30468535       0.00000000 NULL
P       12.83952609       5.27966393       4.19227095       0.00000000 NULL
P        7.46062247       8.47952381       4.19227095       0.00000000 NULL
P        7.37891434       2.22132668       4.19227095       0.00000000 NULL
P        7.24699465       6.32470103       3.67159654       0.00000000 NULL
P        9.35185951       3.11373095       3.67159654       0.00000000 NULL
P       11.08020874       6.54208244       3.67159654       0.00000000 NULL
P        6.70135919       0.44072358       0.79864524       0.00000000 NULL
P        5.49399689       5.58318551       0.79864524       0.00000000 NULL
P        1.64417537       1.96634812       0.79864524       0.00000000 NULL
18
Lattice="9.272237119055815 -1.6789031812574277e-15 2.637040039169071e-16 4.63611855952791 8.029992895015374 -7.152993031030201e-17 4.636118559527908 2.6766642983384576 5.462038943907901" Properties=species:S:1:pos:R:3:initial_magmoms:R:1:castep_labels:S:1 n_minim_iter=14 pbc="T T T"
P        7.50765017       4.89585365       0.15009252       0.00000000 NULL
P       10.55071551       4.05388894       0.15009252       0.00000000 NULL
P        9.75834567       7.11024319       0.15009252       0.00000000 NULL
P        7.48703518       4.39765055       4.57044719       0.00000000 NULL
P       10.99247955       4.28513740       4.57044719       0.00000000 NULL
P        9.33719661       7.37719785       4.57044719       0.00000000 NULL
P       12.95067841       6.94839923       1.28787926       0.00000000 NULL
P        6.05164478       7.74141689       1.28787926       0.00000000 NULL
P        8.81438816       1.37016968       1.28787926       0.00000000 NULL
P       12.90345294       5.30427408       4.13815342       0.00000000 NULL
P        7.49911166       8.52258100       4.13815342       0.00000000 NULL
P        7.41414675       2.23313070       4.13815342       0.00000000 NULL
P        7.27276666       6.36379100       3.61989507       0.00000000 NULL
P        9.39688623       3.11650519       3.61989507       0.00000000 NULL
P       11.14705845       6.57968960       3.61989507       0.00000000 NULL
P        6.72886174       0.43336203       0.79360126       0.00000000 NULL
P        5.53250372       5.61068419       0.79360126       0.00000000 NULL
P        1.64699022       1.98594667       0.79360126       0.00000000 NULL
18
Lattice="9.364079130913868 4.1211305911186573e-16 2.7105470357014324e-16 4.682039565456935 8.109530410419119 -9.109961740235464e-17 4.682039565456934 2.70317680347304 5.4282162672100585" Properties=species:S:1:pos:R:3:initial_magmoms:R:1:castep_labels:S:1 n_minim_iter=15 pbc="T T T"
P        7.57947114       4.93176326       0.13727372       0.00000000 NULL
P       10.66739042       4.09813292       0.13727372       0.00000000 NULL
P        9.84537582       7.18916464       0.13727372       0.00000000 NULL
P        7.58107174       4.42527233       4.53948584       0.00000000 NULL
P       11.10522413       4.35276455       4.53948584       0.00000000 NULL
P        9.40594152       7.44102394       4.53948584       0.00000000 NULL
P       13.08771152       7.04294906       1.28075403       0.00000000 NULL
P        6.08492969       7.81281613       1.28075403       0.00000000 NULL
P        8.91959617       1.36329563       1.28075403       0.00000000 NULL
P       13.03204736       5.35384294       4.11767332       0.00000000 NULL
P        7.57557058       8.60916261       4.11767332       0.00000000 NULL
P        7.48461944       2.25605527       4.11767332       0.00000000 NULL
P        7.32407207       6.44123571       3.59416176       0.00000000 NULL
P        9.48784846       3.12221462       3.59416176       0.00000000 NULL
P       11.28031685       6.65561049       3.59416176       0.00000000 NULL
P        6.78456960       0.41744783       0.80055948       0.00000000 NULL
P        5.61027390       5.66688572       0.80055948       0.00000000 NULL
P        1.65127519       2.02519686       0.80055948       0.00000000 NULL
18
Lattice="9.246069987880684 1.9889236840304155e-16 2.7963346382010295e-16 4.623034993940343 8.007331494673549 -7.492272390540833e-17 4.623034993940342 2.669110498224517 5.35233510920642" Properties=species:S:1:pos:R:3:initial_magmoms:R:1:castep_labels:S:1 n_minim_iter=16 pbc="T T T"
P        7.48186962       4.86544600       0.13116742       0.00000000 NULL
P       10.53760533       4.04676616       0.13116742       0.00000000 NULL
P        9.71873501       7.10245083       0.13116742       0.00000000 NULL
P        7.48995004       4.36567961       4.47627018       0.00000000 NULL
P       10.96637551       4.30364721       4.47627018       0.00000000 NULL
P        9.28188441       7.34533617       4.47627018       0.00000000 NULL
P       12.92560836       6.96281507       1.26287273       0.00000000 NULL
P        5.99936106       7.71249766       1.26287273       0.00000000 NULL
P        8.81324054       1.33935026       1.26287273       0.00000000 NULL
P       12.86706153       5.28587535       4.06172312       0.00000000 NULL
P        7.48090687       8.50026449       4.06172312       0.00000000 NULL
P        7.39024155       2.22852315       4.06172312       0.00000000 NULL
P        7.22556899       6.36461505       3.54365037       0.00000000 NULL
P        9.36743715       3.07521878       3.54365037       0.00000000 NULL
P       11.14520381       6.57482916       3.54365037       0.00000000 NULL
P        6.69520270       0.40715848       0.79194915       0.00000000 NULL
P        5.54585905       5.59463639       0.79194915       0.00000000 NULL
P        1.62804322       2.00553663       0.79194915       0.00000000 NULL
18
Lattice="9.352393532088366 2.897545674989357e-15 2.6295036594455527e-16 4.676196766044181 8.0994103849778 -1.3618081246658526e-16 4.676196766044182 2.6998034616592683 5.380858312434508" Properties=species:S:1:pos:R:3:initial_magmoms:R:1:castep_labels:S:1 n_minim_iter=17 pbc="T T T"
P        7.56820474       4.92012972       0.13089146       0.00000000 NULL
P       10.65972736       4.09419270       0.13089146       0.00000000 NULL
P        9.82924849       7.18449834       0.13089146       0.00000000 NULL
P        7.57773664       4.41533187       4.50015165       0.00000000 NULL
P       11.09212918       4.35484650       4.50015165       0.00000000 NULL
P        9.38731477       7.42864240       4.50015165       0.00000000 NULL
P       13.07508936       7.04447695       1.26970621       0.00000000 NULL
P        6.06654638       7.80112106       1.26970621       0.00000000 NULL
P        8.91554485       1.35322275       1.26970621       0.00000000 NULL
P       13.01618526       5.34629072       4.08369459       0.00000000 NULL
P        7.56667084       8.59920174       4.08369459       0.00000000 NULL
P        7.47432448       2.25332831       4.08369459       0.00000000 NULL
P        7.30681233       6.43816302       3.56204401       0.00000000 NULL
P        9.47576816       3.10880359       3.56204401       0.00000000 NULL
P       11.27460010       6.65185416       3.56204401       0.00000000 NULL
P        6.77111499       0.41071225       0.79717889       0.00000000 NULL
P        5.61114879       5.65860147       0.79717889       0.00000000 NULL
P        1.64632651       2.03009666       0.79717889       0.00000000 NULL
18
Lattice="9.353258605955808 1.5509456244077706e-15 2.624333381666178e-16 4.676629302977903 8.100159560923155 -1.3454531957972907e-16 4.676629302977903 2.7000531869743862 5.375605284791248" Properties=species:S:1:pos:R:3:initial_magmoms:R:1:castep_labels:S:1 n_minim_iter=18 pbc="T T T"
P        7.56851005       4.91942974       0.12967982       0.00000000 NULL
P       10.66191106       4.09480710       0.12967982       0.00000000 NULL
P        9.82935470       7.18608228       0.12967982       0.00000000 NULL
P        7.57970427       4.41486828       4.49584439       0.00000000 NULL
P       11.09327698       4.35678231       4.49584439       0.00000000 NULL
P        9.38679455       7.42866853       4.49584439       0.00000000 NULL
P       13.07705748       7.04722920       1.26847199       0.00000000 NULL
P        6.06490896       7.80144939       1.26847199       0.00000000 NULL
P        8.91780937       1.35164054       1.26847199       0.00000000 NULL
P       13.01749638       5.34662320       4.08010391       0.00000000 NULL
P        7.56745750       8.60017096       4.08010391       0.00000000 NULL
P        7.47482192       2.25352496       4.08010391       0.00000000 NULL
P        7.30581855       6.43976823       3.55839575       0.00000000 NULL
P        9.47660505       3.10714035       3.55839575       0.00000000 NULL
P       11.27735220       6.65341055       3.55839575       0.00000000 NULL
P        6.77071618       0.40947233       0.79716805       0.00000000 NULL
P        5.61328707       5.65887605       0.79716805       0.00000000 NULL
P        1.64588465       2.03181118       0.79716805       0.00000000 NULL
18