13
Lattice="3.253836688702017 -0.2856024160249382 0.4105117384532104 -2.3831011665125956 9.557627650658372 -2.6073978533798847 0.057553294784733124 -4.993288694651063 9.628036753743775" Properties=species:S:1:pos:R:3:initial_magmoms:R:1:castep_labels:S:1:forces:R:3 n_minim_iter=1 energy=-69.65795127786205 stress="-0.006328588185610965 -0.0026304897260039663 0.0059759425037282125 -0.0026304897260039663 0.004967138979453836 -0.0051887063743219115 0.0059759425037282125 -0.0051887063743219115 -0.006913673098884432" free_energy=-69.65795127786205 pbc="T T T"
P       -0.92187668       5.67750293      -1.60588797       0.00000000 NULL      -0.15928078      -0.03733405      -0.18781601
P        0.77226334       7.06903688      -1.39854794       0.00000000 NULL       0.05495995       0.65889850       0.55723598
P       -0.16226708       1.52366306       1.73098256       0.00000000 NULL      -0.09629766      -0.35651502       0.03586827
P        0.95450048      -0.65215960       3.84981775       0.00000000 NULL       0.11054033      -0.14384446      -0.31027792
P        2.64142177       0.67735225       4.36994806       0.00000000 NULL       0.36101350       0.30877706      -0.23931082
P       -1.04936285       9.44303516      -0.95792366       0.00000000 NULL       0.21440379       0.02821970      -0.05820850
P       -0.23962371       4.47752551       5.87947288       0.00000000 NULL      -0.51082210      -0.53653099       0.18514827
P       -1.68249290       6.04801849       3.00924049       0.00000000 NULL       0.88667543       0.21636207      -0.49916336
P       -0.91507949       4.82555844       0.37504231       0.00000000 NULL      -0.13499554      -0.22065215      -0.12107005
P       -2.03758190       3.04918106       5.73942582       0.00000000 NULL      -0.12119089       0.11184285      -0.49428105
P       -0.58018523      -0.83655011       6.38214009       0.00000000 NULL      -0.08441667      -0.04083373       0.26927953
P       -0.17034809       4.47933885       3.56452472       0.00000000 NULL      -0.16249072      -0.21616281       0.62278677
P        0.84047871      -2.23252449       7.44877018       0.00000000 NULL      -0.35809866       0.22777304       0.23980889
13
Lattice="3.290667657160108 -0.26057202955682013 0.37239959971208353 -2.3302217468485438 9.418635053577372 -2.512211582968783 -0.09023784140856402 -4.83771941754295 9.714538318822909" Properties=species:S:1:pos:R:3:initial_magmoms:R:1:castep_labels:S:1:forces:R:3 n_minim_iter=2 energy=-69.74721913544873 stress="0.004375486261517684 0.00421305578696055 0.0014573557948317016 0.00421305578696055 0.003801494709742268 -0.001132422368139804 0.0014573557948317016 -0.001132422368139804 0.0041393703983471" free_energy=-69.74721913544873 pbc="T T T"
P       -0.88443763       5.59667562      -1.55795448       0.00000000 NULL       0.01216666      -0.08687317      -0.23327204
P        0.83905127       6.99111335      -1.34767212       0.00000000 NULL       0.05102805       0.66133628       0.28487681
P       -0.17881945       1.52301808       1.77517682       0.00000000 NULL      -0.30192405      -0.28083740       0.09288898
P        0.91611652      -0.59984824       3.88459846       0.00000000 NULL       0.24676170      -0.10359312      -0.25145039
P        2.62836660       0.73451674       4.40606185       0.00000000 NULL       0.36149824       0.21393189      -0.56537689
P       -0.99827369       9.33053023      -0.85710738       0.00000000 NULL       0.15937596       0.04278735       0.22538844
P       -0.29696252       4.48962535       6.01871079       0.00000000 NULL      -0.47862606      -0.43055902      -0.08408088
P       -1.70273127       6.01125624       3.13580688       0.00000000 NULL       0.38605887       0.27485876      -0.15097245
P       -0.90697685       4.77343909       0.44326896       0.00000000 NULL      -0.17475797      -0.14829427      -0.20601921
P       -2.12165153       3.06983243       5.87822104       0.00000000 NULL      -0.01248085      -0.05464428      -0.17143660
P       -0.67372968      -0.76241809       6.47626966       0.00000000 NULL      -0.42116071       0.15263470       0.24618154
P       -0.19469280       4.46940518       3.67257364       0.00000000 NULL       0.18274303      -0.18653678       0.85102436
P        0.74266618      -2.12269143       7.52533440       0.00000000 NULL      -0.01068288      -0.05421092      -0.03775168
13
Lattice="3.279740079872997 -0.2737026476892907 0.3452483258578075 -2.358608144538996 9.313578124623923 -2.430123002325297 -0.13446000133290936 -4.72486373312492 9.664956615967219" Properties=species:S:1:pos:R:3:initial_magmoms:R:1:castep_labels:S:1:forces:R:3 n_minim_iter=3 energy=-69.78367529026082 stress="-0.0021718467077233338 -0.0008333090508905825 -0.0019681213905402574 -0.0008333090508905825 -0.004650777919564229 0.0015939124838911408 -0.0019681213905402574 0.0015939124838911408 -0.000588286440070468" free_energy=-69.78367529026082 pbc="T T T"
P       -0.90264184       5.53030655      -1.51511676       0.00000000 NULL      -0.08871577      -0.06011002      -0.33807549
P        0.80707116       6.90872022      -1.30311019       0.00000000 NULL       0.13204302       0.66349776       0.28598246
P       -0.20272720       1.51531631       1.78332820       0.00000000 NULL      -0.14365682      -0.00380926       0.03209891
P        0.89022398      -0.57574674       3.86312223       0.00000000 NULL       0.07862880      -0.23999075      -0.19266392
P        2.58765342       0.74131473       4.37705360       0.00000000 NULL       0.53690729       0.29570078      -0.50085800
P       -1.04056687       9.22963908      -0.78753562       0.00000000 NULL      -0.01298729      -0.06717957       0.18111219
P       -0.37159041       4.47473344       6.03708008       0.00000000 NULL      -0.33150675      -0.25773904      -0.10061168
P       -1.74972376       5.97702734       3.17742894       0.00000000 NULL       0.37126545       0.40219507      -0.15654030
P       -0.93656444       4.72746955       0.47744847       0.00000000 NULL      -0.14533011      -0.21839699      -0.07875268
P       -2.17706172       3.08419941       5.89881093       0.00000000 NULL      -0.08838655      -0.24561260      -0.15057856
P       -0.71889687      -0.70961949       6.46616233       0.00000000 NULL      -0.40955128       0.33744078       0.09969755
P       -0.24640653       4.44264541       3.70290664       0.00000000 NULL       0.07489629      -0.32770261       0.85398507
P        0.69550766      -2.05713374       7.49158728       0.00000000 NULL       0.02639371      -0.27829354       0.06520446
13
Lattice="3.3056632355080673 -0.2956657503627149 0.3334461296808965 -2.431277335460993 9.384129210638607 -2.3919180014748775 -0.13306251200147046 -4.728722039320756 9.645173876184565" Properties=species:S:1:pos:R:3:initial_magmoms:R:1:castep_labels:S:1:forces:R:3 n_minim_iter=4 energy=-69.8679095627709 stress="0.007730862647613763 -0.006130664758486294 -0.0027541458560654546 -0.006130664758486294 0.0032093547366688875 0.0006007957542134557 -0.0027541458560654546 0.0006007957542134557 -0.0012290137469421318" free_energy=-69.8679095627709 pbc="T T T"
P       -0.94436802       5.56543511      -1.50743688       0.00000000 NULL      -0.02561329       0.21000778      -0.14449591
P        0.77507037       6.97619376      -1.26727475       0.00000000 NULL       0.10306961       0.35812083       0.03555674
P       -0.22869767       1.52532840       1.79034883       0.00000000 NULL       0.18776018      -0.01819734      -0.04527998
P        0.89627313      -0.58315910       3.84488965       0.00000000 NULL       0.01568624       0.07620016      -0.02847921
P        2.61196591       0.75305671       4.34499984       0.00000000 NULL       0.48169269      -0.04419042      -0.36829717
P       -1.10426268       9.29514543      -0.74731966       0.00000000 NULL      -0.27940066       0.01870991       0.10276572
P       -0.44126970       4.50780689       6.04645154       0.00000000 NULL      -0.05917647      -0.24066390      -0.05793397
P       -1.79077562       6.05158216       3.19019735       0.00000000 NULL       0.17403344      -0.08376392       0.11445407
P       -0.98360442       4.75738420       0.48904690       0.00000000 NULL      -0.17654293      -0.16520207      -0.15955090
P       -2.23480132       3.12889796       5.90239584       0.00000000 NULL      -0.32089418      -0.21291112       0.04927002
P       -0.75690971      -0.68142600       6.47179527       0.00000000 NULL      -0.17128339       0.11560869       0.14922318
P       -0.28670946       4.47341051       3.75382939       0.00000000 NULL       0.14770209       0.17278550       0.47460655
P        0.69012610      -2.06046671       7.48111572       0.00000000 NULL      -0.07703334      -0.18650410      -0.12183914
13
Lattice="3.260944907183099 -0.26071463789754706 0.3437338057411388 -2.3114335651847076 9.309813879432925 -2.385542398012753 -0.15576450084653695 -4.68239546032465 9.667231682571803" Properties=species:S:1:pos:R:3:initial_magmoms:R:1:castep_labels:S:1:forces:R:3 n_minim_iter=5 energy=-69.92822304444593 stress="-0.004006017946708306 0.0028966455522207012 -0.0011807722823016628 0.0028966455522207012 -0.001418536927955835 0.0006901190286822971 -0.0011807722823016628 0.0006901190286822971 -0.0028263500412375585" free_energy=-69.92822304444593 pbc="T T T"
P       -0.88251331       5.52498074      -1.51582424       0.00000000 NULL       0.08464365       0.40737532       0.18321655
P        0.83677322       6.97835811      -1.23781282       0.00000000 NULL      -0.02073571       0.15443266      -0.19576918
P       -0.21223534       1.51439604       1.80122677       0.00000000 NULL       0.07872725       0.40452279      -0.23099616
P        0.89440119      -0.56817817       3.84897893       0.00000000 NULL       0.31634843      -0.01672052       0.13887001
P        2.62122801       0.79647795       4.34475499       0.00000000 NULL       0.03794677      -0.03432632      -0.16772169
P       -0.99827736       9.23858768      -0.72368641       0.00000000 NULL      -0.09095522      -0.31546835      -0.07443459
P       -0.39355745       4.48135070       6.07392854       0.00000000 NULL      -0.14403810       0.07663242       0.04448284
P       -1.67796011       6.02626463       3.20212000       0.00000000 NULL      -0.14652639      -0.26343991       0.29426013
P       -0.93002718       4.71694109       0.49180971       0.00000000 NULL      -0.16527198      -0.12558028      -0.25748281
P       -2.16640993       3.10040109       5.91498499       0.00000000 NULL      -0.17706851      -0.46235934       0.32411809
P       -0.75580809      -0.65859363       6.50044163       0.00000000 NULL      -0.17192323       0.09133768      -0.03863376
P       -0.22598041       4.45205625       3.81567869       0.00000000 NULL       0.47953316       0.26902704       0.08438075
P        0.67568761      -2.03095342       7.50534793       0.00000000 NULL      -0.08068011      -0.18543318      -0.10429018
13
Lattice="3.2626456457005117 -0.2693556813679343 0.36649676191758 -2.3564766514091984 9.245791026987156 -2.4286964035361365 -0.08788396622512239 -4.6401430086922 9.797807521737424" Properties=species:S:1:pos:R:3:initial_magmoms:R:1:castep_labels:S:1:forces:R:3 n_minim_iter=6 energy=-69.95301002178915 stress="-0.005132200054941469 -0.0007351714293135789 0.0007201057553129681 -0.0007351714293135789 -0.0038141682179418965 -0.00032342981092819777 0.0007201057553129681 -0.00032342981092819777 0.005922956794404675" free_energy=-69.95301002178915 pbc="T T T"
P       -0.90936889       5.49263979      -1.54099534       0.00000000 NULL       0.05930496       0.28432926       0.34794429
P        0.80652125       6.93539031      -1.24646032       0.00000000 NULL      -0.00340533       0.10725670      -0.35453024
P       -0.20765030       1.50822958       1.82174302       0.00000000 NULL       0.16024497       0.38767655      -0.10770945
P        0.92414143      -0.56566923       3.90525459       0.00000000 NULL       0.24067086      -0.06545872       0.04983455
P        2.65072242       0.78636336       4.40670100       0.00000000 NULL       0.00394293       0.02869864      -0.23822247
P       -1.03701190       9.16719744      -0.73540913       0.00000000 NULL      -0.06399682      -0.29041927       0.04168466
P       -0.38583131       4.44730218       6.15630417       0.00000000 NULL      -0.07546103       0.16866644      -0.06384774
P       -1.67675651       5.98736326       3.24116363       0.00000000 NULL       0.03250266      -0.21978764       0.47532141
P       -0.94993905       4.67903104       0.48672697       0.00000000 NULL      -0.18502917      -0.04394047      -0.45883144
P       -2.15204014       3.07863859       5.98763204       0.00000000 NULL      -0.22966170      -0.47456227       0.41875584
P       -0.72748695      -0.64252820       6.58915239       0.00000000 NULL       0.03271329       0.11570853       0.02200214
P       -0.21180442       4.42537869       3.88357587       0.00000000 NULL       0.29695003       0.13592549       0.12220616
P        0.71941256      -2.01786427       7.60923684       0.00000000 NULL      -0.26877566      -0.13409323      -0.25460771
13
Lattice="3.294572952928132 -0.2564720638998257 0.37992599000216415 -2.368547619591465 9.1291323585015 -2.384862245191882 -0.05499931418279291 -4.533358400133272 9.774177641381689" Properties=species:S:1:pos:R:3:initial_magmoms:R:1:castep_labels:S:1:forces:R:3 n_minim_iter=7 energy=-70.00270491970419 stress="0.0014929925207778781 0.0009943246891097077 0.003480970046094161 0.0009943246891097077 -0.008353566586333735 0.0036413053742855956 0.003480970046094161 0.0036413053742855956 -0.0018753107911380518" free_energy=-70.00270491970419 pbc="T T T"
P       -0.91045455       5.44257502      -1.50808171       0.00000000 NULL       0.10849979       0.24373876       0.18766553
P        0.82735804       6.88384700      -1.20355168       0.00000000 NULL      -0.05172281       0.06167533      -0.17435627
P       -0.19380719       1.51340177       1.82292168       0.00000000 NULL       0.07348700       0.32345550      -0.31819371
P        0.96758812      -0.53675585       3.90585486       0.00000000 NULL       0.28141936      -0.11694780       0.12478176
P        2.71767258       0.81360761       4.39780368       0.00000000 NULL      -0.18976150       0.04677944      -0.02942335
P       -1.03499485       9.05247055      -0.68210977       0.00000000 NULL       0.10942197      -0.17682725      -0.03103802
P       -0.36902148       4.42737595       6.18353803       0.00000000 NULL      -0.11238764       0.15522467       0.06974321
P       -1.65277756       5.93413169       3.28443432       0.00000000 NULL       0.09003586      -0.04752810       0.38252498
P       -0.96070990       4.61873957       0.48743200       0.00000000 NULL      -0.20026881      -0.09255488      -0.23829739
P       -2.15564117       3.05322222       6.01069954       0.00000000 NULL      -0.06822056      -0.27307625       0.19807537
P       -0.72134017      -0.58930727       6.59389342       0.00000000 NULL       0.00551649       0.11369991      -0.08098216
P       -0.16278821       4.41197852       3.94329326       0.00000000 NULL       0.21985211      -0.16818655      -0.04027373
P        0.74506770      -1.96029971       7.59479018       0.00000000 NULL      -0.26587126      -0.06945278      -0.05022621
13
Lattice="3.2767292503787107 -0.2512630791860903 0.34943336234457706 -2.311975180344475 9.161387312584408 -2.392292212961545 -0.16692667927795604 -4.561681099900517 9.860614310666927" Properties=species:S:1:pos:R:3:initial_magmoms:R:1:castep_labels:S:1:forces:R:3 n_minim_iter=8 energy=-70.05663379358049 stress="-0.001579916099856023 0.0011013241722593796 -0.001710164277424424 0.0011013241722593796 -0.00429349924728996 0.0022127531446512133 -0.001710164277424424 0.0022127531446512133 0.0006107008599795301" free_energy=-70.05663379358049 pbc="T T T"
P       -0.87481336       5.48414181      -1.51139897       0.00000000 NULL       0.07044055       0.08204877       0.10839648
P        0.85561779       6.93962479      -1.23456493       0.00000000 NULL      -0.01690698       0.00914275      -0.16284460
P       -0.20283899       1.52867747       1.82615570       0.00000000 NULL       0.00600854       0.04849063      -0.15336491
P        0.94325592      -0.54428479       3.92722491       0.00000000 NULL       0.20895910      -0.10440575       0.00395829
P        2.68111304       0.81996276       4.37648404       0.00000000 NULL      -0.09533701       0.10327583       0.02946767
P       -1.00589605       9.07202537      -0.68678840       0.00000000 NULL       0.08351764      -0.01817567       0.04518502
P       -0.43968645       4.42722378       6.23262554       0.00000000 NULL       0.02179979       0.04964737       0.11352302
P       -1.65217390       5.94251311       3.33718463       0.00000000 NULL      -0.01305519       0.01802675       0.39299852
P       -0.96729651       4.62039285       0.46884539       0.00000000 NULL      -0.15522694       0.00561407      -0.25538492
P       -2.22010123       3.02814774       6.09067582       0.00000000 NULL      -0.00127639      -0.09498313       0.11458957
P       -0.80254438      -0.59154204       6.66460706       0.00000000 NULL      -0.12607998       0.10159023      -0.02797672
P       -0.16744316       4.43231165       4.00221186       0.00000000 NULL       0.06524340      -0.35708943      -0.16975904
P        0.64407583      -1.98510657       7.64222103       0.00000000 NULL      -0.04808653       0.15681756      -0.03878837
13
Lattice="3.280184803497284 -0.24749318255918598 0.3646240232971041 -2.3086588145242697 9.146356812535547 -2.457809026667451 -0.1395909583211167 -4.593281561788344 9.932865102598619" Properties=species:S:1:pos:R:3:initial_magmoms:R:1:castep_labels:S:1:forces:R:3 n_minim_iter=9 energy=-70.09696985245995 stress="-0.0009245268111693562 0.0008593862377313924 -0.0015205742534598788 0.0008593862377313924 -0.004640537238228056 0.0015151281275101326 -0.0015205742534598788 0.0015151281275101326 5.181666267695297e-05" free_energy=-70.09696985245995 pbc="T T T"
P       -0.86797967       5.49084692      -1.53871244       0.00000000 NULL       0.06172990       0.11385333      -0.08394055
P        0.86249155       6.94742116      -1.27794048       0.00000000 NULL      -0.03364251      -0.04932749      -0.08576895
P       -0.19103630       1.51118886       1.81236327       0.00000000 NULL       0.01690084       0.12973012       0.00759244
P        0.98244350      -0.56353690       3.94666795       0.00000000 NULL       0.01380922      -0.02830011       0.01200075
P        2.70448591       0.81211520       4.39410745       0.00000000 NULL       0.01938087       0.02096757      -0.03367634
P       -0.98912859       9.05098143      -0.73421896       0.00000000 NULL       0.14020892      -0.16282710      -0.02038704
P       -0.42404902       4.37695324       6.25531072       0.00000000 NULL       0.01490351       0.13214534      -0.07857221
P       -1.61599048       5.90914482       3.35122162       0.00000000 NULL      -0.09103227      -0.19246184       0.28524804
P       -0.97989207       4.59843023       0.41024967       0.00000000 NULL      -0.15184689      -0.00526872      -0.11016538
P       -2.20781466       2.98264344       6.10448061       0.00000000 NULL       0.05685296      -0.12230628       0.08388279
P       -0.79527883      -0.61516354       6.70882289       0.00000000 NULL      -0.10449426       0.26135447      -0.12407636
P       -0.13598130       4.38383641       4.00320804       0.00000000 NULL       0.09865484      -0.15642587      -0.02200077
P        0.65235019      -1.99559150       7.68888584       0.00000000 NULL      -0.04142514       0.05886659       0.16986358
13
Lattice="3.2706632736273242 -0.24689377492910516 0.37671357731817606 -2.30989655442335 9.182022385027958 -2.4307428485214855 -0.10469952977730612 -4.572450506471296 9.94571747345344" Properties=species:S:1:pos:R:3:initial_magmoms:R:1:castep_labels:S:1:forces:R:3 n_minim_iter=10 energy=-70.11059402141376 stress="-0.002520760129521202 0.00020516271185015445 -0.0007408278851468652 0.00020516271185015445 -0.0007322813922479931 0.005467486134609884 -0.0007408278851468652 0.005467486134609884 0.000711186679933691" free_energy=-70.11059402141376 pbc="T T T"
P       -0.86679750       5.52167301      -1.52223293       0.00000000 NULL       0.03957028       0.10754597      -0.19854202
P        0.85337684       6.98367812      -1.24809082       0.00000000 NULL      -0.01786155      -0.07807341      -0.06273868
P       -0.18210176       1.52422364       1.82362551       0.00000000 NULL       0.09194205       0.09260063      -0.06772527
P        1.00136825      -0.54909819       3.95720297       0.00000000 NULL      -0.04488213      -0.03575593       0.05356816
P        2.71571113       0.83936794       4.41689184       0.00000000 NULL      -0.00965974      -0.07935717      -0.01430957
P       -0.97858796       9.08875334      -0.69759342       0.00000000 NULL       0.10835997      -0.03810719       0.01690253
P       -0.40720342       4.42279829       6.29909675       0.00000000 NULL       0.03690420       0.03039702      -0.16869671
P       -1.59208315       5.94276415       3.40624329       0.00000000 NULL      -0.03906798      -0.00885144       0.30026194
P       -0.98992981       4.62020969       0.41205943       0.00000000 NULL      -0.16429808      -0.02100824      -0.00919723
P       -2.18238461       3.02091452       6.13424765       0.00000000 NULL       0.05519704      -0.03976215       0.10292681
P       -0.77733426      -0.57881203       6.72863535       0.00000000 NULL      -0.06574521       0.25995241      -0.11879854
P       -0.11534214       4.41378028       4.04077124       0.00000000 NULL       0.06297911      -0.08174639       0.09534723
P        0.66596819      -1.95810674       7.71785461       0.00000000 NULL      -0.05343798      -0.10783410       0.07100135
13
Lattice="3.281018213032837 -0.24095071362782783 0.39648341885571864 -2.303576624271866 9.148128595486739 -2.5517316234237994 -0.07419920767206051 -4.640720379291646 10.049305725203704" Properties=species:S:1:pos:R:3:initial_magmoms:R:1:castep_labels:S:1:forces:R:3 n_minim_iter=11 energy=-70.16384685961718 stress="-0.0013372524524660426 -0.00041676476244033913 -0.0014307741896195574 -0.00041676476244033913 -0.0030307608043619897 0.003004380906431887 -0.0014307741896195574 0.003004380906431887 -0.0001820341934866609" free_energy=-70.16384685961718 pbc="T T T"
P       -0.84934872       5.53381259      -1.60766840       0.00000000 NULL      -0.08658882       0.09525709       0.03501151
P        0.86212201       6.97445859      -1.33057692       0.00000000 NULL       0.06192215      -0.01910470      -0.07829975
P       -0.16217517       1.48932151       1.81455638       0.00000000 NULL       0.23015354       0.09238132      -0.10803416
P        1.03946276      -0.58002363       3.97673866       0.00000000 NULL      -0.03737616      -0.12893305       0.04063112
P        2.76072370       0.80626320       4.42401397       0.00000000 NULL      -0.03731753      -0.06257447       0.03356324
P       -0.92466131       9.02552062      -0.80591294       0.00000000 NULL      -0.00118006      -0.06096819       0.00316924
P       -0.38782395       4.32371511       6.28290613       0.00000000 NULL       0.08243409       0.13608057      -0.01686276
P       -1.54447781       5.83451206       3.42178224       0.00000000 NULL      -0.14013206       0.33819306       0.18550009
P       -1.02776830       4.57812868       0.30818372       0.00000000 NULL      -0.13937583       0.04738812      -0.11482684
P       -2.16006162       2.93135922       6.13102982       0.00000000 NULL       0.01442668      -0.11209375       0.06493216
P       -0.77520825      -0.60502181       6.77012289       0.00000000 NULL      -0.11495037      -0.04733661      -0.07953274
P       -0.06773448       4.32204417       4.02973374       0.00000000 NULL       0.11907462      -0.16761601       0.16407323
P        0.66011996      -1.97890690       7.81792976       0.00000000 NULL       0.04890976      -0.11067338      -0.12932434
13
Lattice="3.282338123338999 -0.2382276422732735 0.4051104090326985 -2.3002579529419203 9.132009762837454 -2.588308812474915 -0.06024021319936488 -4.651700600288922 10.100421428634544" Properties=species:S:1:pos:R:3:initial_magmoms:R:1:castep_labels:S:1:forces:R:3 n_minim_iter=12 energy=-70.18599465874038 stress="-0.0014122490057634233 -0.0004926414580136694 -0.0013434302161165273 -0.0004926414580136694 -0.0028863527744385988 0.002813811377136968 -0.0013434302161165273 0.002813811377136968 -0.0002870762354142412" free_energy=-70.18599465874038 pbc="T T T"
P       -0.85093975       5.54160873      -1.63165671       0.00000000 NULL      -0.06393834       0.03277196      -0.07279598
P        0.86755658       6.96722662      -1.35331818       0.00000000 NULL       0.07876693       0.04744726      -0.13259537
P       -0.13739643       1.47664758       1.81734839       0.00000000 NULL       0.13478576       0.09222472      -0.08095515
P        1.04631949      -0.59002706       3.98999139       0.00000000 NULL       0.03172727      -0.17617544       0.01193057
P        2.77353539       0.79408335       4.44014103       0.00000000 NULL      -0.06379533      -0.03646168      -0.04460580
P       -0.89776405       8.99567562      -0.83821396       0.00000000 NULL       0.00459421      -0.03292990       0.07712858
P       -0.37592756       4.30233182       6.29421835       0.00000000 NULL       0.09687961       0.07833404       0.09116482
P       -1.53255254       5.81568150       3.44954472       0.00000000 NULL       0.01868183       0.14947847       0.15161544
P       -1.05163053       4.56853159       0.26701919       0.00000000 NULL      -0.13929943       0.02265848       0.01940080
P       -2.14487797       2.90611568       6.14288231       0.00000000 NULL      -0.00680014      -0.08825610       0.12585140
P       -0.77814992      -0.61473714       6.79323411       0.00000000 NULL      -0.07912272       0.01918930      -0.02299838
P       -0.04135461       4.28884843       4.05661921       0.00000000 NULL      -0.02607128       0.04225346       0.00981941
P        0.66069229      -1.97370659       7.86303627       0.00000000 NULL       0.01359163      -0.15053457      -0.13296035
13
Lattice="3.284395498385891 -0.24043886067582737 0.4292421350034966 -2.3172614357213357 9.144732984289512 -2.6613825003016154 -0.00229559348617111 -4.6879762892102885 10.209061564906568" Properties=species:S:1:pos:R:3:initial_magmoms:R:1:castep_labels:S:1:forces:R:3 n_minim_iter=13 energy=-70.21430100992255 stress="-0.001300709011213248 -0.00034311389564028154 -0.0012820977900148602 -0.00034311389564028154 -0.0012082516804127648 0.0015466098385108172 -0.0012820977900148602 0.0015466098385108172 -0.0009891567243218982" free_energy=-70.21430100992255 pbc="T T T"
P       -0.87772407       5.57477892      -1.70174710       0.00000000 NULL       0.03798466      -0.10382950       0.25999655
P        0.87134338       6.99244594      -1.40974833       0.00000000 NULL      -0.06893799       0.01320890       0.00697898
P       -0.08371952       1.45666017       1.83195554       0.00000000 NULL       0.03928461       0.09275510      -0.08431355
P        1.07369832      -0.63164055       4.01326995       0.00000000 NULL      -0.03602637      -0.07037197       0.00725714
P        2.79048585       0.76534631       4.46875309       0.00000000 NULL       0.07915672      -0.14745935       0.00133149
P       -0.85598304       8.97911403      -0.88197530       0.00000000 NULL      -0.05299392      -0.00678682       0.06507267
P       -0.33838855       4.28480192       6.35392222       0.00000000 NULL       0.06316232      -0.00290101      -0.01534680
P       -1.49082372       5.80266966       3.50862838       0.00000000 NULL      -0.10851193       0.17417733      -0.09711902
P       -1.12327730       4.57851999       0.20821464       0.00000000 NULL      -0.10064678       0.14289845      -0.12764405
P       -2.10580094       2.88201166       6.18466523       0.00000000 NULL       0.02871334       0.05993723      -0.01010798
P       -0.77027303      -0.63433195       6.85244272       0.00000000 NULL       0.08721676       0.08227699      -0.13429758
P       -0.01212209       4.28109226       4.10413437       0.00000000 NULL       0.10308211      -0.04088806       0.10170398
P        0.67893679      -1.97846863       7.94577038       0.00000000 NULL      -0.07148351      -0.19301729       0.02648818
13
Lattice="3.285794197422291 -0.24252772324094554 0.4449020578038935 -2.331177136187363 9.151569554920364 -2.702544546626323 0.03840125766144975 -4.707467169039444 10.26581403729963" Properties=species:S:1:pos:R:3:initial_magmoms:R:1:castep_labels:S:1:forces:R:3 n_minim_iter=14 energy=-70.22539449870072 stress="-0.0005182987751272633 -0.00047275733788653676 -0.0008978901252110909 -0.00047275733788653676 -0.0006483437583295171 0.0010056253422892042 -0.0008978901252110909 0.0010056253422892042 -0.0011122431658473924" free_energy=-70.22539449870072 pbc="T T T"
P       -0.88818106       5.58001533      -1.71841582       0.00000000 NULL       0.02454642       0.01601772       0.01030920
P        0.86199908       7.00374258      -1.43543466       0.00000000 NULL      -0.06269664      -0.02057873       0.04842639
P       -0.06390603       1.44942043       1.83708514       0.00000000 NULL       0.02746846       0.08193759      -0.06304181
P        1.09056824      -0.65221090       4.02715029       0.00000000 NULL      -0.03916564      -0.06957978       0.00323627
P        2.80701520       0.74363973       4.48709532       0.00000000 NULL       0.08386263      -0.11433050       0.03897476