10
Lattice="5.300359999999998 1.7574317857373654e-15 -9.195725180298014e-16 -1.6852244839315782 5.025319349887879 -9.195725180298035e-16 -1.398143700220529 -1.943528412534644 8.351642386070194" Properties=species:S:1:pos:R:3:initial_magmoms:R:1:castep_labels:S:1 n_minim_iter=1 pbc="T T T"
P        2.22799439       0.03594176       5.53067223       0.00000000 NULL
P       -0.67430360       2.12380918       5.53067223       0.00000000 NULL
P       -0.57851078       0.95149395       1.14836503       0.00000000 NULL
P        1.08605482      -0.24596830       1.14836503       0.00000000 NULL
P       -0.26378124       2.89064963       0.53440740       0.00000000 NULL
P        2.82451912       0.66897504       0.53440740       0.00000000 NULL
P        1.54316080       4.28552368       2.44940058       0.00000000 NULL
P        3.57250314       2.82564679       2.44940058       0.00000000 NULL
P        1.33128449       0.11210789       7.41938613       0.00000000 NULL
P       -0.31698511       1.29784706       7.41938613       0.00000000 NULL
10
Lattice="5.308556843231773 -0.0007542456520966931 -0.0012700641201550773 -1.6885457387473255 5.032851042388167 -0.0012700641201550725 -1.402030528324699 -1.9489314056990101 8.360073954843271" Properties=species:S:1:pos:R:3:initial_magmoms:R:1:castep_labels:S:1 n_minim_iter=2 pbc="T T T"
P        2.23015558       0.03379010       5.53498815       0.00000000 NULL
P       -0.67703075       2.12517411       5.53498815       0.00000000 NULL
P       -0.57981717       0.95255594       1.14942189       0.00000000 NULL
P        1.08747706      -0.24686925       1.14942189       0.00000000 NULL
P       -0.26479930       2.89458380       0.53399713       0.00000000 NULL
P        2.82857283       0.66926066       0.53399713       0.00000000 NULL
P        1.54447040       4.29064514       2.44984957       0.00000000 NULL
P        3.57694246       2.82851678       2.44984957       0.00000000 NULL
P        1.33164072       0.10972088       7.42543364       0.00000000 NULL
P       -0.31936152       1.29742586       7.42543364       0.00000000 NULL
10
Lattice="5.525901237927602 -0.021716732610412313 -0.03469958154373175 -1.777524088655652 5.232252308715053 -0.03469958154373155 -1.5043497824662975 -2.091163121610746 8.576970613645196" Properties=species:S:1:pos:R:3:initial_magmoms:R:1:castep_labels:S:1 n_minim_iter=3 pbc="T T T"
P        2.28775236      -0.02336510       5.64523043       0.00000000 NULL
P       -0.74953274       2.16160992       5.64523043       0.00000000 NULL
P       -0.61463626       0.98071182       1.17672917       0.00000000 NULL
P        1.12524248      -0.27092951       1.17672917       0.00000000 NULL
P       -0.29234716       2.99851522       0.52294037       0.00000000 NULL
P        2.93586986       0.67618679       0.52294037       0.00000000 NULL
P        1.57870281       4.42572716       2.46019823       0.00000000 NULL
P        3.69413092       2.90392153       2.46019823       0.00000000 NULL
P        1.34152464       0.04680663       7.57991437       0.00000000 NULL
P       -0.38215364       1.28679360       7.57991437       0.00000000 NULL
10
Lattice="5.612440325641715 -0.044285268284378634 -0.03510501238881056 -1.826436216974095 5.307125242464293 -0.03510501238881035 -1.519540732407253 -2.1122797227290584 8.51438524926175" Properties=species:S:1:pos:R:3:initial_magmoms:R:1:castep_labels:S:1 n_minim_iter=4 pbc="T T T"
P        2.32377727      -0.03476360       5.60302052       0.00000000 NULL
P       -0.77179370       2.19214136       5.60302052       0.00000000 NULL
P       -0.62929031       0.99524822       1.17333582       0.00000000 NULL
P        1.14368376      -0.28020137       1.17333582       0.00000000 NULL
P       -0.31068690       3.03593870       0.51952976       0.00000000 NULL
P        2.97718244       0.67069733       0.51952976       0.00000000 NULL
P        1.58977197       4.47542016       2.44135459       0.00000000 NULL
P        3.73772591       2.93021596       2.44135459       0.00000000 NULL
P        1.36470697       0.04500826       7.51791418       0.00000000 NULL
P       -0.39122940       1.30820120       7.51791418       0.00000000 NULL
10
Lattice="5.693863168919379 -0.06698910339317454 -0.035289143982063995 -1.8738499381046863 5.377104400680274 -0.03528914398206383 -1.5329837981601664 -2.1309666289735585 8.382088082273661" Properties=species:S:1:pos:R:3:initial_magmoms:R:1:castep_labels:S:1 n_minim_iter=5 pbc="T T T"
P        2.35819295      -0.04759707       5.51380829       0.00000000 NULL
P       -0.79490353       2.22069084       5.51380829       0.00000000 NULL
P       -0.64448348       1.00740054       1.16404909       0.00000000 NULL
P        1.16003607      -0.29074238       1.16404909       0.00000000 NULL
P       -0.33092606       3.06968311       0.51361934       0.00000000 NULL
P        3.01561077       0.66223728       0.51361934       0.00000000 NULL
P        1.60337888       4.52014557       2.40169506       0.00000000 NULL
P        3.77580422       2.95733702       2.40169506       0.00000000 NULL
P        1.38756284       0.04715238       7.39054696       0.00000000 NULL
P       -0.39646346       1.33055278       7.39054696       0.00000000 NULL
10
Lattice="5.737891037318929 -0.0794045637393294 -0.04803692503197945 -1.899619601847816 5.414900184598339 -0.048036925031979275 -1.5601314627422578 -2.168703992765945 8.282636327298476" Properties=species:S:1:pos:R:3:initial_magmoms:R:1:castep_labels:S:1 n_minim_iter=6 pbc="T T T"
P        2.36558161      -0.07613064       5.43070434       0.00000000 NULL
P       -0.82430567       2.21862398       5.43070434       0.00000000 NULL
P       -0.65757233       1.00656453       1.16015363       0.00000000 NULL
P        1.16340499      -0.30341785       1.16015363       0.00000000 NULL
P       -0.34824085       3.08406689       0.50301186       0.00000000 NULL
P        3.03475331       0.65039423       0.50301186       0.00000000 NULL
P        1.61315694       4.53439752       2.34996706       0.00000000 NULL
P        3.78620774       2.97113903       2.34996706       0.00000000 NULL
P        1.38232197       0.03178809       7.27838400       0.00000000 NULL
P       -0.40936417       1.32069886       7.27838400       0.00000000 NULL
10
Lattice="5.765034615530585 -0.08973582589149497 -0.07266419609288358 -1.918044937897789 5.437350480971319 -0.07266419609288341 -1.6023077832551058 -2.2273323563883385 8.24821599163447" Properties=species:S:1:pos:R:3:initial_magmoms:R:1:castep_labels:S:1 n_minim_iter=7 pbc="T T T"
P        2.35770483      -0.12425885       5.37145940       0.00000000 NULL
P       -0.86743208       2.19585379       5.37145940       0.00000000 NULL
P       -0.67239370       0.99448049       1.17192204       0.00000000 NULL
P        1.15666038      -0.32131218       1.17192204       0.00000000 NULL
P       -0.36976396       3.08499082       0.49091918       0.00000000 NULL
P        3.04247247       0.63028173       0.49091918       0.00000000 NULL
P        1.62392498       4.52762400       2.29618413       0.00000000 NULL
P        3.77636207       2.97919470       2.29618413       0.00000000 NULL
P        1.35519340       0.00135229       7.20912617       0.00000000 NULL
P       -0.42959523       1.28530109       7.20912617       0.00000000 NULL
10
Lattice="5.713742826419702 -0.08922389647914379 -0.057436331891839706 -1.9012515903485698 5.3888830364336755 -0.05743633189183956 -1.5649714478795715 -2.1754319482894946 8.117406308093402" Properties=species:S:1:pos:R:3:initial_magmoms:R:1:castep_labels:S:1 n_minim_iter=8 pbc="T T T"
P        2.35802952      -0.10971054       5.28743846       0.00000000 NULL
P       -0.85374192       2.20078720       5.28743846       0.00000000 NULL
P       -0.66599473       0.98090978       1.17813331       0.00000000 NULL
P        1.14175935      -0.31956000       1.17813331       0.00000000 NULL
P       -0.37447286       3.05253132       0.49893786       0.00000000 NULL
P        3.01319450       0.61549683       0.49893786       0.00000000 NULL
P        1.63831204       4.49322511       2.27943421       0.00000000 NULL
P        3.73917387       2.98189824       2.27943421       0.00000000 NULL
P        1.36574336       0.04315157       7.09749402       0.00000000 NULL
P       -0.39331926       1.30859348       7.09749402       0.00000000 NULL
10
Lattice="5.759898323965438 -0.10595555746966602 -0.0620021454150433 -1.9317899526982125 5.427323729171946 -0.06200214541504319 -1.5782055680803522 -2.1938284039764593 8.199015732292322" Properties=species:S:1:pos:R:3:initial_magmoms:R:1:castep_labels:S:1 n_minim_iter=9 pbc="T T T"
P        2.37550596      -0.12465181       5.33248216       0.00000000 NULL
P       -0.87346442       2.21260627       5.33248216       0.00000000 NULL
P       -0.67553834       0.98469190       1.19402223       0.00000000 NULL
P        1.14837955      -0.32740588       1.19402223       0.00000000 NULL
P       -0.38837807       3.06991825       0.50151310       0.00000000 NULL
P        3.03410030       0.60784127       0.50151310       0.00000000 NULL
P        1.64214895       4.51226355       2.29568515       0.00000000 NULL
P        3.75600445       2.99158923       2.29568515       0.00000000 NULL
P        1.37096603       0.03361368       7.16385412       0.00000000 NULL
P       -0.40402274       1.31051262       7.16385412       0.00000000 NULL
10
Lattice="5.75344584216039 -0.10939914342165537 -0.05715683853673802 -1.9330033115639391 5.420111200772267 -0.05715683853673791 -1.5676061985613823 -2.179094456520399 8.189419131437303" Properties=species:S:1:pos:R:3:initial_magmoms:R:1:castep_labels:S:1 n_minim_iter=10 pbc="T T T"
P        2.37934082      -0.12057832       5.32810256       0.00000000 NULL
P       -0.87082159       2.21753728       5.32810256       0.00000000 NULL
P       -0.67496128       0.98280005       1.19803313       0.00000000 NULL
P        1.14640241      -0.32746027       1.19803313       0.00000000 NULL
P       -0.39105887       3.06496561       0.50506767       0.00000000 NULL
P        3.03025700       0.60372491       0.50506767       0.00000000 NULL
P        1.64458391       4.50651723       2.30039032       0.00000000 NULL
P        3.74978214       2.99207082       2.30039032       0.00000000 NULL
P        1.37670138       0.04390158       7.15841078       0.00000000 NULL
P       -0.39609222       1.31922135       7.15841078       0.00000000 NULL
10
Lattice="5.7519994568477735 -0.11440455168040056 -0.05335975633164795 -1.9372891131009555 5.417148423781913 -0.05335975633164785 -1.5594063252758739 -2.1676959953271355 8.188621441793165" Properties=species:S:1:pos:R:3:initial_magmoms:R:1:castep_labels:S:1 n_minim_iter=11 pbc="T T T"
P        2.38419218      -0.11855744       5.32864117       0.00000000 NULL
P       -0.87044804       2.22277943       5.32864117       0.00000000 NULL
P       -0.67541532       0.98152983       1.20277822       0.00000000 NULL
P        1.14534246      -0.32829461       1.20277822       0.00000000 NULL
P       -0.39480085       3.06219792       0.50828339       0.00000000 NULL
P        3.02882268       0.59929713       0.50828339       0.00000000 NULL
P        1.64653547       4.50280272       2.30605651       0.00000000 NULL
P        3.74563988       2.99274010       2.30605651       0.00000000 NULL
P        1.38216886       0.05165745       7.15991397       0.00000000 NULL
P       -0.39047717       1.32687106       7.15991397       0.00000000 NULL
10
Lattice="5.7483421079993136 -0.129620782439178 -0.04321165513904239 -1.950552922547623 5.408842929331478 -0.04321165513904228 -1.5368720090932673 -2.1363715443776177 8.187501422332183" Properties=species:S:1:pos:R:3:initial_magmoms:R:1:castep_labels:S:1 n_minim_iter=12 pbc="T T T"
P        2.39732909      -0.11400996       5.33081827       0.00000000 NULL
P       -0.87031335       2.23668050       5.33081827       0.00000000 NULL
P       -0.67701890       0.97802416       1.21560276       0.00000000 NULL
P        1.14252855      -0.33092959       1.21560276       0.00000000 NULL
P       -0.40572052       3.05450816       0.51673049       0.00000000 NULL
P        3.02500380       0.58649917       0.51673049       0.00000000 NULL
P        1.65063079       4.49134590       2.32160497       0.00000000 NULL
P        3.73347548       2.99298027       2.32160497       0.00000000 NULL
P        1.39687569       0.07170595       7.16486299       0.00000000 NULL
P       -0.37614497       1.34718906       7.16486299       0.00000000 NULL
10
Lattice="5.744692053534633 -0.14915325129930374 -0.033453503026659864 -1.9679113156685262 5.399172023188459 -0.03345350302665975 -1.5133713778826823 -2.1037038404334054 8.188741632053771" Properties=species:S:1:pos:R:3:initial_magmoms:R:1:castep_labels:S:1 n_minim_iter=13 pbc="T T T"
P        2.41021736      -0.11196504       5.33456696       0.00000000 NULL
P       -0.87247231       2.24955016       5.33456696       0.00000000 NULL
P       -0.67954950       0.97408387       1.22845910       0.00000000 NULL
P        1.13959731      -0.33458167       1.22845910       0.00000000 NULL
P       -0.41870580       3.04587272       0.52445879       0.00000000 NULL
P        3.02094507       0.57144211       0.52445879       0.00000000 NULL
P        1.65159213       4.47565984       2.33748741       0.00000000 NULL
P        3.71829773       2.98890441       2.33748741       0.00000000 NULL
P        1.41112501       0.08930937       7.17164430       0.00000000 NULL
P       -0.36398552       1.36629590       7.17164430       0.00000000 NULL
10
Lattice="5.741284780334529 -0.1729123733138324 -0.02407883769380499 -1.9893542281076244 5.388387455710318 -0.024078837693804884 -1.4889892154256312 -2.0698107395405287 8.193592354078103" Properties=species:S:1:pos:R:3:initial_magmoms:R:1:castep_labels:S:1 n_minim_iter=14 pbc="T T T"
P        2.42297296      -0.11241288       5.34078912       0.00000000 NULL
P       -0.87695249       2.26150147       5.34078912       0.00000000 NULL
P       -0.68286077       0.96981810       1.24157226       0.00000000 NULL
P        1.13660571      -0.33907740       1.24157226       0.00000000 NULL
P       -0.43370003       3.03636832       0.53151592       0.00000000 NULL
P        3.01670121       0.55420406       0.53151592       0.00000000 NULL
P        1.64954006       4.45593059       2.35407139       0.00000000 NULL
P        3.70024470       2.98068600       2.35407139       0.00000000 NULL
P        1.42489576       0.10459914       7.18130254       0.00000000 NULL
P       -0.35386748       1.38421338       7.18130254       0.00000000 NULL
10
Lattice="5.7363064572912 -0.2019319198679959 -0.01427698167933436 -2.0152850888306832 5.374440834445857 -0.01427698167933424 -1.4615906386496746 -2.0317245882967874 8.200514601461537" Properties=species:S:1:pos:R:3:initial_magmoms:R:1:castep_labels:S:1 n_minim_iter=15 pbc="T T T"
P        2.43564328      -0.11467769       5.34934949       0.00000000 NULL
P       -0.88312825       2.27279423       5.34934949       0.00000000 NULL
P       -0.68658952       0.96528710       1.25492489       0.00000000 NULL
P        1.13349536      -0.34405327       1.25492489       0.00000000 NULL
P       -0.45103542       3.02484493       0.53833171       0.00000000 NULL
P        3.01128749       0.53410441       0.53833171       0.00000000 NULL
P        1.64340886       4.43025925       2.37223666       0.00000000 NULL
P        3.67785485       2.96671088       2.37223666       0.00000000 NULL
P        1.43873809       0.11875866       7.19322657       0.00000000 NULL
P       -0.34484382       1.40183937       7.19322657       0.00000000 NULL
10
Lattice="5.733803547984403 -0.23717787803560111 -0.0043438755694775255 -2.047906312962654 5.360861517147761 -0.004343875569477408 -1.4323551342655063 -1.9910849649043918 8.215019474545034" Properties=species:S:1:pos:R:3:initial_magmoms:R:1:castep_labels:S:1 n_minim_iter=16 pbc="T T T"
P        2.44969921      -0.11966303       5.36363509       0.00000000 NULL
P       -0.89232391       2.28453572       5.36363509       0.00000000 NULL
P       -0.69125374       0.96119360       1.26933697       0.00000000 NULL
P        1.13109724      -0.34977696       1.26933697       0.00000000 NULL
P       -0.47146900       3.01310338       0.54495334       0.00000000 NULL
P        3.00665198       0.51099798       0.54495334       0.00000000 NULL
P        1.63351592       4.40075190       2.39313825       0.00000000 NULL
P        3.65302408       2.94794956       2.39313825       0.00000000 NULL
P        1.45317661       0.13110794       7.21193109       0.00000000 NULL
P       -0.33772602       1.41945506       7.21193109       0.00000000 NULL
10
Lattice="5.729597174398781 -0.27613636653628126 0.005923012834768335 -2.0835058123079433 5.3444867484054495 0.0059230128347684445 -1.4007830477638452 -1.9471973107603282 8.229160348328879" Properties=species:S:1:pos:R:3:initial_magmoms:R:1:castep_labels:S:1 n_minim_iter=17 pbc="T T T"
P        2.46349897      -0.12607666       5.37889869       0.00000000 NULL
P       -0.90279230       2.29558021       5.37889869       0.00000000 NULL
P       -0.69578206       0.95704352       1.28360222       0.00000000 NULL
P        1.12860227      -0.35538980       1.28360222       0.00000000 NULL
P       -0.49340859       2.99966895       0.55097040       0.00000000 NULL
P        3.00089026       0.48592545       0.55097040       0.00000000 NULL
P        1.62060432       4.36624381       2.41475430       0.00000000 NULL
P        3.62441183       2.92473628       2.41475430       0.00000000 NULL
P        1.46747611       0.14266014       7.23047081       0.00000000 NULL
P       -0.33131974       1.43668551       7.23047081       0.00000000 NULL
10
Lattice="5.731897985860141 -0.31857871933972814 0.01499313681688885 -2.1244773237912247 5.333173822539506 0.01499313681688895 -1.371535697505711 -1.9065412206824122 8.254329485030876" Properties=species:S:1:pos:R:3:initial_magmoms:R:1:castep_labels:S:1 n_minim_iter=18 pbc="T T T"
P        2.47900111      -0.13605287       5.40117492       0.00000000 NULL
P       -0.91717966       2.30710604       5.40117492       0.00000000 NULL
P       -0.70127379       0.95385409       1.29913380       0.00000000 NULL
P        1.12732441      -0.36161063       1.29913380       0.00000000 NULL
P       -0.51739657       2.98871993       0.55593384       0.00000000 NULL
P        2.99813626       0.45970103       0.55593384       0.00000000 NULL
P        1.60666695       4.33240190       2.43794431       0.00000000 NULL
P        3.59675733       2.90076226       2.43794431       0.00000000 NULL
P        1.48156777       0.15091692       7.25731541       0.00000000 NULL
P       -0.32797178       1.45267115       7.25731541       0.00000000 NULL
10
Lattice="5.728660554252503 -0.34467172469752794 0.0204235219451519 -2.1481870125125635 5.321808236203839 0.020423521945151988 -1.3525574532924274 -1.880159986162155 8.265029958534598" Properties=species:S:1:pos:R:3:initial_magmoms:R:1:castep_labels:S:1 n_minim_iter=19 pbc="T T T"
P        2.48644536      -0.14268353       5.41236391       0.00000000 NULL
P       -0.92583312       2.31205582       5.41236391       0.00000000 NULL
P       -0.70379183       0.95119251       1.30793198       0.00000000 NULL
P        1.12560155      -0.36484425       1.30793198       0.00000000 NULL
P       -0.53176308       2.97956833       0.55797712       0.00000000 NULL
P        2.99402731       0.44317031       0.55797712       0.00000000 NULL
P        1.59700057       4.30716701       2.45073051       0.00000000 NULL
P        3.57590528       2.88357416       2.45073051       0.00000000 NULL
P        1.48885246       0.15548745       7.26912731       0.00000000 NULL
P       -0.32595455       1.46103101       7.26912731       0.00000000 NULL
10
Lattice="5.7313848577897994 -0.37209845003656844 0.024367315092202125 -2.1750567188293144 5.315670975003756 0.024367315092202215 -1.3370051507809282 -1.858541076885044 8.28547912491632" Properties=species:S:1:pos:R:3:initial_magmoms:R:1:castep_labels:S:1 n_minim_iter=20 pbc="T T T"
P        2.49498393      -0.15219211       5.42892464       0.00000000 NULL
P       -0.93756309       2.31712810       5.42892464       0.00000000 NULL
P       -0.70727124       0.94921498       1.31789797       0.00000000 NULL
P        1.12483290      -0.36877185       1.31789797       0.00000000 NULL
P       -0.54725445       2.97304042       0.55914314       0.00000000 NULL
P        2.99276355       0.42640728       0.55914314       0.00000000 NULL
P        1.58762172       4.28415949       2.46408524       0.00000000 NULL
P        3.55707361       2.86736686       2.46408524       0.00000000 NULL
P        1.49553120       0.15702566       7.28787487       0.00000000 NULL
P       -0.32661963       1.46785224       7.28787487       0.00000000 NULL
10
Lattice="5.729962870355055 -0.40522010691747684 0.028639439135860006 -2.2060075476754872 5.303791901111566 0.028639439135860104 -1.317753576126848 -1.8317798918077621 8.305529114071769" Properties=species:S:1:pos:R:3:initial_magmoms:R:1:castep_labels:S:1 n_minim_iter=21 pbc="T T T"
P        2.50275748      -0.16457461       5.44612021       0.00000000 NULL
P       -0.95177462       2.32056132       5.44612021       0.00000000 NULL
P       -0.71080339       0.94614083       1.32911312       0.00000000 NULL
P        1.12304129      -0.37309813       1.32911312       0.00000000 NULL
P       -0.56564102       2.96260160       0.55936135       0.00000000 NULL
P        2.98871233       0.40565583       0.55936135       0.00000000 NULL
P        1.57494789       4.25166023       2.47820771       0.00000000 NULL
P        3.53029034       2.84501770       2.47820771       0.00000000 NULL
P        1.50174551       0.15773597       7.30559797       0.00000000 NULL
P       -0.32792200       1.47396993       7.30559797       0.00000000 NULL
10
Lattice="5.733687083456043 -0.4406331463073646 0.030508167048522092 -2.2407670672525555 5.296063452313603 0.03050816704852218 -1.3028062498345865 -1.8110019464965228 8.335927045118444" Properties=species:S:1:pos:R:3:initial_magmoms:R:1:castep_labels:S:1 n_minim_iter=22 pbc="T T T"
P        2.51031600      -0.18166801       5.46860620       0.00000000 NULL
P       -0.97038422       2.32229285       5.46860620       0.00000000 NULL
P       -0.71549553       0.94351282       1.34145656       0.00000000 NULL
P        1.12204149      -0.37838235       1.34145656       0.00000000 NULL
P       -0.58565705       2.95393327       0.55770311       0.00000000 NULL
P        2.98685782       0.38392240       0.55770311       0.00000000 NULL
P        1.56132714       4.21887235       2.49169576       0.00000000 NULL
P        3.50353452       2.82167898       2.49169576       0.00000000 NULL
P        1.50590171       0.15340854       7.32962822       0.00000000 NULL
P       -0.33334631       1.47653458       7.32962822       0.00000000 NULL
10
Lattice="5.72978826241531 -0.4692854650773336 0.031006030768422503 -2.266692978560008 5.283257075024077 0.03100603076842259 -1.2904871455781866 -1.7938774340908858 8.356135636399337" Properties=species:S:1:pos:R:3:initial_magmoms:R:1:castep_labels:S:1 n_minim_iter=23 pbc="T T T"
P        2.51232308      -0.19712609       5.48385495       0.00000000 NULL
P       -0.98567831       2.31928096       5.48385495       0.00000000 NULL
P       -0.71845240       0.94026029       1.35060488       0.00000000 NULL
P        1.11989786      -0.38221991       1.35060488       0.00000000 NULL
P       -0.60137892       2.94308868       0.55458075       0.00000000 NULL
P        2.98157465       0.36556836       0.55458075       0.00000000 NULL
P        1.54797621       4.18534357       2.49988069       0.00000000 NULL
P        3.47599044       2.79836053       2.49988069       0.00000000 NULL
P        1.50619810       0.14770393       7.34377108       0.00000000 NULL
P       -0.33884915       1.47500183       7.34377108       0.00000000 NULL
10
Lattice="5.729921735815241 -0.4715288907284137 0.030861245506618482 -2.268862427989089 5.282670335750573 0.03086124550661858 -1.2899278719115634 -1.7931000002253306 8.35851415397007" Properties=species:S:1:pos:R:3:initial_magmoms:R:1:castep_labels:S:1 n_minim_iter=24 pbc="T T T"
P        2.51245165      -0.19858014       5.48542675       0.00000000 NULL
P       -0.98709778       2.31894055       5.48542675       0.00000000 NULL
P       -0.71876143       0.94006592       1.35135882       0.00000000 NULL
P        1.11981184      -0.38257470       1.35135882       0.00000000 NULL
P       -0.60263842       2.94245188       0.55424211       0.00000000 NULL
P        2.98137135       0.36417175       0.55424211       0.00000000 NULL
P        1.54689807       4.18295209       2.50045895       0.00000000 NULL
P        3.47406584       2.79657798       2.50045895       0.00000000 NULL
P        1.50607051       0.14691287       7.34541101       0.00000000 NULL
P       -0.33955859       1.47462934       7.34541101       0.00000000 NULL
10
Lattice="5.731633684010021 -0.5136654317340665 0.028118639127442547 -2.309356770234921 5.270896334705043 0.028118639127442814 -1.2792503429546325 -1.7782574050756448 8.40280285973781" Properties=species:S:1:pos:R:3:initial_magmoms:R:1:castep_labels:S:1 n_minim_iter=25 pbc="T T T"
P        2.51451966      -0.22593052       5.51477119       0.00000000 NULL
P       -1.01368644       2.31220533       5.51477119       0.00000000 NULL
P       -0.72443648       0.93631489       1.36549813       0.00000000 NULL
P        1.11805980      -0.38914789       1.36549813       0.00000000 NULL
P       -0.62622509       2.93007271       0.54773171       0.00000000 NULL
P        2.97713382       0.33787312       0.54773171       0.00000000 NULL
P        1.52645208       4.13725857       2.51119824       0.00000000 NULL
P        3.43724411       2.76266491       2.51119824       0.00000000 NULL
P        1.50343425       0.13195182       7.37578938       0.00000000 NULL
P       -0.35290511       1.46737309       7.37578938       0.00000000 NULL
10
Lattice="5.730022143445807 -0.5183429970233364 0.027683314020919038 -2.313279230547592 5.2678812086511275 0.02768331402091931 -1.2777960140567215 -1.7762357748713862 8.405592330121747" Properties=species:S:1:pos:R:3:initial_magmoms:R:1:castep_labels:S:1 n_minim_iter=26 pbc="T T T"
P        2.51377612      -0.22913839       5.51666271       0.00000000 NULL
P       -1.01649144       2.31048044       5.51666271       0.00000000 NULL
P       -0.72485208       0.93565538       1.36668324       0.00000000 NULL
P        1.11756666      -0.38975162       1.36668324       0.00000000 NULL
P       -0.62870029       2.92771463       0.54665289       0.00000000 NULL
P        2.97568508       0.33477662       0.54665289       0.00000000 NULL
P        1.52349820       4.13055207       2.51159010       0.00000000 NULL
P        3.43182479       2.75773201       2.51159010       0.00000000 NULL
P        1.50251701       0.12996381       7.37712178       0.00000000 NULL
P       -0.35449832       1.46587137       7.37712178       0.00000000 NULL
10
Lattice="5.72730989191249 -0.5290939022543616 0.026509322170054465 -2.3226099136324683 5.261891498738613 0.026509322170054743 -1.2749882713620542 -1.7723327942969918 8.413069106268305" Properties=species:S:1:pos:R:3:initial_magmoms:R:1:castep_labels:S:1 n_minim_iter=27 pbc="T T T"
P        2.51229908      -0.23674078       5.52154094       0.00000000 NULL
P       -1.02322973       2.30666290       5.52154094       0.00000000 NULL
P       -0.72595274       0.93427081       1.36949678       0.00000000 NULL
P        1.11660388      -0.39123538       1.36949678       0.00000000 NULL
P       -0.63445069       2.92280856       0.54412029       0.00000000 NULL
P        2.97286190       0.32776475       0.54412029       0.00000000 NULL
P        1.51686176       4.11583698       2.51252047       0.00000000 NULL
P        3.41998331       2.74676134       2.51252047       0.00000000 NULL
P        1.50040779       0.12509545       7.38097606       0.00000000 NULL
P       -0.35844345       1.46232373       7.38097606       0.00000000 NULL
10
Lattice="5.725887125510845 -0.5407236287411609 0.02490987718043702 -2.3331838008350454 5.256844944288438 0.024909877180437308 -1.2728688034072435 -1.7693865691064181 8.422702485934925" Properties=species:S:1:pos:R:3:initial_magmoms:R:1:castep_labels:S:1 n_minim_iter=28 pbc="T T T"
P        2.51097572      -0.24540558       5.52753435       0.00000000 NULL
P       -1.03102414       2.30265328       5.52753435       0.00000000 NULL
P       -0.72737394       0.93296378       1.37264392       0.00000000 NULL
P        1.11581654      -0.39299840       1.37264392       0.00000000 NULL
P       -0.64075731       2.91827808       0.54122323       0.00000000 NULL
P        2.97057167       0.32034494       0.54122323       0.00000000 NULL
P        1.50986832       4.10092509       2.51345105       0.00000000 NULL
P        3.40806873       2.73538964       2.51345105       0.00000000 NULL
P        1.49803553       0.11925212       7.38621842       0.00000000 NULL
P       -0.36322932       1.45821670       7.38621842       0.00000000 NULL
10
Lattice="5.724131690337365 -0.5595225476338024 0.02199081058006022 -2.350449093859267 5.249203572620459 0.02199081058006052 -1.2701120881512478 -1.7655545206378305 8.438589163820136" Properties=species:S:1:pos:R:3:initial_magmoms:R:1:castep_labels:S:1 n_minim_iter=29 pbc="T T T"
P        2.50868053      -0.25987293       5.53720471       0.00000000 NULL
P       -1.04401102       2.29587737       5.53720471       0.00000000 NULL
P       -0.72977623       0.93089269       1.37767487       0.00000000 NULL
P        1.11461672      -0.39593452       1.37767487       0.00000000 NULL
P       -0.65094741       2.91121716       0.53620268       0.00000000 NULL