15
Lattice="8.995799738893524 -3.5024883094389657e-06 -6.066488124952403e-06 -2.998597474083718 6.264028692627097 2.022162721252417e-06 -2.9985974740834638 -3.13201259507083 5.424808988930286" Properties=species:S:1:pos:R:3:initial_magmoms:R:1:castep_labels:S:1:forces:R:3 n_minim_iter=1 energy=-77.42367649624894 stress="0.004602586038121843 -2.6022901834502453e-09 -4.512646852915379e-09 -2.6022901834502453e-09 -0.002091144436147934 -2.0848838559177326e-12 -4.512646852915379e-09 -2.0848838559177326e-12 -0.002091144445966287" free_energy=-77.42367649624894 pbc="T T T"
P        6.00291755      -0.46197849       3.75693292       0.00000000 NULL       0.22822977       0.35270967      -0.13052568
P        3.00431808       0.35257506       3.94641791       0.00000000 NULL       0.22822944      -0.28939339      -0.24019300
P        0.00571754       0.10939710       3.14625539       0.00000000 NULL       0.22822994      -0.06331655       0.37071821
P       -2.54607422       1.69233343       4.19110840       0.00000000 NULL       0.03133935       0.03806408       0.02336748
P        3.45112324      -0.34857741       1.86364678       0.00000000 NULL       0.03133929       0.00120480      -0.04464824
P        0.45252492      -1.34375938       4.79485619       0.00000000 NULL       0.03133932      -0.03926891       0.02128070
P       -4.47564683       3.11854711       4.11359198       0.00000000 NULL      -0.10119607      -0.24955786      -0.26285171
P        1.52154902      -1.12881544       0.66727031       0.00000000 NULL      -0.10119560      -0.10285733       0.34754944
P       -1.47704758      -1.98973278       6.06875299       0.00000000 NULL      -0.10119571       0.35241531      -0.08469752
P        1.78625048       4.16729821       2.16298662       0.00000000 NULL      -0.16953732      -0.21383616      -0.07589316
P        4.78484895       2.92156391       0.73432147       0.00000000 NULL      -0.16953702       0.04119267       0.22313435
P       -1.21234991       2.30717425       2.52749362       0.00000000 NULL      -0.16953722       0.17264368      -0.14724085
P        6.00123173      -0.40634350       1.57600966       0.00000000 NULL       0.01116423      -0.00514211       0.42677862
P        3.00263366      -1.56397738       4.98869822       0.00000000 NULL       0.01116395       0.37217218      -0.20893612
P        0.00403465       1.97031455       4.28489833       0.00000000 NULL       0.01116366      -0.36703008      -0.21784252
15
Lattice="8.81447647764179 -3.43189062801906e-06 -5.944209345502243e-06 -2.9381563643319195 6.32224892602826 1.9814031310527822e-06 -2.9381563643316637 -3.1611227470702676 5.475229169690145" Properties=species:S:1:pos:R:3:initial_magmoms:R:1:castep_labels:S:1:forces:R:3 n_minim_iter=2 energy=-77.45577120076415 stress="0.0003479395891523727 1.552266578892476e-09 2.696467902140194e-09 1.552266578892476e-09 0.004344349304344287 1.9998632946830644e-11 2.696467902140194e-09 1.9998632946830644e-11 0.0043443492822167395" free_energy=-77.45577120076415 pbc="T T T"
P        5.88515671      -0.46112014       3.78994479       0.00000000 NULL       0.23635181       0.31917232      -0.26057358
P        2.94699833       0.35162484       3.97958894       0.00000000 NULL       0.23635162      -0.38524950      -0.14612486
P        0.00883887       0.10948900       3.18091303       0.00000000 NULL       0.23635216       0.06607691       0.40669797
P       -2.49430991       1.70861860       4.23040344       0.00000000 NULL       0.04277227      -0.02514348       0.05444955
P        3.38200535      -0.35179958       1.88031611       0.00000000 NULL       0.04277226       0.05972643      -0.00544994
P        0.44384813      -1.35682239       4.83973227       0.00000000 NULL       0.04277220      -0.03458300      -0.04899970
P       -4.38686868       3.14388669       4.14798566       0.00000000 NULL      -0.26143650      -0.18569279       0.06134458
P        1.48944497      -1.14080952       0.67854891       0.00000000 NULL      -0.26143632       0.14597236       0.13014274
P       -1.44871052      -2.00307834       6.12392107       0.00000000 NULL      -0.26143658       0.03972074      -0.19148679
P        1.74784193       4.20290715       2.18198169       0.00000000 NULL      -0.10376782      -0.21639473      -0.06809926
P        4.68599930       2.94931980       0.74440599       0.00000000 NULL      -0.10376753       0.04922168       0.22145310
P       -1.19031737       2.33113983       2.54883431       0.00000000 NULL      -0.10376773       0.16717317      -0.15335363
P        5.88042663      -0.41019526       1.59689184       0.00000000 NULL       0.08608033       0.03360308       0.39902761
P        2.94226967      -1.57307716       5.03201318       0.00000000 NULL       0.08608003       0.32876650      -0.22861504
P        0.00411175       1.98326613       4.32154175       0.00000000 NULL       0.08607980      -0.36236968      -0.17041274
15
Lattice="8.754412138916175 -3.408504753520203e-06 -5.9037038198545405e-06 -2.9181349239915124 6.307091581941875 1.967901291612256e-06 -2.918134923991257 -3.153544086720011 5.462102517906513" Properties=species:S:1:pos:R:3:initial_magmoms:R:1:castep_labels:S:1:forces:R:3 n_minim_iter=3 energy=-77.46642137454268 stress="-0.0045501102075750175 1.0410413471127833e-09 1.8139457012370635e-09 1.0410413471127833e-09 -0.001854011770258661 2.994099918524365e-13 1.8139457012370635e-09 2.994099918524365e-13 -0.0018540117420017522" free_energy=-77.46642137454268 pbc="T T T"
P        5.84696925      -0.45709592       3.77919813       0.00000000 NULL       0.24533686       0.25799493      -0.12646982
P        2.92883231       0.34788451       3.96835059       0.00000000 NULL       0.24533665      -0.23852354      -0.16019559
P        0.01069431       0.10920514       3.17664479       0.00000000 NULL       0.24533704      -0.01947168       0.28666491
P       -2.47701048       1.70459449       4.22059025       0.00000000 NULL       0.01245827      -0.01057501       0.11353990
P        3.35926190      -0.35070731       1.87558105       0.00000000 NULL       0.01245821       0.10361594      -0.04761174
P        0.44112612      -1.35389054       4.82802725       0.00000000 NULL       0.01245812      -0.09304095      -0.06592818
P       -4.35842342       3.13444774       4.13708476       0.00000000 NULL      -0.32811877      -0.17970747      -0.00552079
P        1.47784734      -1.13795181       0.67904709       0.00000000 NULL      -0.32811856       0.08507259       0.15839207
P       -1.44028671      -1.99649710       6.10807050       0.00000000 NULL      -0.32811876       0.09463526      -0.15287061
P        1.73478310       4.19096809       2.17612481       0.00000000 NULL      -0.10172332      -0.39005719      -0.05539449
P        4.65291903       2.94263846       0.74454735       0.00000000 NULL      -0.10172283       0.14705556       0.36549682
P       -1.18335476       2.32702424       2.54142322       0.00000000 NULL      -0.10172325       0.24300175      -0.31010212
P        5.84073429      -0.40909853       1.59664725       0.00000000 NULL       0.17204698       0.10662142       0.23687593
P        2.92259877      -1.56625869       5.01805908       0.00000000 NULL       0.17204670       0.15182986      -0.21077506
P        0.00446229       1.97535095       4.30948720       0.00000000 NULL       0.17204666      -0.25845148      -0.02610122
15
Lattice="8.763216715948264 -3.411932789819219e-06 -5.909641353327412e-06 -2.9210697805739776 6.31332825886497 1.9698804853090245e-06 -2.921069780573722 -3.1566624234675547 5.467503639546689" Properties=species:S:1:pos:R:3:initial_magmoms:R:1:castep_labels:S:1:forces:R:3 n_minim_iter=4 energy=-77.53584622436989 stress="0.00030323498673307626 -6.049489819707572e-10 -1.0572629723159565e-09 -6.049489819707572e-10 -0.0012417060312256744 -2.1293652837210646e-11 -1.0572629723159565e-09 -2.1293652837210646e-11 -0.0012417060616674656" free_energy=-77.53584622436989 pbc="T T T"
P        5.87433194      -0.42806379       3.76674938       0.00000000 NULL       0.20440335       0.11379218       0.46169434
P        2.95326012       0.31946917       3.95483349       0.00000000 NULL       0.20440291       0.34294294      -0.32939437
P        0.03218729       0.10858831       3.21341284       0.00000000 NULL       0.20440273      -0.45673536      -0.13230039
P       -2.47696692       1.70635820       4.23109527       0.00000000 NULL       0.11187254       0.23210040       0.01682889
P        3.36517517      -0.34560990       1.87420223       0.00000000 NULL       0.11187226      -0.10147595      -0.20941944
P        0.44410453      -1.36075168       4.82970328       0.00000000 NULL       0.11187252      -0.13062458       0.19259032
P       -4.38387096       3.11796402       4.13457048       0.00000000 NULL      -0.25250390      -0.12502806       0.22233852
P        1.45826955      -1.13500572       0.69998070       0.00000000 NULL      -0.25250391       0.25506483      -0.00289144
P       -1.46279938      -1.98295944       6.10045346       0.00000000 NULL      -0.25250420      -0.13003648      -0.21944656
P        1.72520004       4.16832723       2.17195363       0.00000000 NULL      -0.04535615       0.05074521      -0.27395670
P        4.64627086       2.95346488       0.77164163       0.00000000 NULL      -0.04535602      -0.26262607       0.09303177
P       -1.19587267       2.34819370       2.52390126       0.00000000 NULL      -0.04535578       0.21188091       0.18092502
P        5.85498344      -0.40491801       1.63162360       0.00000000 NULL      -0.01841571      -0.09164101      -0.33643177
P        2.93391304      -1.54117688       5.00235157       0.00000000 NULL      -0.01841538      -0.24553795       0.24757935
P        0.01284168       1.94608861       4.30102058       0.00000000 NULL      -0.01841526       0.33717899       0.08885245
15
Lattice="8.487796508094407 -3.304698737691408e-06 -5.7239065138603125e-06 -2.829263043513385 6.316177370331587 1.907968926455451e-06 -2.829263043513129 -3.158087032817937 5.469971011499157" Properties=species:S:1:pos:R:3:initial_magmoms:R:1:castep_labels:S:1:forces:R:3 n_minim_iter=5 energy=-77.88685806295379 stress="0.001943996969414809 -4.669343299030522e-09 -8.108568465794879e-09 -4.669343299030522e-09 -0.010102878990030945 1.1321796406109631e-11 -8.108568465794879e-09 1.1321796406109631e-11 -0.010102878970025918" free_energy=-77.88685806295379 pbc="T T T"
P        5.81483534      -0.29030502       3.82974063       0.00000000 NULL      -0.05273769      -0.48948588       0.17347223
P        2.98557005       0.30371720       3.80650273       0.00000000 NULL      -0.05273724       0.39497430       0.33717116
P        0.15630409      -0.01341852       3.30368716       0.00000000 NULL      -0.05273793       0.09451164      -0.51064329
P       -2.36149327       1.76904121       4.25935437       0.00000000 NULL       0.20998118       0.68098401      -0.14093611
P        3.29703526      -0.35390280       1.80825501       0.00000000 NULL       0.20998048      -0.46254625      -0.51928168
P        0.46777141      -1.41514180       4.87232623       0.00000000 NULL       0.20998137      -0.21843800       0.66021736
P       -4.38373544       3.01626947       4.18395448       0.00000000 NULL      -0.37795422       0.01738414      -0.71588382
P        1.27479168      -1.04281515       0.76582632       0.00000000 NULL      -0.37795376      -0.62866564       0.34288731
P       -1.55447066      -1.97345536       5.99015889       0.00000000 NULL      -0.37795326       0.61128195       0.37299727
P        1.62195258       4.09317735       2.07491871       0.00000000 NULL       0.09662308       0.22385785      -0.53269025
P        4.45121682       2.90842972       0.88770843       0.00000000 NULL       0.09662317      -0.57325221       0.07247841
P       -1.20731326       2.47265258       2.50733702       0.00000000 NULL       0.09662379       0.34939425       0.46021165
P        5.69488533      -0.41499336       1.66400637       0.00000000 NULL       0.12408694      -0.24193431       0.03823680
P        2.86562165      -1.50951951       4.99735329       0.00000000 NULL       0.12408720       0.15408120       0.19040269
P        0.03635700       1.92450668       4.27857109       0.00000000 NULL       0.12408689       0.08785297      -0.22863975
15
Lattice="8.366008709132194 -3.2572810144878906e-06 -5.64177660239484e-06 -2.7886671102221676 6.316957667830388 1.880592322014703e-06 -2.788667110221912 -3.1584772052762276 5.470646755267293" Properties=species:S:1:pos:R:3:initial_magmoms:R:1:castep_labels:S:1:forces:R:3 n_minim_iter=6 energy=-78.09153954711526 stress="0.0032534975073664884 -5.883857459560296e-09 -1.0165220418892396e-08 -5.883857459560296e-09 -0.011812877902715685 1.55194451114483e-11 -1.0165220418892396e-08 1.55194451114483e-11 -0.011812877880990513" free_energy=-78.09153954711526 pbc="T T T"
P        5.79994482      -0.23306513       3.85598273       0.00000000 NULL      -0.27836209      -0.55533588       0.20577446
P        3.01127538       0.29743341       3.74448623       0.00000000 NULL      -0.27836158       0.45587385       0.37804813
P        0.22260540      -0.06437466       3.34081303       0.00000000 NULL      -0.27836237       0.09946236      -0.58382202
P       -2.29749144       1.83133881       4.26888052       0.00000000 NULL      -0.10982327       0.71280844      -0.07739753
P        3.27984514      -0.37719184       1.75021637       0.00000000 NULL      -0.10982406      -0.42343244      -0.57861130
P        0.49117729      -1.45415039       4.92219021       0.00000000 NULL      -0.10982317      -0.28937586       0.65600905
P       -4.41956625       2.96053678       4.19035121       0.00000000 NULL      -0.12301164       0.16152505      -0.51316571
P        1.15776907      -1.00979921       0.81156976       0.00000000 NULL      -0.12301148      -0.52517706       0.11669822
P       -1.63089741      -1.95073853       5.93937043       0.00000000 NULL      -0.12301095       0.36365216       0.39646773
P        1.57724432       4.06011607       1.99604840       0.00000000 NULL       0.22220663       0.13779992      -0.42929011
P        4.36591272       2.85704684       0.95645136       0.00000000 NULL       0.22220676      -0.44067610       0.09530653
P       -1.21142548       2.55826727       2.51814027       0.00000000 NULL       0.22220721       0.30287592       0.33398313
P        5.63467689      -0.43043247       1.69547920       0.00000000 NULL       0.28898993      -0.17521105       0.00458246
P        2.84600914      -1.47493386       4.99566336       0.00000000 NULL       0.28899014       0.09157405       0.14944560
P        0.05734039       1.90536015       4.25013978       0.00000000 NULL       0.28898993       0.08363666      -0.15402864
15
Lattice="8.126417970865516 -3.16399706143966e-06 -5.480204045148301e-06 -2.708803519703656 6.345457363479099 1.8267348245761183e-06 -2.708803519703399 -3.172727099742585 5.495328188770426" Properties=species:S:1:pos:R:3:initial_magmoms:R:1:castep_labels:S:1:forces:R:3 n_minim_iter=7 energy=-78.18946308300661 stress="-0.0009130992858936369 -4.2527423532214415e-09 -7.3177828749912456e-09 -4.2527423532214415e-09 -0.011762348952321816 -1.7510503355256573e-12 -7.3177828749912456e-09 -1.7510503355256573e-12 -0.011762348982557097" free_energy=-78.18946308300661 pbc="T T T"
P        5.66002746      -0.20584635       3.88855422       0.00000000 NULL      -0.35576145      -0.01778163       0.18910802
P        2.95122156       0.29778186       3.72930996       0.00000000 NULL      -0.35576156       0.17266317      -0.07915419
P        0.24241518      -0.09194182       3.37278091       0.00000000 NULL      -0.35576170      -0.15488112      -0.10995311
P       -2.24493271       1.90568279       4.30407415       0.00000000 NULL       0.16190874       0.38959600      -0.35663589
P        3.17267662      -0.39813506       1.69291729       0.00000000 NULL       0.16190852      -0.50365374      -0.15908230
P        0.46387242      -1.50755114       4.99365868       0.00000000 NULL       0.16190922       0.11405756       0.51571787
P       -4.35310294       2.95207624       4.24517833       0.00000000 NULL      -0.19526196       0.22524160      -1.26118505
P        1.06450520      -0.97233706       0.81616473       0.00000000 NULL      -0.19526137      -1.20483909       0.43552784
P       -1.64429773      -1.97974013       5.92931132       0.00000000 NULL      -0.19526026       0.97959772       0.82565760
P        1.53485353       4.03992518       1.94552027       0.00000000 NULL       0.17133722       0.42733941      -0.40891424
P        4.24365843       2.83763354       1.02388284       0.00000000 NULL       0.17133700      -0.56779982      -0.16562990
P       -1.17395261       2.64062109       2.52591848       0.00000000 NULL       0.17133778       0.14046021       0.57454378
P        5.51768903      -0.43745813       1.73293073       0.00000000 NULL       0.21777646      -0.29385432      -0.05004675
P        2.80888486      -1.45323696       5.00770357       0.00000000 NULL       0.21777683       0.10358540       0.27950839
P        0.10007966       1.89068894       4.25001108       0.00000000 NULL       0.21777652       0.19026866      -0.22946208
15
Lattice="8.013342685893395 -3.1199715300432906e-06 -5.403949582651681e-06 -2.6711117574203214 6.3470650715163295 1.8013166926927694e-06 -2.6711117574200647 -3.173530975773985 5.496720492063446" Properties=species:S:1:pos:R:3:initial_magmoms:R:1:castep_labels:S:1:forces:R:3 n_minim_iter=8 energy=-78.3479083032588 stress="0.002057163564642565 -6.658577216837863e-09 -1.1522814280204958e-08 -6.658577216837863e-09 -0.015034225798281627 1.2745369651304186e-11 -1.1522814280204958e-08 1.2745369651304186e-11 -0.01503422579604359" free_energy=-78.3479083032588 pbc="T T T"
P        5.58744877      -0.13006981       3.91731419       0.00000000 NULL      -0.46250290      -0.42410070      -0.08739918
P        2.91633452       0.28399658       3.65069796       0.00000000 NULL      -0.46250234       0.13636044       0.41098219
P        0.24521997      -0.15393304       3.42541767       0.00000000 NULL      -0.46250278       0.28774079      -0.32358208
P       -2.23582394       1.97091879       4.30206177       0.00000000 NULL       0.36793078       0.78966411      -0.31896988
P        3.10640179      -0.43329966       1.63881982       0.00000000 NULL       0.36793008      -0.67106808      -0.52438474
P        0.43528943      -1.53762250       5.05255325       0.00000000 NULL       0.36793121      -0.11859647       0.84335387
P       -4.35076054       2.94895524       4.24645298       0.00000000 NULL      -0.11799321       0.27447418      -1.06432215
P        0.99146408      -0.97047652       0.81962265       0.00000000 NULL      -0.11799281      -1.05896711       0.29445962
P       -1.67964710      -1.97847963       5.92736348       0.00000000 NULL      -0.11799177       0.78449307       0.76986277
P        1.52591222       4.02293302       1.87593194       0.00000000 NULL       0.22633569       0.46400860      -0.23082875
P        4.19702542       2.78666823       1.07478501       0.00000000 NULL       0.22633531      -0.43190786      -0.28642916
P       -1.14520207       2.71099015       2.54599699       0.00000000 NULL       0.22633600      -0.03210100       0.51725745
P        5.50267723      -0.45432055       1.75685956       0.00000000 NULL      -0.01377128      -0.32506697      -0.09443418
P        2.83156482      -1.42488664       5.01173477       0.00000000 NULL      -0.01377084       0.08075109       0.32873336
P        0.16045134       1.87920102       4.22483566       0.00000000 NULL      -0.01377115       0.24431590      -0.23429916
15
Lattice="7.893903384991406 -3.0734681875537785e-06 -5.323403425438164e-06 -2.6312986354995376 6.402594226972508 1.774467999684159e-06 -2.631298635499279 -3.2012955767537807 5.54481013791481" Properties=species:S:1:pos:R:3:initial_magmoms:R:1:castep_labels:S:1:forces:R:3 n_minim_iter=9 energy=-78.5761429228696 stress="0.006278608468642833 -7.576890785087665e-09 -1.3125340151523521e-08 -7.576890785087665e-09 -0.013172765455368525 1.5746278141885306e-11 -1.3125340151523521e-08 1.5746278141885306e-11 -0.013172765412870545" free_energy=-78.5761429228696 pbc="T T T"
P        5.49337714      -0.02565899       3.93990657       0.00000000 NULL      -0.50404684      -0.50830033      -0.22173601
P        2.86207588       0.22359213       3.59706910       0.00000000 NULL      -0.50404610       0.06212115       0.55106968
P        0.23077455      -0.19793938       3.55263358       0.00000000 NULL      -0.50404654       0.44617977      -0.32933266
P       -2.20113035       2.11008173       4.32638978       0.00000000 NULL       0.14857688       0.41976149      -0.16796746
P        3.06146901      -0.50957702       1.55422684       0.00000000 NULL       0.14857650      -0.35534483      -0.27954058
P        0.43016992      -1.60050810       5.20899756       0.00000000 NULL       0.14857710      -0.06441683       0.44750774
P       -4.35544820       2.98743672       4.30272328       0.00000000 NULL       0.00901853       0.24269405      -1.13469344
P        0.90715016      -0.96875031       0.80625128       0.00000000 NULL       0.00901902      -1.10402037       0.35716750
P       -1.72414789      -2.01868730       5.98064398       0.00000000 NULL       0.00902006       0.86132631       0.77752593
P        1.52641231       4.05144423       1.84022685       0.00000000 NULL       0.35486937       0.09832856      -0.11305473
P        4.15771245       2.76925570       1.11603581       0.00000000 NULL       0.35486933      -0.14707255      -0.02862815
P       -1.10488881       2.78318520       2.58854094       0.00000000 NULL       0.35486952       0.04874357       0.14168216
P        5.47637389      -0.48869444       1.78467704       0.00000000 NULL      -0.00841907      -0.21430313      -0.07644153
P        2.84507462      -1.41137366       5.07568435       0.00000000 NULL      -0.00841877       0.04095126       0.22381273
P        0.21377421       1.90006188       4.22924790       0.00000000 NULL      -0.00841897       0.17335188      -0.14737119
15
Lattice="7.636957466684856 -2.9734270460308687e-06 -5.150127073525699e-06 -2.545649992437446 6.411908697917204 1.716709231804712e-06 -2.5456499924371867 -3.2059528622467153 5.552876677496326" Properties=species:S:1:pos:R:3:initial_magmoms:R:1:castep_labels:S:1:forces:R:3 n_minim_iter=10 energy=-78.7251528493498 stress="-0.005651209071464594 -1.7747073292719796e-09 -3.0739680562363393e-09 -1.7747073292719796e-09 -0.010214519292155505 -5.976820130069272e-12 -3.0739680562363393e-09 -5.976820130069272e-12 -0.010214519295222525" free_energy=-78.7251528493498 pbc="T T T"
P        5.29157625       0.03272537       3.92337226       0.00000000 NULL      -0.48217600      -0.69378009      -0.46826250
P        2.74592357       0.17542353       3.56284074       0.00000000 NULL      -0.48217487      -0.05863718       0.83496308
P        0.20027097      -0.20815501       3.61952969       0.00000000 NULL      -0.48217536       0.75241783      -0.36669961
P       -2.12893130       2.17690651       4.33338573       0.00000000 NULL       0.17425362       0.30894346      -0.29867587
P        2.96237071      -0.54158793       1.50092352       0.00000000 NULL       0.17425346      -0.41313262      -0.11821519
P        0.41672033      -1.63532197       5.27143815       0.00000000 NULL       0.17425403       0.10418896       0.41689071
P       -4.27717851       3.01363185       4.28984450       0.00000000 NULL       0.00779773       0.32341385      -0.29877234
P        0.81412255      -0.99765840       0.79807163       0.00000000 NULL       0.00779755      -0.42045136      -0.13069845
P       -1.73152682      -2.01597432       6.01783561       0.00000000 NULL       0.00779813       0.09703750       0.42947078
P        1.52267175       4.01403804       1.80923916       0.00000000 NULL       0.19058867       0.08436762      -0.13040417
P        4.06832332       2.76577995       1.17199102       0.00000000 NULL       0.19058866      -0.15511713      -0.00786267
P       -1.02298068       2.83803890       2.57164002       0.00000000 NULL       0.19058884       0.07074929       0.13826646
P        5.33811404      -0.51064027       1.75087009       0.00000000 NULL       0.10953526      -0.08059244       0.15851287
P        2.79246346      -1.43433571       5.11966020       0.00000000 NULL       0.10953524       0.17757239      -0.00946149
P        0.24681169       1.94496983       4.23521230       0.00000000 NULL       0.10953504      -0.09698009      -0.14905161
15
Lattice="7.5355715135941415 -2.9339527217051677e-06 -5.081755533752437e-06 -2.5118546493769243 6.477052661620338 1.6939187262116375e-06 -2.511854649376662 -3.2385248638354653 5.609292993571183" Properties=species:S:1:pos:R:3:initial_magmoms:R:1:castep_labels:S:1:forces:R:3 n_minim_iter=11 energy=-78.8817879383523 stress="-0.008598341834808126 1.8794463242949553e-09 3.2571365129609254e-09 1.8794463242949553e-09 -0.0037715852483866043 -2.8211588208583287e-12 3.2571365129609254e-09 -2.8211588208583287e-12 -0.0037715852481491194" free_energy=-78.8817879383523 pbc="T T T"
P        5.17349130       0.04275423       3.91706648       0.00000000 NULL      -0.26882634      -0.48188272      -0.37162923
P        2.66163396       0.13237613       3.61372483       0.00000000 NULL      -0.26882553      -0.08089899       0.60313766
P        0.14977672      -0.17513640       3.68778420       0.00000000 NULL      -0.26882584       0.56278203      -0.23150788
P       -2.09418534       2.19750932       4.31182216       0.00000000 NULL      -0.13674726       0.32894036       0.20839887
P        2.92952605      -0.60313591       1.55027907       0.00000000 NULL      -0.13674778       0.01600854      -0.38906996
P        0.41767106      -1.59437683       5.35647883       0.00000000 NULL      -0.13674754      -0.34494874       0.18067136
P       -4.24261514       3.09266845       4.34517147       0.00000000 NULL       0.13091140       0.23496787      -0.41651816
P        0.78109518      -1.02183412       0.75837676       0.00000000 NULL       0.13091140      -0.47819925       0.00477076
P       -1.73075879      -2.07083524       6.11503617       0.00000000 NULL       0.13091196       0.24323122       0.41174714
P        1.54070501       4.03493949       1.76267093       0.00000000 NULL       0.17685267      -0.09558824       0.08151275
P        4.05256132       2.74757195       1.23359026       0.00000000 NULL       0.17685272       0.11838623       0.04202523
P       -0.97115202       2.93306136       2.61302529       0.00000000 NULL       0.17685256      -0.02279820      -0.12353833
P        5.29257109      -0.54628301       1.74831472       0.00000000 NULL       0.09780943       0.09868946       0.28976377
P        2.78071590      -1.45129937       5.20822177       0.00000000 NULL       0.09780911       0.20159806      -0.23034959
P        0.26885943       1.99757621       4.26203879       0.00000000 NULL       0.09780903      -0.30028763      -0.05941438
15
Lattice="7.636468890550973 -2.973236820247674e-06 -5.149797592988357e-06 -2.5454871165979354 6.455900852147467 1.7165994118236312e-06 -2.545487116597674 -3.2279489394569754 5.5909750005720165" Properties=species:S:1:pos:R:3:initial_magmoms:R:1:castep_labels:S:1:forces:R:3 n_minim_iter=12 energy=-78.9761188726925 stress="0.00041760031295018 -3.9137118548416377e-10 -7.06607869562212e-10 -3.9137118548416377e-10 -0.0006169773363216798 -1.591657654733789e-11 -7.06607869562212e-10 -1.591657654733789e-11 -0.0006169773310101361" free_energy=-78.9761188726925 pbc="T T T"
P        5.22173781       0.02860792       3.89624828       0.00000000 NULL      -0.18142875      -0.28575715      -0.25374993
P        2.67624803       0.13199612       3.61806694       0.00000000 NULL      -0.18142825      -0.07687531       0.37434816
P        0.13075832      -0.16061008       3.66762424       0.00000000 NULL      -0.18142841       0.36263267      -0.12059786
P       -2.12976858       2.20204069       4.29733844       0.00000000 NULL      -0.11071866       0.21868084       0.09333484
P        2.96120772      -0.60736897       1.53527864       0.00000000 NULL      -0.11071897      -0.02851007      -0.23605043
P        0.41572028      -1.59467512       5.34932695       0.00000000 NULL      -0.11071878      -0.19017064       0.14271581
P       -4.27784660       3.10802624       4.31186839       0.00000000 NULL       0.18370943       0.20762436      -0.02747061
P        0.81312864      -1.04777844       0.74341005       0.00000000 NULL       0.18370920      -0.12760243      -0.16607291
P       -1.73235775      -2.06024870       6.12666993       0.00000000 NULL       0.18370946      -0.08002215       0.19354315
P        1.57539739       4.02189757       1.74082168       0.00000000 NULL       0.05286376      -0.01264294       0.13890731
P        4.12088618       2.72459498       1.23749145       0.00000000 NULL       0.05286368       0.12661873      -0.05850462
P       -0.97009207       2.93735248       2.61265528       0.00000000 NULL       0.05286358      -0.11397585      -0.08040280
P        5.35636454      -0.55118160       1.73960352       0.00000000 NULL       0.05557444       0.13141904       0.22318573
P        2.81087689      -1.44581826       5.19850160       0.00000000 NULL       0.05557413       0.12757499      -0.22540517
P        0.26538796       1.99699367       4.24383407       0.00000000 NULL       0.05557414      -0.25899410       0.00221933
15