13
Lattice="5.185263432111664 -0.34114074561065755 -0.4196680844532729 -2.7703507605420903 7.469728803455514 0.7266822874326256 -1.4386888304828616 -0.6672284083406594 7.519328639459699" Properties=species:S:1:pos:R:3:initial_magmoms:R:1:castep_labels:S:1:forces:R:3 n_minim_iter=1 energy=-66.87373085617492 stress="0.0019509635380574133 0.0010318736309363511 0.0009587767351160735 0.0010318736309363511 0.0023156711705793606 0.0008846550130887233 0.0009587767351160735 0.0008846550130887233 0.0017874221024519737" free_energy=-66.87373085617492 pbc="T T T"
P        3.84783892       0.67945117       3.18514179       0.00000000 NULL       0.21741160      -0.10300777       0.03471407
P        0.17979077       0.76063520       6.57156306       0.00000000 NULL       0.07127851       0.01902133      -0.33815251
P        1.43639338       0.10617171       2.67592325       0.00000000 NULL      -0.29360695      -0.33975101       0.63255080
P        2.73995487       5.63952279       1.90371174       0.00000000 NULL      -0.03407927       0.08437769       0.28266723
P       -0.33001982      -0.52172203       4.75153623       0.00000000 NULL       0.64777371       0.02037994       0.01373320
P        0.69127589       3.13103729       1.48684539       0.00000000 NULL      -0.04733619       0.35602519       0.43812958
P        0.43684833       6.65363648       2.36702925       0.00000000 NULL       0.02940818       0.39082624      -0.33187075
P       -1.52909708       3.63359910       5.79525579       0.00000000 NULL       0.20409324      -0.15730279      -0.00701478
P        2.82617502       2.56300943       1.04758820       0.00000000 NULL      -0.65886047      -0.24790411      -0.40312904
P       -1.32505901       4.29186504       7.86973096       0.00000000 NULL       0.09954658       0.34782049      -0.51371849
P        1.67612642       3.82213454       7.52562978       0.00000000 NULL       0.31460942       0.33676934       0.12681502
P       -1.77895530       1.65610417       6.60554267       0.00000000 NULL      -0.34639605      -0.55217223      -0.16785410
P        1.12516312       4.67947980       3.13448375       0.00000000 NULL      -0.20384233      -0.15508232       0.23312976
13
Lattice="5.15828937813272 -0.3531652715191916 -0.43092541102626103 -2.7789186661845324 7.426275519604853 0.7115982102674436 -1.4493419157073748 -0.6776147655552444 7.486258026098934" Properties=species:S:1:pos:R:3:initial_magmoms:R:1:castep_labels:S:1:forces:R:3 n_minim_iter=2 energy=-66.90090722235901 stress="-0.005174068534148179 -0.0003793405749243284 -0.0009323678583332223 -0.0003793405749243284 -0.005496308090909733 -0.0032964280438476474 -0.0009323678583332223 -0.0032964280438476474 -0.008108572309548177" free_energy=-66.90090722235901 pbc="T T T"
P        3.81764780       0.65436868       3.15676098       0.00000000 NULL       0.27377823       0.10349608       0.11340807
P        0.15915854       0.73853814       6.53183112       0.00000000 NULL       0.16855609       0.08718882      -0.19853214
P        1.41762841       0.09093693       2.66439312       0.00000000 NULL      -0.25512511      -0.20764691       0.67521572
P        2.70224131       5.58981127       1.87491975       0.00000000 NULL      -0.06159575       0.06745781       0.23646582
P       -0.33309593      -0.52914597       4.72941886       0.00000000 NULL       0.63857086      -0.16769536      -0.03051778
P        0.67350979       3.10795236       1.47379782       0.00000000 NULL      -0.16289664       0.21360131       0.35192846
P        0.40845298       6.60594970       2.33333205       0.00000000 NULL       0.00257626       0.33588406      -0.47701861
P       -1.54514797       3.59756632       5.76031656       0.00000000 NULL       0.18751426      -0.14928389      -0.23978662
P        2.79310191       2.53238227       1.02380289       0.00000000 NULL      -0.53664335      -0.27339265      -0.32196468
P       -1.35099102       4.25073719       7.81668603       0.00000000 NULL       0.18608447       0.39796044      -0.41251018
P        1.63784602       3.77598396       7.47382004       0.00000000 NULL       0.21088491       0.36076698       0.03371275
P       -1.79557901       1.62793496       6.57052401       0.00000000 NULL      -0.45950872      -0.63843995      -0.16801277
P        1.09425401       4.63539374       3.10574483       0.00000000 NULL      -0.19219552      -0.12989674       0.43761197
13
Lattice="5.152516734180115 -0.45194549933424033 -0.5138641981031127 -2.922797661826665 7.415850952081339 0.8060661084030735 -1.5360022172723014 -0.6033418896009447 7.664341588318788" Properties=species:S:1:pos:R:3:initial_magmoms:R:1:castep_labels:S:1:forces:R:3 n_minim_iter=3 energy=-67.11837845206863 stress="0.003516026091726523 -0.007100060988595387 -0.00840599019267379 -0.007100060988595387 0.004663575488105697 -0.00635020666813386 -0.00840599019267379 -0.00635020666813386 0.002691881019704366" free_energy=-67.11837845206863 pbc="T T T"
P        3.77053067       0.58587595       3.18072233       0.00000000 NULL       0.25452751      -0.13843377       0.06696610
P        0.06288968       0.76704976       6.64284781       0.00000000 NULL      -0.25171462       0.50402126       0.26252116
P        1.34395726       0.04677775       2.77051135       0.00000000 NULL       0.34208523      -0.00165758       0.73633878
P        2.55293486       5.50474261       1.93674137       0.00000000 NULL      -0.18962322      -0.24077186       0.07444802
P       -0.32204380      -0.49691232       4.83236792       0.00000000 NULL       0.47195558      -0.11268395      -0.49647096
P        0.58080128       3.10704906       1.55696632       0.00000000 NULL      -0.31378025       0.15494036      -0.12644529
P        0.24826625       6.58815191       2.37542558       0.00000000 NULL       0.14523211       0.21323282      -0.02086178
P       -1.66922105       3.60912998       5.91837271       0.00000000 NULL       0.04940872      -0.32850211       0.11030541
P        2.65678497       2.43629456       0.98191648       0.00000000 NULL      -0.29471962       0.16656995      -0.25521059
P       -1.52573059       4.31593544       7.97619099       0.00000000 NULL       0.49873832       0.10554132      -0.20134332
P        1.48226048       3.78388220       7.64332564       0.00000000 NULL      -0.30583083       0.10469544       0.27852496
P       -1.94949126       1.62554746       6.72918912       0.00000000 NULL      -0.14881448      -0.54642207      -0.30304517
P        0.93619475       4.57391641       3.21308669       0.00000000 NULL      -0.25746444       0.11947019      -0.12572731
13
Lattice="5.066544667303684 -0.43927305279809464 -0.46716742202825573 -2.8512682249580372 7.2503393581642746 0.9504551727700311 -1.4303847757776174 -0.42234733541877517 7.710925064661082" Properties=species:S:1:pos:R:3:initial_magmoms:R:1:castep_labels:S:1:forces:R:3 n_minim_iter=4 energy=-67.33960025981561 stress="-0.010947935246874615 -0.0022411066062475297 -0.004592668276367665 -0.0022411066062475297 -0.007081657007684997 0.0053709080125431624 -0.004592668276367665 0.0053709080125431624 0.005878040114679963" free_energy=-67.33960025981561 pbc="T T T"
P        3.77311037       0.64601452       3.27859527       0.00000000 NULL      -0.25876304      -0.07470665      -0.45439586
P        0.14233097       0.90462719       6.70291663       0.00000000 NULL       0.13200245       0.34772749       0.19445311
P        1.33026018       0.08445949       2.88796543       0.00000000 NULL       0.27915515       0.06568051       0.70948484
P        2.54188458       5.42985484       2.14297461       0.00000000 NULL       0.10631692      -0.00530106      -0.06143270
P       -0.19962067      -0.38355619       4.86107374       0.00000000 NULL       0.59867647      -0.27064152      -0.08641268
P        0.58495037       3.10219439       1.69293008       0.00000000 NULL      -0.56949542      -0.02866749       0.20849190
P        0.28912764       6.52171276       2.51939552       0.00000000 NULL       0.59830859       0.37427544       0.24594982
P       -1.55059112       3.63272661       6.03687198       0.00000000 NULL      -0.00796215       0.20729790       0.22985965
P        2.57072735       2.38565096       1.03956458       0.00000000 NULL      -0.05023609      -0.17286064      -0.30726476
P       -1.38895393       4.42014025       8.08975442       0.00000000 NULL       1.08405928       0.24826490      -0.17118257
P        1.57502872       3.90107939       7.84188035       0.00000000 NULL      -0.81350849       0.32590089       0.12320202
P       -1.87774291       1.67321835       6.79132110       0.00000000 NULL      -0.53303617      -0.71871286      -0.16654160
P        0.94618845       4.52792521       3.39012168       0.00000000 NULL      -0.56551751      -0.29825691      -0.46421116
13
Lattice="5.1234421275743856 -0.40096671369448245 -0.34761447423040964 -2.8185718098744825 7.187090333185982 0.892617305980877 -1.2883447186749655 -0.4152182051006653 7.574012082626476" Properties=species:S:1:pos:R:3:initial_magmoms:R:1:castep_labels:S:1:forces:R:3 n_minim_iter=5 energy=-67.5664354051258 stress="-0.0014381700748004847 -0.0019002150375257356 0.0004405707646979728 -0.0019002150375257356 -0.0014127704519976535 -0.0015580216518802548 0.0004405707646979728 -0.0015580216518802548 0.0012822589523195883" free_energy=-67.5664354051258 pbc="T T T"
P        3.92021110       0.66833255       3.32196209       0.00000000 NULL      -0.13276532      -0.37546085      -0.35077673
P        0.30061455       0.92323069       6.59594451       0.00000000 NULL      -0.09518665       0.41816651       0.30245112
P        1.39306946       0.07537569       2.95199008       0.00000000 NULL       0.04390088      -0.02292254       0.33976098
P        2.65775024       5.42438464       2.21102956       0.00000000 NULL       0.13484833       0.21654227       0.02124759
P       -0.03307181      -0.38011798       4.78563181       0.00000000 NULL       0.33616177      -0.21294705      -0.27870362
P        0.63626742       3.12098974       1.73159050       0.00000000 NULL      -0.81306087      -0.04398494      -0.20629579
P        0.40207426       6.52567135       2.48013379       0.00000000 NULL       0.95979852       0.10599991       0.57520425
P       -1.39867615       3.59642735       5.92870474       0.00000000 NULL      -0.28449328      -0.25610304      -0.09969999
P        2.58584026       2.36918817       1.04749005       0.00000000 NULL       0.10718831      -0.00122913      -0.30630498
P       -1.17847616       4.43077814       7.91431558       0.00000000 NULL       0.74985117       0.05096451       0.49318715
P        1.80652889       3.93752691       7.79772515       0.00000000 NULL      -0.52326977       0.25912470       0.08091998
P       -1.78572383       1.60153304       6.63962227       0.00000000 NULL       0.00643557      -0.27775782      -0.18386986
P        1.03849598       4.49960458       3.39622435       0.00000000 NULL      -0.48940865       0.13960745      -0.38712010
13
Lattice="5.139526924038841 -0.37559978171626424 -0.38899757727815915 -2.789313903799861 7.178455528768418 0.9874647085114658 -1.3562436660699495 -0.343958396927432 7.514098433171461" Properties=species:S:1:pos:R:3:initial_magmoms:R:1:castep_labels:S:1:forces:R:3 n_minim_iter=6 energy=-67.66067103944373 stress="0.0034205615314613956 0.0013584538693149953 -0.005714056464365648 0.0013584538693149953 0.0013114509559780667 0.0018777688428210327 -0.005714056464365648 0.0018777688428210327 -0.0016878332572861517" free_energy=-67.66067103944373 pbc="T T T"
P        3.91573409       0.71258051       3.26234065       0.00000000 NULL      -0.23507479      -0.16752843      -0.34504625
P        0.25493668       1.00458841       6.54307690       0.00000000 NULL      -0.11655447       0.38416646       0.29164176
P        1.36412805       0.10241117       2.95236637       0.00000000 NULL       0.04093119      -0.06142731       0.21556515
P        2.68380823       5.46930856       2.24468194       0.00000000 NULL      -0.03989503       0.12837035       0.06570412
P       -0.03876189      -0.33728864       4.73289095       0.00000000 NULL       0.46800458      -0.40370358       0.06132688
P        0.61988329       3.15443034       1.75869118       0.00000000 NULL      -0.46104418      -0.21636883      -0.27307985
P        0.44995723       6.56955070       2.53043260       0.00000000 NULL       0.83818140      -0.01841093       0.32475521
P       -1.42721180       3.63632986       5.92338733       0.00000000 NULL      -0.33837532      -0.16696101      -0.06397217
P        2.57630441       2.38299107       1.01985563       0.00000000 NULL       0.00755197       0.29180296      -0.17875823
P       -1.19387479       4.51997672       7.89833418       0.00000000 NULL       0.19501955      -0.07586693       0.21723753
P        1.77200424       4.04760040       7.76825098       0.00000000 NULL      -0.31900499       0.27409135       0.05619415
P       -1.84999000       1.62964639       6.60064924       0.00000000 NULL       0.14820407      -0.09544112      -0.14341582
P        1.02124919       4.53678342       3.40987600       0.00000000 NULL      -0.18794398       0.12727701      -0.22815247
13
Lattice="5.039506385626683 -0.43676775047017213 -0.3259003413752484 -2.8153321126286652 7.186202044634276 0.9789117604389447 -1.2192311838805951 -0.3063484796074959 7.6057309612715605" Properties=species:S:1:pos:R:3:initial_magmoms:R:1:castep_labels:S:1:forces:R:3 n_minim_iter=7 energy=-67.80468186722193 stress="-0.006336340287651168 -0.001873550030613148 0.0007429717972323385 -0.001873550030613148 0.0074675417682687414 0.0017050678693143562 0.0007429717972323385 0.0017050678693143562 -0.00013958425775068004" free_energy=-67.80468186722193 pbc="T T T"
P        3.88127808       0.64601596       3.34104271       0.00000000 NULL       0.08769632      -0.34890343       0.23410994
P        0.32921593       1.04327121       6.64397629       0.00000000 NULL       0.26018943       0.08506145       0.15261658
P        1.35968372       0.07121749       3.08223833       0.00000000 NULL       0.57877519       0.35320993       0.01443955
P        2.59444629       5.44213316       2.35137433       0.00000000 NULL       0.10951072       0.22476459      -0.16412845
P        0.10785616      -0.34550095       4.79306421       0.00000000 NULL      -0.27333416      -0.19298135       0.38385999
P        0.53883304       3.15681678       1.81332239       0.00000000 NULL      -0.43836884      -0.23557119      -0.47009236
P        0.45761498       6.57507987       2.59870207       0.00000000 NULL       0.83690307      -0.37475214      -0.20209424
P       -1.37026064       3.62832975       5.98395235       0.00000000 NULL      -0.24226139       0.14017823       0.57396359
P        2.46653765       2.33211693       1.02452052       0.00000000 NULL      -0.16077156       0.47025211       0.00658163
P       -1.07490658       4.56293817       8.00276870       0.00000000 NULL       0.02772053      -0.35723600      -0.32329037
P        1.78707379       4.07484863       7.92916807       0.00000000 NULL      -0.24202113       0.15178090      -0.03335677
P       -1.76389326       1.60869958       6.64821461       0.00000000 NULL      -0.23430923       0.18488929      -0.02138403
P        0.94962103       4.51434009       3.48091390       0.00000000 NULL      -0.30972896      -0.10069239      -0.15122507
13
Lattice="5.088483795436334 -0.43635250250620994 -0.31354759353978323 -2.8530550552078293 6.995283627836418 0.9625487056365549 -1.20496525240754 -0.3051279965798982 7.7282377834692655" Properties=species:S:1:pos:R:3:initial_magmoms:R:1:castep_labels:S:1:forces:R:3 n_minim_iter=8 energy=-67.84608168021917 stress="0.004473453140101027 -0.003885980785056354 0.0016250675998493152 -0.003885980785056354 -0.0047450872690722855 0.0009943786862015162 0.0016250675998493152 0.0009943786862015162 0.0049984218094217565" free_energy=-67.84608168021917 pbc="T T T"
P        3.93341808       0.60099723       3.40028951       0.00000000 NULL       0.28319742      -0.18989715       0.54416786
P        0.35626466       1.01742237       6.75200662       0.00000000 NULL      -0.04559100       0.13992446       0.09760578
P        1.38104180       0.05573520       3.16760305       0.00000000 NULL       0.64055396       0.46452032       0.01937477
P        2.61921397       5.29537751       2.39104453       0.00000000 NULL       0.01394542       0.29709678      -0.12970351
P        0.15563493      -0.35397049       4.87583800       0.00000000 NULL      -0.50686433      -0.20552368       0.30264547
P        0.51703692       3.07160410       1.83428625       0.00000000 NULL      -0.23209748      -0.52964321      -0.66070426
P        0.49651176       6.39856102       2.62195483       0.00000000 NULL       0.70693567      -0.32174968      -0.36802047
P       -1.37563602       3.51525897       6.06675356       0.00000000 NULL      -0.06649188       0.53201232       0.52324790
P        2.46740775       2.26115984       1.02032563       0.00000000 NULL      -0.36318932       0.20808426       0.10637194
P       -1.05037648       4.43688946       8.10833472       0.00000000 NULL      -0.35444951      -0.15531841      -0.41297243
P        1.81954981       3.96918678       8.05792244       0.00000000 NULL       0.06941803       0.45086063      -0.03967389
P       -1.77417277       1.53978376       6.73461628       0.00000000 NULL       0.02208145      -0.38022279       0.25304583
P        0.94164525       4.38265367       3.52563044       0.00000000 NULL      -0.16744844      -0.31014385      -0.23538499
13
Lattice="5.049975942804551 -0.4005729579911034 -0.3197952174589605 -2.7876475223528114 6.940237661265985 0.935217570694109 -1.2034696349710043 -0.3485822762564041 7.8188556925133765" Properties=species:S:1:pos:R:3:initial_magmoms:R:1:castep_labels:S:1:forces:R:3 n_minim_iter=9 energy=-67.90833985197038 stress="0.001041737643521412 0.0005438838004760171 0.0016057633359866596 0.0005438838004760171 -0.0016138518385316002 -0.0023138500344112643 0.0016057633359866596 -0.0023138500344112643 0.009299869688134059" free_energy=-67.90833985197038 pbc="T T T"
P        3.91517197       0.59541832       3.43537186       0.00000000 NULL       0.29999907      -0.13297043       0.56668403
P        0.35917053       0.99284553       6.82330813       0.00000000 NULL       0.07981826       0.06584170       0.06047343
P        1.37489856       0.04865509       3.22632357       0.00000000 NULL       0.51748016       0.56161690       0.11885104
P        2.63476092       5.28825325       2.39127848       0.00000000 NULL      -0.00817399       0.25650519      -0.10572033
P        0.16675213      -0.38613300       4.94095226       0.00000000 NULL      -0.49457333      -0.25936789       0.22494986
P        0.50941588       3.04833475       1.82602158       0.00000000 NULL      -0.14734180      -0.34114218      -0.64639068
P        0.57111408       6.36060243       2.60548364       0.00000000 NULL       0.56862541      -0.28497539      -0.40373470
P       -1.35172378       3.46035614       6.12376010       0.00000000 NULL      -0.10210409       0.21476349       0.56766035
P        2.44101035       2.26471919       1.00104946       0.00000000 NULL      -0.09670674       0.28470076       0.07064329
P       -1.01414022       4.37384260       8.16042071       0.00000000 NULL      -0.33298968      -0.21100622      -0.24368200
P        1.82752701       3.94479898       8.12744410       0.00000000 NULL      -0.16022021       0.31172586       0.05245709
P       -1.76528597       1.46974795       6.79769811       0.00000000 NULL      -0.09937805      -0.05401257       0.22690341
P        0.94481486       4.34638716       3.53709614       0.00000000 NULL      -0.02443501      -0.41167922      -0.48909479
13
Lattice="5.033953218394716 -0.45064127546777316 -0.30809200706623563 -2.845845038887879 6.939761653132589 0.9816747660483173 -1.1712819642083785 -0.2782695067599366 7.815176589910411" Properties=species:S:1:pos:R:3:initial_magmoms:R:1:castep_labels:S:1:forces:R:3 n_minim_iter=10 energy=-68.02827384680265 stress="-0.0005030664175947504 -0.0021103421664556412 0.004610253312910811 -0.0021103421664556412 -0.0019136885611715057 0.00012744327419784271 0.004610253312910811 0.00012744327419784271 0.004255182365103844" free_energy=-68.02827384680265 pbc="T T T"
P        3.92251109       0.55926384       3.46793736       0.00000000 NULL       0.22429534      -0.24002607       0.46332955
P        0.37688179       1.05278923       6.83715152       0.00000000 NULL      -0.13462586       0.07443829       0.00953758
P        1.39168091       0.06392061       3.28090934       0.00000000 NULL       0.79592474       0.60898143      -0.19847873
P        2.57734770       5.27796479       2.45434335       0.00000000 NULL       0.34446221       0.20020032      -0.15317665
P        0.21533477      -0.37572333       4.95790956       0.00000000 NULL      -0.83986915      -0.51580697       0.59528729
P        0.43930825       3.03214789       1.82447167       0.00000000 NULL       0.02619682      -0.23961982      -0.40114936
P        0.58492460       6.34017797       2.63556986       0.00000000 NULL       0.19396899      -0.02295377      -0.36445719
P       -1.37409515       3.49884070       6.16829672       0.00000000 NULL      -0.07792846       0.35772705       0.19051199
P        2.36985292       2.24700302       0.99983895       0.00000000 NULL      -0.05701198       0.27252387       0.27681869
P       -1.02729579       4.42452173       8.16495684       0.00000000 NULL      -0.33318794       0.00096216      -0.12552733
P        1.80131468       4.00778473       8.17434245       0.00000000 NULL      -0.14667784       0.26407699      -0.08276322
P       -1.77221278       1.49680453       6.79755546       0.00000000 NULL       0.05922023      -0.12229004       0.27752949
P        0.87915650       4.32652630       3.56473977       0.00000000 NULL      -0.05476711      -0.63821343      -0.48746211
13
Lattice="4.987051174363586 -0.5206415499652541 -0.3341707447953791 -2.9231177585123285 6.842737175331286 1.08727847304995 -1.170646333976615 -0.15845631073315272 7.920816569908556" Properties=species:S:1:pos:R:3:initial_magmoms:R:1:castep_labels:S:1:forces:R:3 n_minim_iter=11 energy=-68.28786979781091 stress="0.0014725674379607572 -0.001180288207681518 0.004685645735458045 -0.001180288207681518 -0.0004138143822245116 0.0013617475959163373 0.004685645735458045 0.0013617475959163373 0.010432235971117261" free_energy=-68.28786979781091 pbc="T T T"
P        3.90045879       0.47818324       3.53590669       0.00000000 NULL       0.10952783      -0.47062462       0.27581489
P        0.32097744       1.16693500       6.94584650       0.00000000 NULL       0.21799423      -0.05458929      -0.12103976
P        1.44146288       0.11302409       3.41638306       0.00000000 NULL       0.36487173       0.32556950       0.34458996
P        2.50509731       5.19539340       2.57252554       0.00000000 NULL       0.69178959      -0.03377999      -0.04997789
P        0.24306993      -0.42066193       5.11148039       0.00000000 NULL      -0.72158655      -0.50826887      -0.05888615
P        0.32107505       2.97553990       1.84216737       0.00000000 NULL      -0.10428277      -0.60304549      -0.76901747
P        0.58990166       6.26173625       2.68679270       0.00000000 NULL      -0.07558728       0.21076562      -0.16851351
P       -1.45647148       3.50758422       6.28727590       0.00000000 NULL       0.11139367       0.64078994       0.40065119
P        2.23475486       2.21594781       1.00636742       0.00000000 NULL       0.07350762       0.04876260       0.44214202
P       -1.10339247       4.48013024       8.29459202       0.00000000 NULL      -0.65686805       0.14462465      -0.55591078
P        1.66568446       4.08911645       8.33963426       0.00000000 NULL       0.12168604       0.23731346      -0.21977025
P       -1.80879492       1.49665169       6.90380797       0.00000000 NULL      -0.40885301      -0.04099449       0.35565645
P        0.74590422       4.17633757       3.57936906       0.00000000 NULL       0.27640695       0.10347697       0.12426130
13
Lattice="4.956553980217958 -0.5827322326444911 -0.36499790709464963 -2.9995836805238865 6.744569825614468 1.1795111773131575 -1.1881513046851504 -0.05320168301457025 7.968045316756768" Properties=species:S:1:pos:R:3:initial_magmoms:R:1:castep_labels:S:1:forces:R:3 n_minim_iter=12 energy=-68.52308526638808 stress="0.006056138704867608 0.0005601027269473208 0.006884102699006178 0.0005601027269473208 -0.002341291774450016 0.006373689779908482 0.006884102699006178 0.006373689779908482 0.010858533394003458" free_energy=-68.52308526638808 pbc="T T T"
P        3.87681211       0.38604082       3.54976404       0.00000000 NULL      -0.14784265      -0.40936612       0.40892885
P        0.26790864       1.26596456       6.99908346       0.00000000 NULL       0.15400120      -0.15500648      -0.17061421
P        1.47645402       0.15408903       3.54756143       0.00000000 NULL       0.34811314       0.11004088       0.16666810
P        2.47866003       5.09738976       2.66381711       0.00000000 NULL       0.45876385      -0.05981777       0.20689743
P        0.25462516      -0.48618656       5.18952789       0.00000000 NULL      -0.74165681       0.07959407      -0.41520435
P        0.20273701       2.89466937       1.80449114       0.00000000 NULL       0.02119986      -0.23224126      -0.19480736
P        0.57658444       6.19686130       2.72537249       0.00000000 NULL       0.11253132      -0.17250918      -0.18558353
P       -1.54425943       3.52173098       6.35287258       0.00000000 NULL       0.17710787       0.71480571       0.38600836
P        2.13245543       2.18482082       1.02685486       0.00000000 NULL      -0.11828832      -0.27399048       0.31945726
P       -1.21426342       4.53202307       8.34293828       0.00000000 NULL      -0.58305851       0.11249857      -0.54577897
P        1.53314563       4.15348973       8.41818486       0.00000000 NULL       0.15329060       0.12886062      -0.03848843
P       -1.87712766       1.50032034       6.96591011       0.00000000 NULL      -0.25190010      -0.13442119       0.30836191
P        0.64252309       4.06401379       3.60086380       0.00000000 NULL       0.41773856       0.29155265      -0.24584506
13
Lattice="4.91711161503743 -0.6312739944397351 -0.39905945277058735 -3.0528474654233646 6.728544209368098 1.1970411412413693 -1.2106559701830244 -0.043068862718201914 8.079649911000711" Properties=species:S:1:pos:R:3:initial_magmoms:R:1:castep_labels:S:1:forces:R:3 n_minim_iter=13 energy=-68.62997968947283 stress="0.0011207107672573555 -0.0006410191975459564 0.006984193651279388 -0.0006410191975459564 -0.0028197087795506365 0.006215812874739988 0.006984193651279388 0.006215812874739988 0.015682615867862824" free_energy=-68.62997968947283 pbc="T T T"
P        3.81855024       0.30798284       3.59883174       0.00000000 NULL      -0.35720121      -0.44103188       0.00586654
P        0.21863541       1.27956345       7.09369914       0.00000000 NULL       0.18620662      -0.23537062       0.00175355
P        1.49479288       0.14908925       3.64942092       0.00000000 NULL       0.33800412      -0.05252967      -0.01614774
P        2.42624480       5.03244910       2.70972941       0.00000000 NULL       0.68659156       0.09343547      -0.02630177
P        0.22184591      -0.53719844       5.23158971       0.00000000 NULL      -0.73260303       0.24033625      -0.24676609
P        0.12827348       2.87371303       1.80493981       0.00000000 NULL      -0.09463905      -0.33225839      -0.61149886
P        0.53713315       6.14838071       2.70867261       0.00000000 NULL       0.11821559       0.04951968       0.24223919
P       -1.60863236       3.51602665       6.43539392       0.00000000 NULL       0.19368119       0.58713341       0.36070793
P        2.06434861       2.15878710       1.03195173       0.00000000 NULL      -0.22633288      -0.39137641       0.15394938
P       -1.30630778       4.53103004       8.41626508       0.00000000 NULL      -0.53108349       0.04568624      -0.26192067
P        1.40302874       4.13757346       8.51925657       0.00000000 NULL       0.27504663       0.14765824       0.06164727
P       -1.92999123       1.48125853       7.06426115       0.00000000 NULL      -0.15145922      -0.06087449       0.25250377
P        0.58346756       4.02058826       3.58153653       0.00000000 NULL       0.29557319       0.34967216       0.08396749
13
Lattice="4.958016070116358 -0.6802482442330913 -0.4044942250428388 -3.14473979512708 6.756281033085457 1.1902388790708935 -1.2239114537041857 -0.038887619170491924 8.072210803908932" Properties=species:S:1:pos:R:3:initial_magmoms:R:1:castep_labels:S:1:forces:R:3 n_minim_iter=14 energy=-68.74561254057335 stress="0.008669907183562446 -0.003047767685373208 0.005789216089156732 -0.003047767685373208 0.001069155785969965 0.004453755735681729 0.005789216089156732 0.004453755735681729 0.01240967602053348" free_energy=-68.74561254057335 pbc="T T T"
P        3.81206949       0.23299210       3.60582773       0.00000000 NULL      -0.17460227      -0.39890498      -0.14361347
P        0.19687469       1.29411971       7.10986501       0.00000000 NULL       0.04648969      -0.33006230      -0.21176131
P        1.57345263       0.12208079       3.67303223       0.00000000 NULL      -0.20416833      -0.17192519       0.35764399
P        2.44806326       5.00446289       2.73791180       0.00000000 NULL       0.44458802       0.12707826      -0.28970927
P        0.18729905      -0.57263955       5.20726632       0.00000000 NULL      -0.43959321       0.44600124      -0.41483175