52
Lattice="7.38508877819564 8.219421445145243e-40 -3.6713755724362136e-44 -8.219421445145245e-40 7.385088778195641 4.476830819001384e-16 8.56923843278678e-44 -1.044922535281847e-15 17.23729575984971" Properties=species:S:1:pos:R:3:initial_magmoms:R:1:castep_labels:S:1:forces:R:3 n_minim_iter=1 energy=-272.27915032890786 stress="0.001988510289988316 3.4651971881190508e-12 -1.2378136702563367e-12 3.4651971881190508e-12 0.0019885102834425283 4.5228944714897204e-13 -1.2378136702563367e-12 4.5228944714897204e-13 0.0038847216582638747" free_energy=-272.27915032890786 pbc="T T T"
P        3.41159465       5.24319454       9.90813206       0.00000000 NULL       0.06170703      -0.23044265       0.02490094
P        3.97349413       2.14189424       1.28948418       0.00000000 NULL      -0.06170703       0.23044265       0.02490094
P        2.14189424       3.41159465      14.21745600       0.00000000 NULL       0.23044265       0.06170703       0.02490094
P        5.24319454       3.97349413       5.59880812       0.00000000 NULL      -0.23044265      -0.06170703       0.02490094
P        5.96525260       0.76871313      16.07407028       0.00000000 NULL      -0.02422132       0.02569170       0.09841757
P        1.41983618       6.61637565       7.45542240       0.00000000 NULL       0.02422132      -0.02569170       0.09841757
P        6.61637565       5.96525260       3.14609846       0.00000000 NULL      -0.02569170      -0.02422132       0.09841757
P        0.76871313       1.41983618      11.76474634       0.00000000 NULL       0.02569170       0.02422132       0.09841757
P        6.45596227       1.29065667       9.04583417       0.00000000 NULL       0.38021386       0.04288884       0.05534561
P        0.92912651       6.09443211       0.42718629       0.00000000 NULL      -0.38021386      -0.04288884       0.05534560
P        6.09443211       6.45596227      13.35515811       0.00000000 NULL      -0.04288884       0.38021386       0.05534561
P        1.29065667       0.92912651       4.73651023       0.00000000 NULL       0.04288884      -0.38021386       0.05534560
P        1.17044987       3.26141819       2.36090309       0.00000000 NULL       0.10510449       0.17770210      -0.18897506
P        6.21463891       4.12367058      10.97955097       0.00000000 NULL      -0.10510449      -0.17770210      -0.18897506
P        4.12367058       1.17044987       6.67022703       0.00000000 NULL      -0.17770210       0.10510449      -0.18897506
P        3.26141819       6.21463891      15.28887491       0.00000000 NULL       0.17770210      -0.10510449      -0.18897506
P        5.42578794       3.12206729      16.04690509       0.00000000 NULL      -0.07308758      -0.08732886      -0.23784106
P        1.95930084       4.26302149       7.42825721       0.00000000 NULL       0.07308758       0.08732886      -0.23784106
P        4.26302149       5.42578794       3.11893327       0.00000000 NULL       0.08732886      -0.07308758      -0.23784106
P        3.12206729       1.95930084      11.73758115       0.00000000 NULL      -0.08732886       0.07308758      -0.23784107
P        1.25692496       7.04735220       2.59223631       0.00000000 NULL      -0.37787447       0.44283150       0.16595167
P        6.12816382       0.33773658      11.21088419       0.00000000 NULL       0.37787447      -0.44283150       0.16595167
P        0.33773658       1.25692496       6.90156025       0.00000000 NULL      -0.44283150      -0.37787447       0.16595167
P        7.04735220       6.12816382      15.52020813       0.00000000 NULL       0.44283150       0.37787447       0.16595167
P        4.44995945       5.44240688       0.92388717       0.00000000 NULL       0.03565682       0.36742496      -0.35204120
P        2.93512933       1.94268190       9.54253505       0.00000000 NULL      -0.03565682      -0.36742496      -0.35204120
P        1.94268190       4.44995945       5.23321111       0.00000000 NULL      -0.36742496       0.03565682      -0.35204119
P        5.44240688       2.93512933      13.85185899       0.00000000 NULL       0.36742496      -0.03565682      -0.35204119
P        2.61465658       6.68529594      13.21853057       0.00000000 NULL       0.06861858      -0.11672375      -0.21060353
P        4.77043220       0.69979284       4.59988269       0.00000000 NULL      -0.06861858       0.11672376      -0.21060353
P        0.69979284       2.61465658      17.52785451       0.00000000 NULL       0.11672375       0.06861858      -0.21060353
P        6.68529594       4.77043220       8.90920663       0.00000000 NULL      -0.11672375      -0.06861858      -0.21060353
P        7.50051489       5.85504573      11.35909825       0.00000000 NULL      -0.19572038       0.28720141       0.34276940
P       -0.11542611       1.53004305       2.74045037       0.00000000 NULL       0.19572038      -0.28720141       0.34276940
P        1.53004305       7.50051489      15.66842219       0.00000000 NULL      -0.28720141      -0.19572038       0.34276940
P        5.85504573      -0.11542611       7.04977431       0.00000000 NULL       0.28720141       0.19572038       0.34276940
P        5.41475649       3.34494403       7.77552986       0.00000000 NULL       0.29373940       0.16017809       0.34496231
P        1.97033229       4.04014475      16.39417774       0.00000000 NULL      -0.29373940      -0.16017809       0.34496231
P        4.04014475       5.41475649      12.08485380       0.00000000 NULL      -0.16017809       0.29373940       0.34496231
P        3.34494403       1.97033229       3.46620592       0.00000000 NULL       0.16017809      -0.29373940       0.34496231
P        7.14951683       4.94297673       5.03047210       0.00000000 NULL       0.07205771       0.01531689       0.22634725
P        0.23557195       2.44211205      13.64911998       0.00000000 NULL      -0.07205771      -0.01531689       0.22634725
P        2.44211205       7.14951683       9.33979604       0.00000000 NULL      -0.01531689       0.07205771       0.22634725
P        4.94297673       0.23557195       0.72114816       0.00000000 NULL       0.01531689      -0.07205771       0.22634725
P        2.30825808       4.02861835      11.53491988       0.00000000 NULL      -0.11579496       0.30165681      -0.03755428
P        5.07683070       3.35647043       2.91627200       0.00000000 NULL       0.11579496      -0.30165681      -0.03755428
P        3.35647043       2.30825808      15.84424382       0.00000000 NULL      -0.30165681      -0.11579496      -0.03755428
P        4.02861835       5.07683070       7.22559594       0.00000000 NULL       0.30165681       0.11579496      -0.03755428
P        2.87448508       6.87520671       5.71027851       0.00000000 NULL      -0.25920568       0.39166927      -0.23167962
P        4.51060369       0.50988207      14.32892639       0.00000000 NULL       0.25920568      -0.39166928      -0.23167962
P        0.50988207       2.87448508      10.01960245       0.00000000 NULL      -0.39166927      -0.25920568      -0.23167962
P        6.87520671       4.51060369       1.40095457       0.00000000 NULL       0.39166927       0.25920568      -0.23167962
52
Lattice="7.372319373059608 8.205209412552385e-40 -3.8757126230953637e-44 -8.205209412552389e-40 7.37231937305961 3.7916749995408634e-16 8.055560252575092e-44 -1.1962697328112102e-15 17.179117872088124" Properties=species:S:1:pos:R:3:initial_magmoms:R:1:castep_labels:S:1:forces:R:3 n_minim_iter=2 energy=-272.2928159929414 stress="-0.0011982877014671664 7.837082344323038e-13 -1.07685703555863e-12 7.837082344323038e-13 -0.0011982876958638224 -5.765225362445892e-12 -1.07685703555863e-12 -5.765225362445892e-12 -0.0008877314950165364" free_energy=-272.2928159929414 pbc="T T T"
P        3.40575276       5.23391568       9.87471393       0.00000000 NULL       0.07587369      -0.23464603      -0.00561642
P        3.96656661       2.13840369       1.28515499       0.00000000 NULL      -0.07587369       0.23464603      -0.00561642
P        2.13840369       3.40575276      14.16949340       0.00000000 NULL       0.23464603       0.07587369      -0.00561642
P        5.23391568       3.96656661       5.57993446       0.00000000 NULL      -0.23464603      -0.07587369      -0.00561642
P        5.95491582       0.76740770      16.01990921       0.00000000 NULL       0.01789276       0.03586208       0.09601173
P        1.41740356       6.60491167       7.43035028       0.00000000 NULL      -0.01789276      -0.03586208       0.09601173
P        6.60491167       5.95491582       3.13557081       0.00000000 NULL      -0.03586208       0.01789276       0.09601172
P        0.76740770       1.41740356      11.72512975       0.00000000 NULL       0.03586208      -0.01789276       0.09601173
P        6.44515076       1.28846466       9.01535448       0.00000000 NULL       0.35103146       0.04004469       0.03725278
P        0.92716861       6.08385472       0.42579555       0.00000000 NULL      -0.35103146      -0.04004469       0.03725278
P        6.08385472       6.44515076      13.31013395       0.00000000 NULL      -0.04004469       0.35103146       0.03725278
P        1.28846466       0.92716861       4.72057502       0.00000000 NULL       0.04004469      -0.35103146       0.03725278
P        1.16852320       3.25594316       2.35276041       0.00000000 NULL       0.16944835       0.21170635      -0.13750028
P        6.20379617       4.11637621      10.94231935       0.00000000 NULL      -0.16944835      -0.21170635      -0.13750028
P        4.11637621       1.16852320       6.64753988       0.00000000 NULL      -0.21170635       0.16944835      -0.13750028
P        3.25594316       6.20379617      15.23709882       0.00000000 NULL       0.21170635      -0.16944835      -0.13750028
P        5.41633878       3.11658828      15.99252548       0.00000000 NULL      -0.05058366      -0.04455403      -0.16937600
P        1.95598059       4.25573109       7.40296654       0.00000000 NULL       0.05058366       0.04455403      -0.16937600
P        4.25573109       5.41633878       3.10818707       0.00000000 NULL       0.04455403      -0.05058366      -0.16937600
P        3.11658828       1.95598059      11.69774601       0.00000000 NULL      -0.04455403       0.05058366      -0.16937600
P        1.25440244       7.03557600       2.58364032       0.00000000 NULL      -0.34252621       0.42657693       0.16359778
P        6.11791694       0.33674337      11.17319925       0.00000000 NULL       0.34252621      -0.42657692       0.16359778
P        0.33674337       1.25440244       6.87841978       0.00000000 NULL      -0.42657692      -0.34252621       0.16359778
P        7.03557600       6.11791694      15.46797872       0.00000000 NULL       0.42657692       0.34252621       0.16359778
P        4.44229807       5.43333607       0.92044415       0.00000000 NULL       0.01766742       0.35267983      -0.42070466
P        2.93002130       1.93898331       9.51000308       0.00000000 NULL      -0.01766742      -0.35267983      -0.42070466
P        1.93898331       4.44229807       5.21522361       0.00000000 NULL      -0.35267983       0.01766742      -0.42070466
P        5.43333607       2.93002130      13.80478255       0.00000000 NULL       0.35267983      -0.01766742      -0.42070466
P        2.61019905       6.67362866      13.17372218       0.00000000 NULL       0.01946746      -0.09318966      -0.26227406
P        4.76212033       0.69869071       4.58416324       0.00000000 NULL      -0.01946747       0.09318966      -0.26227406
P        0.69869071       2.61019905      17.46850165       0.00000000 NULL       0.09318966       0.01946747      -0.26227406
P        6.67362866       4.76212033       8.87894271       0.00000000 NULL      -0.09318966      -0.01946747      -0.26227406
P        7.48736504       5.84518730      11.32107621       0.00000000 NULL      -0.14715835       0.29198695       0.35434150
P       -0.11504566       1.52713207       2.73151727       0.00000000 NULL       0.14715835      -0.29198695       0.35434150
P        1.52713207       7.48736504      15.61585567       0.00000000 NULL      -0.29198695      -0.14715835       0.35434151
P        5.84518730      -0.11504566       7.02629674       0.00000000 NULL       0.29198695       0.14715835       0.35434151
P        5.40566540       3.33930838       7.74960480       0.00000000 NULL       0.28452192       0.09779733       0.36244306
P        1.96665397       4.03301099      16.33916374       0.00000000 NULL      -0.28452192      -0.09779733       0.36244306
P        4.03301099       5.40566540      12.04438427       0.00000000 NULL      -0.09779733       0.28452192       0.36244306
P        3.33930838       1.96665397       3.45482533       0.00000000 NULL       0.09779733      -0.28452192       0.36244306
P        7.13722134       4.93444409       5.01370250       0.00000000 NULL       0.08474602       0.00671171       0.26143976
P        0.23509803       2.43787528      13.60326144       0.00000000 NULL      -0.08474602      -0.00671171       0.26143976
P        2.43787528       7.13722134       9.30848197       0.00000000 NULL      -0.00671171       0.08474602       0.26143976
P        4.93444409       0.23509803       0.71892303       0.00000000 NULL       0.00671171      -0.08474602       0.26143976
P        2.30415991       4.02193131      11.49595353       0.00000000 NULL      -0.14903043       0.31248008      -0.02139817
P        5.06815947       3.35038806       2.90639459       0.00000000 NULL       0.14903043      -0.31248009      -0.02139817
P        3.35038806       2.30415991      15.79073300       0.00000000 NULL      -0.31248008      -0.14903043      -0.02139817
P        4.02193131       5.06815947       7.20117406       0.00000000 NULL       0.31248008       0.14903043      -0.02139817
P        2.86927533       6.86368088       5.69079191       0.00000000 NULL      -0.25065301       0.36673080      -0.25821703
P        4.50304404       0.50863849      14.28035084       0.00000000 NULL       0.25065301      -0.36673080      -0.25821703
P        0.50863849       2.86927533       9.98557137       0.00000000 NULL      -0.36673080      -0.25065301      -0.25821703
P        6.86368088       4.50304404       1.39601244       0.00000000 NULL       0.36673080       0.25065301      -0.25821703
52
Lattice="7.439286958153888 8.279742681086495e-40 -4.1453149589612283e-44 -8.279742681086498e-40 7.439286958153888 4.429300059859096e-16 7.399932515096163e-44 -1.0536551914762344e-15 16.974848062616985" Properties=species:S:1:pos:R:3:initial_magmoms:R:1:castep_labels:S:1:forces:R:3 n_minim_iter=3 energy=-272.41366540097806 stress="0.005593215905297664 -5.2811514973562225e-12 -7.1596576032887785e-12 -5.2811514973562225e-12 0.005593215902552708 -4.8376849897369004e-12 -7.1596576032887785e-12 -4.8376849897369004e-12 -0.007789138440225366" free_energy=-272.41366540097806 pbc="T T T"
P        3.43886704       5.27439589       9.75737925       0.00000000 NULL      -0.03478429      -0.09632506       0.01737167
P        4.00041992       2.16489107       1.26995522       0.00000000 NULL       0.03478429       0.09632506       0.01737167
P        2.16489107       3.43886704      14.00109127       0.00000000 NULL       0.09632506      -0.03478429       0.01737167
P        5.27439589       4.00041992       5.51366724       0.00000000 NULL      -0.09632506       0.03478429       0.01737167
P        6.00920025       0.77537902      15.83227834       0.00000000 NULL       0.03230860       0.08927214       0.04769304
P        1.43008671       6.66390794       7.34485431       0.00000000 NULL      -0.03230860      -0.08927214       0.04769304
P        6.66390794       6.00920025       3.10114230       0.00000000 NULL      -0.08927215       0.03230860       0.04769304
P        0.77537902       1.43008671      11.58856633       0.00000000 NULL       0.08927214      -0.03230860       0.04769304
P        6.51455643       1.30140350       8.90940356       0.00000000 NULL       0.26504359       0.06809181       0.00166416
P        0.92473052       6.13788346       0.42197953       0.00000000 NULL      -0.26504359      -0.06809181       0.00166416
P        6.13788346       6.51455643      13.15311557       0.00000000 NULL      -0.06809181       0.26504359       0.00166416
P        1.30140350       0.92473052       4.66569154       0.00000000 NULL       0.06809181      -0.26504359       0.00166416
P        1.18372973       3.29164089       2.32030632       0.00000000 NULL      -0.07811575       0.06086101      -0.03290164
P        6.25555723       4.14764607      10.80773035       0.00000000 NULL       0.07811575      -0.06086101      -0.03290164
P        4.14764607       1.18372973       6.56401833       0.00000000 NULL      -0.06086101      -0.07811575      -0.03290164
P        3.29164089       6.25555723      15.05144236       0.00000000 NULL       0.06086101       0.07811575      -0.03290164
P        5.46382225       3.14319592      15.79680737       0.00000000 NULL      -0.27191310      -0.21943238       0.04224985
P        1.97546471       4.29609103       7.30938333       0.00000000 NULL       0.27191310       0.21943238       0.04224985
P        4.29609103       5.46382225       3.06567132       0.00000000 NULL       0.21943238      -0.27191310       0.04224985
P        3.14319592       1.97546471      11.55309535       0.00000000 NULL      -0.21943238       0.27191310       0.04224985
P        1.25514297       7.11252284       2.55777035       0.00000000 NULL      -0.35219949       0.35654269       0.12139781
P        6.18414398       0.32676412      11.04519439       0.00000000 NULL       0.35219949      -0.35654269       0.12139781
P        0.32676412       1.25514297       6.80148237       0.00000000 NULL      -0.35654269      -0.35219949       0.12139781
P        7.11252284       6.18414398      15.28890640       0.00000000 NULL       0.35654269       0.35219949       0.12139781
P        4.48333393       5.49348092       0.89763032       0.00000000 NULL       0.06324229       0.35014279      -0.61833547
P        2.95595303       1.94580603       9.38505435       0.00000000 NULL      -0.06324229      -0.35014279      -0.61833547
P        1.94580603       4.48333393       5.14134234       0.00000000 NULL      -0.35014279       0.06324229      -0.61833547
P        5.49348092       2.95595303      13.62876637       0.00000000 NULL       0.35014279      -0.06324229      -0.61833547
P        2.63490558       6.73123560      13.00975128       0.00000000 NULL       0.00729995      -0.04031858      -0.32155428
P        4.80438138       0.70805136       4.52232725       0.00000000 NULL      -0.00729995       0.04031858      -0.32155428
P        0.70805136       2.63490558      17.25346329       0.00000000 NULL       0.04031858       0.00729995      -0.32155428
P        6.73123560       4.80438138       8.76603926       0.00000000 NULL      -0.04031858      -0.00729995      -0.32155428
P        7.55052368       5.90707546      11.19683385       0.00000000 NULL      -0.22205862       0.04249782       0.27815351
P       -0.11123672       1.53221150       2.70940982       0.00000000 NULL       0.22205862      -0.04249782       0.27815351
P        1.53221150       7.55052368      15.44054586       0.00000000 NULL      -0.04249782      -0.22205863       0.27815351
P        5.90707546      -0.11123672       6.95312183       0.00000000 NULL       0.04249782       0.22205862       0.27815351
P        5.46345139       3.37311695       7.66802073       0.00000000 NULL       0.15525741       0.15106612       0.26102686
P        1.97583556       4.06617000      16.15544476       0.00000000 NULL      -0.15525741      -0.15106612       0.26102686
P        4.06617000       5.46345139      11.91173274       0.00000000 NULL      -0.15106612       0.15525741       0.26102686
P        3.37311695       1.97583556       3.42430871       0.00000000 NULL       0.15106612      -0.15525741       0.26102686
P        7.20451162       4.97954123       4.96152397       0.00000000 NULL      -0.06030362      -0.09566187       0.37645748
P        0.23477534       2.45974573      13.44894800       0.00000000 NULL       0.06030362       0.09566187       0.37645748
P        2.45974573       7.20451162       9.20523598       0.00000000 NULL       0.09566187      -0.06030362       0.37645748
P        4.97954123       0.23477534       0.71781195       0.00000000 NULL      -0.09566187       0.06030362       0.37645748
P        2.32085771       4.06782748      11.35849692       0.00000000 NULL      -0.02696020       0.10931269      -0.04980282
P        5.11842925       3.37145948       2.87107289       0.00000000 NULL       0.02696020      -0.10931269      -0.04980282
P        3.37145948       2.32085771      15.60220893       0.00000000 NULL      -0.10931269      -0.02696020      -0.04980282
P        4.06782748       5.11842925       7.11478490       0.00000000 NULL       0.10931269       0.02696020      -0.04980282
P        2.88768602       6.93732803       5.61571355       0.00000000 NULL      -0.11074225       0.35894290      -0.12342017
P        4.55160094       0.50195893      14.10313758       0.00000000 NULL       0.11074225      -0.35894290      -0.12342017
P        0.50195893       2.88768602       9.85942557       0.00000000 NULL      -0.35894290      -0.11074225      -0.12342017
P        6.93732803       4.55160094       1.37200154       0.00000000 NULL       0.35894290       0.11074225      -0.12342017
52
Lattice="7.403859127276168 8.240312380162953e-40 -4.04555884096447e-44 -8.240312380162957e-40 7.403859127276168 4.520072454133396e-16 7.654912051070221e-44 -1.0346137515721045e-15 17.087188030151246" Properties=species:S:1:pos:R:3:initial_magmoms:R:1:castep_labels:S:1:forces:R:3 n_minim_iter=4 energy=-272.6909484898831 stress="-0.00042525813037766805 4.1097230722101655e-12 3.073023640611617e-12 4.1097230722101655e-12 -0.0004252581634752347 -1.147010989217321e-11 3.073023640611617e-12 -1.147010989217321e-11 -0.0012895899815640256" free_energy=-272.6909484898831 pbc="T T T"
P        3.42701178       5.23364821       9.82221291       0.00000000 NULL      -0.01206462      -0.02596130       0.15418142
P        3.97684734       2.17021092       1.27861889       0.00000000 NULL       0.01206462       0.02596130       0.15418142
P        2.17021092       3.42701178      14.09400991       0.00000000 NULL       0.02596130      -0.01206462       0.15418142
P        5.23364821       3.97684734       5.55041590       0.00000000 NULL      -0.02596130       0.01206462       0.15418142
P        5.98113690       0.77424511      15.94347897       0.00000000 NULL      -0.13223383       0.10869149       0.10346716
P        1.42272223       6.62961401       7.39988495       0.00000000 NULL       0.13223383      -0.10869149       0.10346716
P        6.62961401       5.98113690       3.12808795       0.00000000 NULL      -0.10869149      -0.13223383       0.10346716
P        0.77424511       1.42272223      11.67168196       0.00000000 NULL       0.10869149       0.13223383       0.10346716
P        6.50810650       1.29817384       8.97108883       0.00000000 NULL       0.01821663      -0.08653612      -0.08504337
P        0.89575262       6.10568529       0.42749482       0.00000000 NULL      -0.01821663       0.08653612      -0.08504337
P        6.10568529       6.50810650      13.24288584       0.00000000 NULL       0.08653612       0.01821662      -0.08504337
P        1.29817384       0.89575262       4.69929183       0.00000000 NULL      -0.08653612      -0.01821662      -0.08504337
P        1.18759987       3.28940393       2.32576686       0.00000000 NULL      -0.12709403      -0.15927756      -0.16154999
P        6.21625926       4.11445520      10.86936088       0.00000000 NULL       0.12709403       0.15927756      -0.16154999
P        4.11445520       1.18759987       6.59756387       0.00000000 NULL       0.15927756      -0.12709403      -0.16154999
P        3.28940393       6.21625926      15.14115788       0.00000000 NULL      -0.15927756       0.12709403      -0.16154999
P        5.43286147       3.12355434      15.88943818       0.00000000 NULL      -0.31195471      -0.18687302      -0.23131641
P        1.97099765       4.28030478       7.34584417       0.00000000 NULL       0.31195471       0.18687302      -0.23131641
P        4.28030478       5.43286147       3.07404716       0.00000000 NULL       0.18687303      -0.31195471      -0.23131641
P        3.12355434       1.97099765      11.61764117       0.00000000 NULL      -0.18687302       0.31195471      -0.23131641
P        1.22463480       7.10832596       2.58578735       0.00000000 NULL       0.02124553       0.11712586       0.10715129
P        6.17922432       0.29553317      11.12938137       0.00000000 NULL      -0.02124553      -0.11712586       0.10715129
P        0.29553317       1.22463480       6.85758436       0.00000000 NULL      -0.11712586       0.02124553       0.10715129
P        7.10832596       6.17922432      15.40117837       0.00000000 NULL       0.11712586      -0.02124553       0.10715129
P        4.46374574       5.49213072       0.87502745       0.00000000 NULL      -0.06638837       0.09831279      -0.25553693
P        2.94011339       1.91172841       9.41862146       0.00000000 NULL       0.06638837      -0.09831279      -0.25553693
P        1.91172841       4.46374574       5.14682446       0.00000000 NULL      -0.09831279      -0.06638837      -0.25553692
P        5.49213072       2.94011339      13.69041847       0.00000000 NULL       0.09831279       0.06638837      -0.25553693
P        2.62454179       6.69250939      13.07849639       0.00000000 NULL      -0.18702546       0.19904867       0.09013622
P        4.77931733       0.71134974       4.53490238       0.00000000 NULL       0.18702546      -0.19904867       0.09013622
P        0.71134974       2.62454179      17.35029340       0.00000000 NULL      -0.19904867      -0.18702546       0.09013622
P        6.69250939       4.77931733       8.80669939       0.00000000 NULL       0.19904867       0.18702545       0.09013622
P        7.50310246       5.89804725      11.29472481       0.00000000 NULL      -0.02563893      -0.44240264       0.13954077
P       -0.09924333       1.50581188       2.75113080       0.00000000 NULL       0.02563893       0.44240264       0.13954077
P        1.50581188       7.50310246      15.56652182       0.00000000 NULL       0.44240264      -0.02563893       0.13954077
P        5.89804725      -0.09924333       7.02292781       0.00000000 NULL      -0.44240264       0.02563893       0.13954077
P        5.45681853       3.36522950       7.74289747       0.00000000 NULL      -0.14751126      -0.08096900      -0.15524788
P        1.94704059       4.03862962      16.28649148       0.00000000 NULL       0.14751125       0.08096900      -0.15524788
P        4.03862962       5.45681853      12.01469447       0.00000000 NULL       0.08096900      -0.14751126      -0.15524788
P        3.36522950       1.94704059       3.47110046       0.00000000 NULL      -0.08096900       0.14751126      -0.15524788
P        7.17521029       4.95598079       5.01219759       0.00000000 NULL      -0.38529007       0.08099829       0.18414681
P        0.22864884       2.44787834      13.55579160       0.00000000 NULL       0.38529006      -0.08099830       0.18414681
P        2.44787834       7.17521029       9.28399460       0.00000000 NULL      -0.08099829      -0.38529007       0.18414681
P        4.95598079       0.22864884       0.74040058       0.00000000 NULL       0.08099829       0.38529007       0.18414681
P        2.30058508       4.06908866      11.43178509       0.00000000 NULL       0.05602989       0.05559777      -0.03560395
P        5.10327405       3.33477047       2.88819108       0.00000000 NULL      -0.05602989      -0.05559777      -0.03560395
P        3.33477047       2.30058508      15.70358210       0.00000000 NULL      -0.05559777       0.05602989      -0.03560395
P        4.06908866       5.10327405       7.15998808       0.00000000 NULL       0.05559777      -0.05602989      -0.03560395
P        2.85696762       6.93023962       5.63621515       0.00000000 NULL       0.11542485       0.05863740       0.14567485
P        4.54689151       0.47361951      14.17980917       0.00000000 NULL      -0.11542485      -0.05863740       0.14567485
P        0.47361951       2.85696762       9.90801216       0.00000000 NULL      -0.05863740       0.11542485       0.14567485
P        6.93023962       4.54689151       1.36441815       0.00000000 NULL       0.05863740      -0.11542485       0.14567485
52
Lattice="7.448713873382716 8.29023460495099e-40 -4.082214740784984e-44 -8.290234604950994e-40 7.448713873382715 4.559170984900695e-16 7.605263807354453e-44 -1.0306139632048199e-15 17.06627788964631" Properties=species:S:1:pos:R:3:initial_magmoms:R:1:castep_labels:S:1:forces:R:3 n_minim_iter=5 energy=-273.05450704328933 stress="-0.0009652851743618009 -2.03696128629358e-12 -5.228394917615887e-12 -2.03696128629358e-12 -0.000965285183369568 6.304039323971269e-13 -5.228394917615887e-12 6.304039323971269e-13 -0.001275169404056362" free_energy=-273.05450704328933 pbc="T T T"
P        3.45144440       5.24282625       9.83387926       0.00000000 NULL       0.10957299      -0.03437010      -0.00245978
P        3.99726947       2.20588762       1.30074032       0.00000000 NULL      -0.10957299       0.03437010      -0.00245978
P        2.20588762       3.45144440      14.10044874       0.00000000 NULL       0.03437010       0.10957299      -0.00245978
P        5.24282625       3.99726947       5.56730979       0.00000000 NULL      -0.03437010      -0.10957299      -0.00245978
P        5.99657698       0.79753268      15.94680236       0.00000000 NULL      -0.09574343       0.12563627      -0.14926547