20
Lattice="4.7959256560473476 -4.392652952412651e-07 8.866334434902134e-07 6.082515184510398e-07 9.88776987493764 1.6085848116768113 -2.397964516838415 -2.7576490128300786 7.768813594574347" Properties=species:S:1:pos:R:3:initial_magmoms:R:1:castep_labels:S:1:forces:R:3 n_minim_iter=1 energy=-104.8081934466589 stress="0.009280131473705544 -1.1150705555660776e-09 -9.51094639553383e-10 -1.1150705555660776e-09 -0.012313531319271851 -0.004701474899216894 -9.51094639553383e-10 -0.004701474899216894 0.0120976756690384" free_energy=-104.8081934466589 pbc="T T T"
P        0.43601821       5.35893700       3.51366864       0.00000000 NULL      -0.78272779      -0.15811379      -1.08827953
P        2.83398027       1.77118335       5.86373081       0.00000000 NULL      -0.78272816       0.15811393       1.08827924
P        4.97608005       7.70451934       0.49697754       0.00000000 NULL       0.64924159      -1.44423553      -0.06333772
P        2.57811492      -0.57439938       8.88042270       0.00000000 NULL       0.64924183       1.44423541       0.06333796
P       -0.81640236       5.87917591       1.53463184       0.00000000 NULL      -0.05326187      -0.56026020      -0.07917159
P        1.58155888       1.25094468       7.84276715       0.00000000 NULL      -0.05326180       0.56026021       0.07917157
P        0.16396611       4.23265139       6.14825779       0.00000000 NULL      -0.20167694      -0.71288449      -0.49274617
P        2.56192936       2.89746902       3.22914156       0.00000000 NULL      -0.20167700       0.71288453       0.49274610
P        4.60295534       8.55779931       2.39670994       0.00000000 NULL      -0.07966622       0.85489111       1.14478091
P        2.20499075      -1.42767928       6.98069016       0.00000000 NULL      -0.07966595      -0.85489110      -1.14478094
P        0.97390051       2.20552489       4.64927900       0.00000000 NULL       0.24304522      -0.36471049      -0.56579922
P       -1.42406208       4.92459580       4.72811976       0.00000000 NULL       0.24304508       0.36471044       0.56579931
P        3.49783080      -0.19510370       5.29709578       0.00000000 NULL       0.34008914      -0.00589895      -0.49752622
P        1.09986888       7.32522393       4.08030391       0.00000000 NULL       0.34008896       0.00589888       0.49752635
P        2.52376981      -0.50878799       0.99295707       0.00000000 NULL       0.09731396      -0.27958340      -0.14039360
P        0.12580636       7.63890840       8.38444227       0.00000000 NULL       0.09731396       0.27958338       0.14039363
P        1.04534651       5.97752708       7.08810264       0.00000000 NULL      -0.50696312       0.34652545       0.39147770
P        3.44330979       1.15259316       2.28929704       0.00000000 NULL      -0.50696304      -0.34652536      -0.39147789
P        2.62939784       6.85869349       5.87377023       0.00000000 NULL       0.29460635       0.36460089      -1.29421818
P        0.23143485       0.27142691       3.50362914       0.00000000 NULL       0.29460581      -0.36460095       1.29421829
20
Lattice="4.705315880131247 -4.3096622378533423e-07 8.69882212687004e-07 6.225505166658479e-07 10.157222951349247 1.66473479409113 -2.3526595883549057 -2.753364740712884 7.5517282288902425" Properties=species:S:1:pos:R:3:initial_magmoms:R:1:castep_labels:S:1:forces:R:3 n_minim_iter=2 energy=-105.04596038697898 stress="-0.0028283320673291503 -6.174231889098923e-10 1.2053553242647731e-09 -6.174231889098923e-10 -0.0021278159636205804 0.0036775677148606755 1.2053553242647731e-09 0.0036775677148606755 -0.007515313732765374" free_energy=-105.04596038697898 pbc="T T T"
P        0.42373005       5.52960064       3.47373620       0.00000000 NULL      -0.36248329       0.36661191      -0.98191333
P        2.77638724       1.87425707       5.74272784       0.00000000 NULL      -0.36248372      -0.36661185       0.98191320
P        4.88542631       7.89934802       0.55887141       0.00000000 NULL       0.78760353      -1.46994884       0.04973631
P        2.53276611      -0.49549069       8.65759341       0.00000000 NULL       0.78760382       1.46994870      -0.04973602
P       -0.80125361       6.04194418       1.55340981       0.00000000 NULL      -0.18281006      -0.54418138      -0.32955897
P        1.55140277       1.36191376       7.66305378       0.00000000 NULL      -0.18281008       0.54418141       0.32955891
P        0.15982467       4.39688983       6.03589511       0.00000000 NULL       0.19256437      -0.66061530      -0.21172870
P        2.51248301       3.00696793       3.18056883       0.00000000 NULL       0.19256442       0.66061526       0.21172877
P        4.51557913       8.80540224       2.42661904       0.00000000 NULL       0.14774144       0.78608722       1.21998107
P        2.16291945      -1.40154485       6.78984565       0.00000000 NULL       0.14774175      -0.78608725      -1.21998101
P        0.95675826       2.30509970       4.55370599       0.00000000 NULL      -0.21059632      -0.43504740      -0.55094387
P       -1.39589945       5.09875834       4.66275738       0.00000000 NULL      -0.21059645       0.43504744       0.55094379
P        3.43350592      -0.14896690       5.16280757       0.00000000 NULL       0.09038716       0.36961379      -0.19815105
P        1.08084889       7.55282449       4.05365672       0.00000000 NULL       0.09038702      -0.36961381       0.19815108
P        2.47659162      -0.51377425       0.96296300       0.00000000 NULL      -0.12283921      -0.39268239       0.33980040
P        0.12393310       7.91763201       8.25350094       0.00000000 NULL      -0.12283901       0.39268241      -0.33980044
P        1.02297330       6.20143276       6.97417275       0.00000000 NULL      -0.99528997       0.13279339       0.25067316
P        3.37563166       1.20242484       2.24229152       0.00000000 NULL      -0.99528990      -0.13279321      -0.25067352
P        2.58124499       7.09349983       5.78945150       0.00000000 NULL       0.65572251       0.23146810      -1.27160113
P        0.22858686       0.31035792       3.42701247       0.00000000 NULL       0.65572200      -0.23146822       1.27160137
20
Lattice="4.690250413280236 -4.295863573447591e-07 8.670970262996332e-07 6.49701290465984e-07 10.375060493383478 1.6257957934765404 -2.345126877339384 -2.856148986751256 7.622024542149817" Properties=species:S:1:pos:R:3:initial_magmoms:R:1:castep_labels:S:1:forces:R:3 n_minim_iter=3 energy=-105.19026944615207 stress="0.006512552043833483 9.675045958960144e-10 -1.5247878548024534e-10 9.675045958960144e-10 0.018587258671343216 0.0007525493349882489 -1.5247878548024534e-10 0.0007525493349882489 0.007756203001138676" free_energy=-105.19026944615207 pbc="T T T"
P        0.41712312       5.63661656       3.46079746       0.00000000 NULL      -0.42350099       0.69569042      -0.93145644
P        2.76224756       1.88229445       5.78702389       0.00000000 NULL      -0.42350147      -0.69569035       0.93145629
P        4.87784199       8.05532443       0.52308425       0.00000000 NULL       0.33464155      -1.02916851       0.35202612
P        2.53271448      -0.53641381       8.72473789       0.00000000 NULL       0.33464187       1.02916845      -0.35202599
P       -0.80024802       6.16185399       1.53162421       0.00000000 NULL      -0.10032286      -0.52776393      -0.32866588
P        1.54487561       1.35705724       7.71619669       0.00000000 NULL      -0.10032288       0.52776395       0.32866584
P        0.16013477       4.45404368       6.05544556       0.00000000 NULL       0.10354444      -0.38023781      -0.29802397
P        2.50526038       3.06486738       3.19237569       0.00000000 NULL       0.10354440       0.38023779       0.29802401
P        4.50199088       8.99865242       2.41323904       0.00000000 NULL       0.27978731       0.41431306       0.73520355
P        2.15686390      -1.47974173       6.83458295       0.00000000 NULL       0.27978750      -0.41431312      -0.73520345
P        0.95286775       2.32668986       4.56998976       0.00000000 NULL       0.04453405      -0.39743028      -0.52436869
P       -1.39225721       5.19222149       4.67783093       0.00000000 NULL       0.04453393       0.39743027       0.52436870
P        3.42428338      -0.17740817       5.19904339       0.00000000 NULL       0.07014199       0.63153141      -0.13962225
P        1.07915910       7.69631906       4.04877821       0.00000000 NULL       0.07014182      -0.63153143       0.13962227
P        2.46803797      -0.53478050       0.97483367       0.00000000 NULL      -0.10586787      -0.09701986      -0.02152216
P        0.12291220       8.05369156       8.27298757       0.00000000 NULL      -0.10586786       0.09701988       0.02152212
P        1.01051409       6.30422507       6.99805050       0.00000000 NULL      -0.51660630      -0.06346530       0.15660826
P        3.35563971       1.21468584       2.24977107       0.00000000 NULL      -0.51660623       0.06346539      -0.15660845
P        2.57890543       7.22339905       5.78302258       0.00000000 NULL       0.31364899      -0.08923063      -1.03260218
P        0.23378002       0.29551199       3.46479870       0.00000000 NULL       0.31364863       0.08923057       1.03260230
20
Lattice="4.592030334867033 -4.205902479829394e-07 8.489388619254681e-07 6.637960603527391e-07 10.282004895930458 1.5034526042832033 -2.2960168433082386 -2.9253018854388912 7.615758866791717" Properties=species:S:1:pos:R:3:initial_magmoms:R:1:castep_labels:S:1:forces:R:3 n_minim_iter=4 energy=-105.51674220828184 stress="-0.008558858252748425 2.394140022558996e-09 -2.2155412554274848e-09 2.394140022558996e-09 0.006226818815531086 -0.005618548022965656 -2.2155412554274848e-09 -0.005618548022965656 0.0006558425039574464" free_energy=-105.51674220828184 pbc="T T T"
P        0.39683738       5.56518949       3.35667008       0.00000000 NULL      -0.23269135       0.42492838      -0.93189624
P        2.69285176       1.79151304       5.76254238       0.00000000 NULL      -0.23269177      -0.42492834       0.93189615
P        4.79165897       7.95396422       0.43423152       0.00000000 NULL       0.24472754      -0.63839958       0.32873406
P        2.49564149      -0.59726208       8.68498172       0.00000000 NULL       0.24472778       0.63839953      -0.32873397
P       -0.78680175       6.08478445       1.44929990       0.00000000 NULL      -0.26400561      -0.34837253      -0.27784546
P        1.50921182       1.27191830       7.66991212       0.00000000 NULL      -0.26400565       0.34837258       0.27784536
P        0.15886331       4.33439441       5.96903456       0.00000000 NULL       0.05646533      -0.42075582      -0.05058052
P        2.45487887       3.02230816       3.15017781       0.00000000 NULL       0.05646539       0.42075581       0.05058054
P        4.41089525       8.92592384       2.32939586       0.00000000 NULL       0.64465291       0.00612313       0.39047493
P        2.11487830      -1.56922163       6.78981724       0.00000000 NULL       0.64465306      -0.00612325      -0.39047469
P        0.93168631       2.24498453       4.50800634       0.00000000 NULL      -0.14236836      -0.18341992      -0.23058676
P       -1.36432861       5.11171832       4.61120547       0.00000000 NULL      -0.14236841       0.18341995       0.23058671
P        3.35602966      -0.22730017       5.16899306       0.00000000 NULL       0.02816335       0.30834719      -0.12183622
P        1.06001543       7.58400258       3.95021965       0.00000000 NULL       0.02816324      -0.30834719       0.12183623
P        2.41462212      -0.55064635       0.97958734       0.00000000 NULL      -0.53489532       0.11487613      -0.20462457
P        0.11860640       7.90734892       8.13962502       0.00000000 NULL      -0.53489542      -0.11487603       0.20462437
P        0.97032121       6.18070291       6.90044729       0.00000000 NULL       0.00073256      -0.20609508       0.01598677
P        3.26633679       1.17599951       2.21876539       0.00000000 NULL       0.00073260       0.20609508      -0.01598677
P        2.53706790       7.10903001       5.64424498       0.00000000 NULL       0.19921916      -0.03995003      -0.51622555
P        0.24105251       0.24767254       3.47496742       0.00000000 NULL       0.19921897       0.03994999       0.51622563
20
Lattice="4.696747437542099 -4.3018142850853624e-07 8.682981456021386e-07 6.192645573384416e-07 10.177896594556266 1.6927513678736061 -2.348375354704483 -2.7282677687344368 7.497327497217018" Properties=species:S:1:pos:R:3:initial_magmoms:R:1:castep_labels:S:1:forces:R:3 n_minim_iter=5 energy=-105.7303920526309 stress="0.002604245126698796 -1.13839108557359e-09 1.2723878562149946e-09 -1.13839108557359e-09 0.0031819631703958913 0.00641836411327722 1.2723878562149946e-09 0.00641836411327722 -0.0011512847546024426" free_energy=-105.7303920526309 pbc="T T T"
P        0.39372040       5.57235074       3.40912552       0.00000000 NULL      -0.17459714       0.04227997      -0.35264320
P        2.74209334       1.87727759       5.78095435       0.00000000 NULL      -0.17459728      -0.04227993       0.35264313
P        4.91668329       7.82105876       0.59086684       0.00000000 NULL      -0.07916272      -0.12335284       0.70235477
P        2.56830734      -0.37143082       8.59921384       0.00000000 NULL      -0.07916243       0.12335285      -0.70235480
P       -0.81026863       6.01882266       1.54859160       0.00000000 NULL      -0.47398279      -0.06114285      -0.36992826
P        1.53810354       1.43080589       7.64148783       0.00000000 NULL      -0.47398291       0.06114294       0.36992809
P        0.16429278       4.38284086       5.99929729       0.00000000 NULL       0.28358092      -0.25196908       0.02059531
P        2.51266690       3.06678751       3.19078250       0.00000000 NULL       0.28358097       0.25196903      -0.02059521
P        4.52072625       8.87295097       2.51152708       0.00000000 NULL       0.43309554       0.04642043      -0.18887542
P        2.17235082      -1.42332296       6.67855345       0.00000000 NULL       0.43309547      -0.04642051       0.18887558
P        0.95061679       2.29814823       4.50253610       0.00000000 NULL      -0.06270486      -0.12335551      -0.13925012
P       -1.39775670       5.15148044       4.68754312       0.00000000 NULL      -0.06270489       0.12335552       0.13925009
P        3.43598492      -0.10656439       5.11651732       0.00000000 NULL      -0.13900130       0.12142376       0.20948391
P        1.08761210       7.55619260       4.07356281       0.00000000 NULL      -0.13900124      -0.12142373      -0.20948396
P        2.46255163      -0.52797761       0.96112300       0.00000000 NULL      -0.17005260      -0.25631312       0.16117700
P        0.11417734       7.97760599       8.22895677       0.00000000 NULL      -0.17005250       0.25631315      -0.16117706
P        0.97760544       6.24377290       6.97158578       0.00000000 NULL       0.26374489      -0.44145883      -0.04097168
P        3.32597958       1.20585532       2.21849431       0.00000000 NULL       0.26374496       0.44145878       0.04097177
P        2.60667695       7.13643531       5.70882827       0.00000000 NULL       0.11907998      -0.20378331      -0.21058550
P        0.25830302       0.31319305       3.48125155       0.00000000 NULL       0.11907994       0.20378329       0.21058554
20
Lattice="4.739993620503906 -4.3414240466225343e-07 8.762931636625533e-07 6.380951375413625e-07 10.196569053581156 1.6001450041995549 -2.369998438872188 -2.7944652563202133 7.424973106660252" Properties=species:S:1:pos:R:3:initial_magmoms:R:1:castep_labels:S:1:forces:R:3 n_minim_iter=6 energy=-105.78779289446574 stress="0.008452209040197965 -6.002983967759644e-10 3.080910831319332e-09 -6.002983967759644e-10 0.004553874202319149 0.0013433550343813286 3.080910831319332e-09 0.0013433550343813286 -0.007528537846309954" free_energy=-105.78779289446574 pbc="T T T"
P        0.39051070       5.56440266       3.31290045       0.00000000 NULL      -0.17534642      -0.03889270      -0.23303916
P        2.76050672       1.83770064       5.71221868       0.00000000 NULL      -0.17534649       0.03889273       0.23303910
P        4.96289661       7.83238154       0.54243108       0.00000000 NULL      -0.12685778      -0.23583041       0.27702398
P        2.59289758      -0.43027864       8.48268886       0.00000000 NULL      -0.12685763       0.23583043      -0.27702403
P       -0.82864989       6.02117729       1.47943954       0.00000000 NULL      -0.47922450       0.09597464      -0.25843837
P        1.54134537       1.38092623       7.54567913       0.00000000 NULL      -0.47922462      -0.09597455       0.25843819
P        0.16969299       4.34011622       5.89417391       0.00000000 NULL       0.18343484      -0.14236540       0.01534254
P        2.53969019       3.06198713       3.13094513       0.00000000 NULL       0.18343487       0.14236537      -0.01534247
P        4.57536918       8.88231404       2.41838190       0.00000000 NULL       0.19407275       0.26120959       0.17071054
P        2.20537065      -1.48021107       6.60673789       0.00000000 NULL       0.19407276      -0.26120963      -0.17071047
P        0.95821263       2.26714009       4.42715920       0.00000000 NULL       0.09133941      -0.01342791      -0.07686643
P       -1.41178395       5.13496355       4.59795926       0.00000000 NULL       0.09133939       0.01342789       0.07686646
P        3.46651633      -0.14398860       5.05581048       0.00000000 NULL      -0.14176783       0.16588795       0.21045177
P        1.09652042       7.54609177       3.96930891       0.00000000 NULL      -0.14176778      -0.16588793      -0.21045182
P        2.47751138      -0.54053623       0.95222075       0.00000000 NULL       0.04960041      -0.21306445       0.21665464
P        0.10751403       7.94263958       8.07289827       0.00000000 NULL       0.04960053       0.21306444      -0.21665462
P        0.99372046       6.19984543       6.84214689       0.00000000 NULL       0.36739414      -0.40742176      -0.07767747
P        3.36371768       1.20225776       2.18297246       0.00000000 NULL       0.36739418       0.40742169       0.07767761
P        2.63345141       7.11176664       5.58056768       0.00000000 NULL       0.03735489      -0.19649392      -0.10389352
P        0.26345437       0.29033669       3.44455139       0.00000000 NULL       0.03735489       0.19649391       0.10389353
20
Lattice="4.611030979780414 -4.223305425656082e-07 8.524515533807902e-07 6.245004663521383e-07 10.258923335818412 1.7045727191432707 -2.305517137372957 -2.749990096700651 7.5490374861747735" Properties=species:S:1:pos:R:3:initial_magmoms:R:1:castep_labels:S:1:forces:R:3 n_minim_iter=7 energy=-106.01714252172903 stress="0.0009537161952418184 -3.3919898257813723e-10 7.217151857705865e-10 -3.3919898257813723e-10 0.004425651902525334 0.0034924270114422133 7.217151857705865e-10 0.0034924270114422133 -0.0012519665580889648" free_energy=-106.01714252172903 pbc="T T T"
P        0.34758663       5.61561423       3.34635274       0.00000000 NULL      -0.08477448       0.12865658       0.11034116
P        2.65310131       1.89331853       5.90725844       0.00000000 NULL      -0.08477446      -0.12865656      -0.11034119
P        4.82582705       7.83775583       0.67407177       0.00000000 NULL       0.37489454      -0.05155800      -0.04746161
P        2.52030935      -0.32882346       8.57954021       0.00000000 NULL       0.37489453       0.05155793       0.04746175
P       -0.86361958       6.04848445       1.51414390       0.00000000 NULL      -0.69555959       0.20914918       0.21386102
P        1.44189434       1.46044854       7.73946684       0.00000000 NULL      -0.69555955      -0.20914906      -0.21386128
P        0.18288509       4.36119113       6.03740000       0.00000000 NULL       0.16417167      -0.01177493       0.00074058
P        2.48840099       3.14774167       3.21621112       0.00000000 NULL       0.16417168       0.01177490      -0.00074052
P        4.51069560       8.95236761       2.53188675       0.00000000 NULL      -0.05793911       0.36429141       0.08465097
P        2.20517838      -1.44343518       6.72172512       0.00000000 NULL      -0.05793914      -0.36429140      -0.08465099
P        0.93109159       2.30095242       4.51297822       0.00000000 NULL       0.26612296       0.27678302       0.16804482
P       -1.37442367       5.20798066       4.74063233       0.00000000 NULL       0.26612297      -0.27678307      -0.16804473
P        3.36461075      -0.09447006       5.16187445       0.00000000 NULL      -0.21489836       0.33669632       0.35192591
P        1.05909617       7.60340269       4.09173699       0.00000000 NULL      -0.21489829      -0.33669629      -0.35192599
P        2.37773332      -0.55253936       0.96392468       0.00000000 NULL       0.16357725       0.17592813      -0.03977051
P        0.07221726       8.06147218       8.28968640       0.00000000 NULL       0.16357720      -0.17592816       0.03977057
P        1.01335300       6.23001848       7.01548166       0.00000000 NULL      -0.15483127       0.00772481       0.10625871
P        3.31886892       1.27891416       2.23812977       0.00000000 NULL      -0.15483123      -0.00772478      -0.10625877
P        2.57038361       7.17224274       5.70860598       0.00000000 NULL       0.23923629      -0.14729373       0.19008516
P        0.26486790       0.33669004       3.54500517       0.00000000 NULL       0.23923639       0.14729369      -0.19008507
20
Lattice="4.5738631133472305 -4.1892628757975047e-07 8.455802472449253e-07 6.267803456279141e-07 10.275084036969414 1.7002470348742156 -2.286933206539301 -2.7592467869311537 7.557341076762074" Properties=species:S:1:pos:R:3:initial_magmoms:R:1:castep_labels:S:1:forces:R:3 n_minim_iter=8 energy=-106.24980246139444 stress="0.0008890655729506601 -1.48145159912651e-10 5.536494339263018e-10 -1.48145159912651e-10 0.006912669012035867 0.003841777366207773 5.536494339263018e-10 0.003841777366207773 -0.0002579356995843193" free_energy=-106.24980246139444 pbc="T T T"
P        0.30739701       5.62351845       3.29862360       0.00000000 NULL       0.01103704      -0.00546542      -0.05618364
P        2.59432773       1.89231833       5.95896547       0.00000000 NULL       0.01103702       0.00546541       0.05618364
P        4.82462609       7.81772853       0.70536454       0.00000000 NULL       0.01733911      -0.00281129       0.01620650
P        2.53769234      -0.30189216       8.55222535       0.00000000 NULL       0.01733912       0.00281129      -0.01620650
P       -0.96994744       6.07518025       1.51465401       0.00000000 NULL      -0.33398565       0.24735746       0.08131961
P        1.31698254       1.44065677       7.74293458       0.00000000 NULL      -0.33398566      -0.24735740      -0.08131973
P        0.20191083       4.32515653       6.03728601       0.00000000 NULL       0.22279982      -0.02704168       0.13940885
P        2.48884280       3.19068027       3.22030302       0.00000000 NULL       0.22279988       0.02704164      -0.13940876
P        4.51408661       9.01125818       2.54227505       0.00000000 NULL       0.01083678       0.03994988      -0.04390938
P        2.22715332      -1.49542175       6.71531473       0.00000000 NULL       0.01083675      -0.03994988       0.04390939
P        0.95444357       2.33283166       4.52634394       0.00000000 NULL      -0.01424391       0.21712692       0.08242861
P       -1.33248777       5.18300543       4.73124452       0.00000000 NULL      -0.01424392      -0.21712692      -0.08242861
P        3.31492711      -0.06137206       5.20350397       0.00000000 NULL       0.03135092       0.11570743       0.03532234
P        1.02799646       7.57720872       4.05408536       0.00000000 NULL       0.03135091      -0.11570744      -0.03532233
P        2.34688780      -0.53721993       0.94646342       0.00000000 NULL       0.17121436       0.07510794       0.31128387
P        0.05995567       8.05305676       8.31112555       0.00000000 NULL       0.17121446      -0.07510798      -0.31128381
P        1.03673107       6.20207673       7.02790596       0.00000000 NULL      -0.10015231       0.03258703       0.08332479
P        3.32366306       1.31375993       2.22968338       0.00000000 NULL      -0.10015229      -0.03258701      -0.08332483
P        2.57423205       7.15709557       5.71085261       0.00000000 NULL      -0.01619623      -0.09853998      -0.00021405
P        0.28730027       0.35874122       3.54673645       0.00000000 NULL      -0.01619621       0.09853998       0.00021405
20
Lattice="4.583207043014193 -4.1978211069787584e-07 8.473076803075499e-07 6.243804307645582e-07 10.176783207603838 1.6645272796026465 -2.2916051678236498 -2.756957506674247 7.539277495134163" Properties=species:S:1:pos:R:3:initial_magmoms:R:1:castep_labels:S:1:forces:R:3 n_minim_iter=9 energy=-106.34992097907701 stress="0.0016741198839701466 -1.959628459661836e-10 2.7960918480867495e-10 -1.959628459661836e-10 0.006934057383183715 0.003653279536161357 2.7960918480867495e-10 0.003653279536161357 0.001999473215008765" free_energy=-106.34992097907701 pbc="T T T"
P        0.28819655       5.53528194       3.22659902       0.00000000 NULL       0.02483748       0.19539192       0.09591508
P        2.57979923       1.88454330       5.97720670       0.00000000 NULL       0.02483748      -0.19539193      -0.09591507
P        4.84391951       7.72247492       0.68785625       0.00000000 NULL      -0.04287720       0.04772304       0.05806287
P        2.55231381      -0.30265009       8.51595031       0.00000000 NULL      -0.04287719      -0.04772303      -0.05806289
P       -1.03967218       6.05242811       1.50148028       0.00000000 NULL      -0.14659820      -0.07710682      -0.03260093
P        1.25192976       1.36739737       7.70232496       0.00000000 NULL      -0.14659820       0.07710685       0.03260087
P        0.22437920       4.23806145       6.01905732       0.00000000 NULL      -0.04506788      -0.01103613       0.04471394
P        2.51598315       3.18176380       3.18474838       0.00000000 NULL      -0.04506786       0.01103614      -0.04471395
P        4.54378109       8.93625554       2.51555904       0.00000000 NULL      -0.04706636       0.07330743      -0.05713757
P        2.25217584      -1.51643066       6.68824741       0.00000000 NULL      -0.04706639      -0.07330742       0.05713755
P        0.96173499       2.33622201       4.51493462       0.00000000 NULL       0.18073733       0.16671037      -0.01532761
P       -1.32986831       5.08360353       4.68887050       0.00000000 NULL       0.18073730      -0.16671040       0.01532768
P        3.33043715      -0.07504542       5.18228466       0.00000000 NULL      -0.16842410       0.29861346       0.13370286
P        1.03883454       7.49487052       4.02152134       0.00000000 NULL      -0.16842411      -0.29861343      -0.13370292
P        2.35970318      -0.52110792       0.97213708       0.00000000 NULL       0.23472974       0.09006467      -0.01605280
P        0.06809910       7.94093320       8.23166856       0.00000000 NULL       0.23472972      -0.09006471       0.01605288
P        1.05612668       6.12043616       6.99994156       0.00000000 NULL      -0.05478155      -0.04554206      -0.03019152
P        3.34773065       1.29938893       2.20386445       0.00000000 NULL      -0.05478155       0.04554207       0.03019150
P        2.57571864       7.06705325       5.66108808       0.00000000 NULL       0.06451076      -0.08026218       0.02439786
P        0.28411490       0.35277199       3.54271764       0.00000000 NULL       0.06451078       0.08026217      -0.02439784
20
Lattice="4.637386494609024 -4.2474447970061126e-07 8.573239560380787e-07 6.366741786744415e-07 10.095578500302803 1.557797366067241 -2.3186948986898788 -2.8177298318728896 7.5365869506643834" Properties=species:S:1:pos:R:3:initial_magmoms:R:1:castep_labels:S:1:forces:R:3 n_minim_iter=10 energy=-106.42100812656861 stress="0.0020431495687918753 1.6563360636638906e-10 -1.3777751746437715e-10 1.6563360636638906e-10 0.008337345746606502 0.0022086926420928224 -1.3777751746437715e-10 0.0022086926420928224 0.0039055133222329445" free_energy=-106.42100812656861 pbc="T T T"
P        0.27880099       5.45087201       3.11982331       0.00000000 NULL      -0.08586098      -0.01448395       0.12165010
P        2.59749338       1.82697619       5.97456196       0.00000000 NULL      -0.08586093       0.01448397      -0.12165013
P        4.87792894       7.64477330       0.60708888       0.00000000 NULL       0.02301852      -0.03899137       0.10153869
P        2.55923350      -0.36692551       8.48729723       0.00000000 NULL       0.02301856       0.03899136      -0.10153869
P       -1.10725258       5.99436417       1.42375303       0.00000000 NULL       0.01831931       0.05438918       0.26947857
P        1.21143908       1.28348429       7.67063173       0.00000000 NULL       0.01831940      -0.05438919      -0.26947856
P        0.20595339       4.09998135       5.98346637       0.00000000 NULL       0.09649744      -0.06714075       0.16714501
P        2.52464708       3.17786687       3.11091888       0.00000000 NULL       0.09649751       0.06714074      -0.16714497
P        4.60867567       8.86961585       2.43253000       0.00000000 NULL      -0.04071142      -0.02305612      -0.06361039
P        2.28998068      -1.59176802       6.66185601       0.00000000 NULL      -0.04071144       0.02305613       0.06361037
P        1.00828028       2.34747354       4.47161647       0.00000000 NULL       0.05070215      -0.29665786       0.17972809