8
Lattice="5.39048199499138 -1.221249015424887e-16 0.0 -2.69524099749569 5.941574586725574 0.0 0.0 0.0 5.154749282579703" Properties=species:S:1:pos:R:3:initial_magmoms:R:1:castep_labels:S:1:forces:R:3 n_minim_iter=1 energy=-42.1366671898569 stress="-0.00030451661481202096 9.234660874445526e-12 -6.1501848939058595e-12 9.234660874445526e-12 0.0015810748908344264 -6.6206428615696104e-12 -6.1501848939058595e-12 -6.6206428615696104e-12 0.0009305263438024047" free_energy=-42.1366671898569 pbc="T T T"
P        4.29096751       1.08955345       2.88554311       0.00000000 NULL       0.00290861      -0.04687290      -0.01540488
P       -1.59572651       4.85202115       2.88554311       0.00000000 NULL      -0.00290861       0.04687290      -0.01540488
P        1.59572652       4.85202115       2.26920617       0.00000000 NULL       0.00290861       0.04687290       0.01540488
P        1.09951449       1.08955345       2.26920617       0.00000000 NULL      -0.00290861      -0.04687290       0.01540488
P        1.88983857       2.03595883       4.16851441       0.00000000 NULL      -0.00991986       0.00481333      -0.00739006
P        0.80540243       3.90561577       4.16851441       0.00000000 NULL       0.00991986      -0.00481333      -0.00739006
P       -0.80540243       3.90561577       0.98623487       0.00000000 NULL      -0.00991986      -0.00481333       0.00739006
P        3.50064343       2.03595883       0.98623487       0.00000000 NULL       0.00991986       0.00481333       0.00739006
8
Lattice="5.392131035768753 -1.538052235578133e-16 0.0 -2.6960655178843766 5.932146239469248 0.0 0.0 0.0 5.149933579994548" Properties=species:S:1:pos:R:3:initial_magmoms:R:1:castep_labels:S:1:forces:R:3 n_minim_iter=2 energy=-42.13702359794785 stress="-0.0007221754346675844 -4.6686988426255106e-12 5.286086610548026e-12 -4.6686988426255106e-12 -0.00012087608533251102 7.49660240656044e-12 5.286086610548026e-12 7.49660240656044e-12 -1.505011249187697e-05" free_energy=-42.13702359794785 pbc="T T T"
P        4.29229790       1.08753978       2.88275373       0.00000000 NULL       0.00750187      -0.02908652       0.00174362
P       -1.59623237       4.84460648       2.88275373       0.00000000 NULL      -0.00750187       0.02908652       0.00174362
P        1.59623238       4.84460648       2.26717985       0.00000000 NULL       0.00750187       0.02908652      -0.00174362
P        1.09983315       1.08753978       2.26717985       0.00000000 NULL      -0.00750187      -0.02908652      -0.00174362
P        1.89035633       2.03275732       4.16457516       0.00000000 NULL       0.00448613      -0.01437139       0.00443259
P        0.80570919       3.89938894       4.16457516       0.00000000 NULL      -0.00448613       0.01437139       0.00443259
P       -0.80570918       3.89938894       0.98535842       0.00000000 NULL       0.00448613       0.01437139      -0.00443259
P        3.50177471       2.03275732       0.98535842       0.00000000 NULL      -0.00448613      -0.01437139      -0.00443259
8
Lattice="5.398431486238971 -1.0190147633018041e-16 0.0 -2.6992157431194856 5.931230937658374 0.0 0.0 0.0 5.149024973475569" Properties=species:S:1:pos:R:3:initial_magmoms:R:1:castep_labels:S:1:forces:R:3 n_minim_iter=3 energy=-42.13710271635871 stress="0.00018632304288269534 1.201892944645801e-11 4.998084119034305e-12 1.201892944645801e-11 -8.725718966402904e-06 5.8481028569176466e-12 4.998084119034305e-12 5.8481028569176466e-12 0.00012165467044873307" free_energy=-42.13710271635871 pbc="T T T"
P        4.29738667       1.08704257       2.88224127       0.00000000 NULL       0.01980876      -0.02112407       0.00256524
P       -1.59817092       4.84418838       2.88224127       0.00000000 NULL      -0.01980876       0.02112407       0.00256524
P        1.59817093       4.84418838       2.26678370       0.00000000 NULL       0.01980876       0.02112407      -0.00256524
P        1.10104482       1.08704257       2.26678370       0.00000000 NULL      -0.01980876      -0.02112407      -0.00256524
P        1.89259388       2.03231717       4.16387181       0.00000000 NULL      -0.00374383      -0.00446776       0.00072509
P        0.80662187       3.89891379       4.16387181       0.00000000 NULL       0.00374383       0.00446776       0.00072509
P       -0.80662186       3.89891379       0.98515316       0.00000000 NULL      -0.00374383       0.00446776      -0.00072509
P        3.50583761       2.03231717       0.98515316       0.00000000 NULL       0.00374383      -0.00446776      -0.00072509
8
Lattice="5.3985307401139195 -9.405254124505617e-17 0.0 -2.6992653700569598 5.934015225344058 0.0 0.0 0.0 5.145600483030744" Properties=species:S:1:pos:R:3:initial_magmoms:R:1:castep_labels:S:1:forces:R:3 n_minim_iter=4 energy=-42.137199750981594 stress="3.9680490584656265e-06 -1.0689725346052271e-11 -1.6697943244439357e-11 -1.0689725346052271e-11 0.00018337665852657248 -4.971688899933903e-12 -1.6697943244439357e-11 -4.971688899933903e-12 -0.00015764701921964106" free_energy=-42.137199750981594 pbc="T T T"
P        4.29834459       1.08642539       2.88045767       0.00000000 NULL       0.00284117      -0.00716056       0.01526015
P       -1.59907922       4.84758986       2.88045767       0.00000000 NULL      -0.00284117       0.00716056       0.01526015
P        1.59907922       4.84758986       2.26514281       0.00000000 NULL       0.00284117       0.00716056      -0.01526015
P        1.10018615       1.08642539       2.26514281       0.00000000 NULL      -0.00284117      -0.00716056      -0.01526015
P        1.89253382       2.03293272       4.16118514       0.00000000 NULL      -0.00845365       0.01195232       0.00174457
P        0.80673156       3.90108252       4.16118514       0.00000000 NULL       0.00845365      -0.01195232       0.00174457
P       -0.80673155       3.90108252       0.98441534       0.00000000 NULL      -0.00845365      -0.01195232      -0.00174457
P        3.50599693       2.03293272       0.98441534       0.00000000 NULL       0.00845365       0.01195232      -0.00174457
8
Lattice="5.398677192966636 -8.610611066038049e-17 0.0 -2.699338596483318 5.9333010532355335 0.0 0.0 0.0 5.147100554829646" Properties=species:S:1:pos:R:3:initial_magmoms:R:1:castep_labels:S:1:forces:R:3 n_minim_iter=5 energy=-42.137224150671344 stress="-2.239629362936645e-05 -2.2447596622908308e-11 3.408887203340108e-11 -2.2447596622908308e-11 -8.378470434335899e-06 8.573419380423981e-12 3.408887203340108e-11 8.573419380423981e-12 0.00021038412213164799" free_energy=-42.137224150671344 pbc="T T T"
P        4.29872298       1.08592812       2.88155128       0.00000000 NULL      -0.00181756       0.00210607       0.01035810
P       -1.59938438       4.84737294       2.88155128       0.00000000 NULL       0.00181756      -0.00210607       0.01035811
P        1.59938439       4.84737294       2.26554927       0.00000000 NULL      -0.00181756      -0.00210607      -0.01035810
P        1.09995422       1.08592812       2.26554927       0.00000000 NULL       0.00181756       0.00210607      -0.01035811
P        1.89245332       2.03275670       4.16245004       0.00000000 NULL      -0.00673474       0.00688238      -0.00130252
P        0.80688528       3.90054436       4.16245004       0.00000000 NULL       0.00673474      -0.00688238      -0.00130252
P       -0.80688527       3.90054436       0.98465052       0.00000000 NULL      -0.00673474      -0.00688238       0.00130252
P        3.50622388       2.03275670       0.98465052       0.00000000 NULL       0.00673474       0.00688238       0.00130252
8
Lattice="5.4022073979779375 -1.028630355010115e-16 0.0 -2.7011036989889687 5.937925819729095 0.0 0.0 0.0 5.139646582970169" Properties=species:S:1:pos:R:3:initial_magmoms:R:1:castep_labels:S:1:forces:R:3 n_minim_iter=6 energy=-42.13734288497902 stress="-3.3060160519531828e-06 -2.366376150134741e-11 -3.822580700339662e-13 -2.366376150134741e-11 5.592520831954835e-05 -9.078004503738573e-12 -3.822580700339662e-13 -9.078004503738573e-12 7.488503805984977e-05" free_energy=-42.13734288497902 pbc="T T T"
P        4.30228462       1.08578343       2.87935042       0.00000000 NULL       0.00140646       0.00209093       0.00483536
P       -1.60118092       4.85214241       2.87935042       0.00000000 NULL      -0.00140646      -0.00209093       0.00483536
P        1.60118092       4.85214241       2.26029616       0.00000000 NULL       0.00140646      -0.00209093      -0.00483536
P        1.09992278       1.08578343       2.26029616       0.00000000 NULL      -0.00140646       0.00209093      -0.00483536
P        1.89262915       2.03520001       4.15653352       0.00000000 NULL      -0.00264027      -0.00269532      -0.00484976
P        0.80847456       3.90272583       4.15653352       0.00000000 NULL       0.00264027       0.00269532      -0.00484976
P       -0.80847455       3.90272583       0.98311306       0.00000000 NULL      -0.00264027       0.00269532       0.00484976
P        3.50957826       2.03520001       0.98311306       0.00000000 NULL       0.00264027      -0.00269532       0.00484976
