9
Lattice="5.175924558014487 -0.5200380845552174 -0.005539796036627401 -0.11869642270279011 6.606183739009082 1.1351474952047091 0.27398341572122953 4.199597436136589 5.37689137710147" Properties=species:S:1:pos:R:3:initial_magmoms:R:1:castep_labels:S:1:forces:R:3 n_minim_iter=1 energy=-47.807401611091585 stress="-0.0007965956645562492 -0.0031806596549945458 -0.0007651879825040848 -0.0031806596549945458 -0.0022897668659778627 0.0012402160523933548 -0.0007651879825040848 0.0012402160523933548 -0.0037552426482819123" free_energy=-47.807401611091585 pbc="T T T"
P        2.99425171       3.73191503       4.09766146       0.00000000 NULL       0.01859601      -0.00655202       0.02660145
P       -0.15030694       7.44238414       3.65704378       0.00000000 NULL      -0.05116626       0.05648366      -0.20108456
P        2.55856382       4.95380531       2.21056451       0.00000000 NULL       0.13615014       0.06099686      -0.03087888
P        4.05153524       5.43312592       5.15536180       0.00000000 NULL      -0.04390542      -0.10194189      -0.00097472
P        3.27096282       3.00455284       1.32505621       0.00000000 NULL       0.07551860      -0.00272366       0.02322702
P        4.77222763       2.54595430       3.00338655       0.00000000 NULL      -0.11278769       0.03114641      -0.00379744
P        1.24983599       3.10587104      -0.21115802       0.00000000 NULL       0.18438798      -0.04835341       0.09376220
P        0.91840251       5.21158743       5.63775310       0.00000000 NULL      -0.05210658      -0.00483700       0.07067482
P        0.45513386       4.42644001       1.43766147       0.00000000 NULL      -0.15468678       0.01578104       0.02247012
9
Lattice="5.178134065134279 -0.5064592673608526 -0.0014695814366992893 -0.09933308253509854 6.618069026816426 1.1315717195197126 0.28970302554855387 4.20300606324617 5.390404991296283" Properties=species:S:1:pos:R:3:initial_magmoms:R:1:castep_labels:S:1:forces:R:3 n_minim_iter=2 energy=-47.81133533288497 stress="0.002027209669496505 -0.0013834840531660993 0.00045052265484840203 -0.0013834840531660993 0.0009115339575752388 -0.0006250834328009736 0.00045052265484840203 -0.0006250834328009736 0.001102818776754085" free_energy=-47.81133533288497 pbc="T T T"
P        3.00982035       3.74343496       4.10941491       0.00000000 NULL       0.04191672       0.03459980      -0.01350446
P       -0.12717562       7.45342079       3.65981860       0.00000000 NULL      -0.03117986       0.04600272      -0.15694098
P        2.57665426       4.96904783       2.21404845       0.00000000 NULL       0.08311255       0.02685974       0.00462336
P        4.07303275       5.44940233       5.16933528       0.00000000 NULL      -0.02526225      -0.11624222      -0.03935213
P        3.28310775       3.01845230       1.32852011       0.00000000 NULL       0.10476710       0.00119364       0.05432259
P        4.78423049       2.56149864       3.01382917       0.00000000 NULL      -0.08598233       0.07066842      -0.06337306
P        1.26039473       3.11570302      -0.21391311       0.00000000 NULL       0.12112552      -0.11398297       0.09187968
P        0.93732746       5.21856573       5.65185595       0.00000000 NULL      -0.05261482       0.05225664       0.06472487
P        0.46808287       4.43525435       1.43801559       0.00000000 NULL      -0.15588263      -0.00135576       0.05762012
9
Lattice="5.160152084373989 -0.4862361083608155 -0.0038822783215136 -0.07394002146950557 6.615033762588463 1.1347283820325627 0.3028270724182187 4.204722640039274 5.39163934798189" Properties=species:S:1:pos:R:3:initial_magmoms:R:1:castep_labels:S:1:forces:R:3 n_minim_iter=3 energy=-47.814063151487545 stress="-0.0008862459369924032 0.0008505552713702585 -0.00037373082858384164 0.0008505552713702585 -0.0003120564060210528 3.485499177321077e-06 -0.00037373082858384164 3.485499177321077e-06 -0.0008123337373057706" free_energy=-47.814063151487545 pbc="T T T"
P        3.01378295       3.75560195       4.10938952       0.00000000 NULL       0.03797630       0.02702071       0.00565589
P       -0.09998701       7.45177176       3.66076599       0.00000000 NULL      -0.03793106       0.02844315      -0.12137904
P        2.58825347       4.97814633       2.21508807       0.00000000 NULL       0.02939285       0.05099562      -0.00672053
P        4.07893366       5.46344541       5.16920706       0.00000000 NULL      -0.10229930      -0.08687118      -0.08345912
P        3.28540293       3.03032286       1.32911916       0.00000000 NULL       0.09837623      -0.01030447       0.01634114
P        4.77682981       2.58103486       3.01199337       0.00000000 NULL      -0.02672288       0.06368151      -0.04218717
P        1.27044104       3.11759342      -0.21159747       0.00000000 NULL       0.09967627      -0.13057076       0.08452878
P        0.95154803       5.22295896       5.65419463       0.00000000 NULL       0.05821058       0.01385335       0.10285302
P        0.48103911       4.43562711       1.44050575       0.00000000 NULL      -0.15667900       0.04375207       0.04436703
9
Lattice="5.156013366419245 -0.48670072336442677 0.00014072229546072858 -0.07368458154154162 6.613615565857359 1.1475512548837927 0.30708357090369054 4.21123146450077 5.409758637611066" Properties=species:S:1:pos:R:3:initial_magmoms:R:1:castep_labels:S:1:forces:R:3 n_minim_iter=4 energy=-47.81797203303781 stress="-8.515122406341531e-05 -0.0001942470825994423 0.0006882465103635497 -0.0001942470825994423 -0.0004949422000734292 0.0014103825198352794 0.0006882465103635497 0.0014103825198352794 0.00016899863051003905" free_energy=-47.81797203303781 pbc="T T T"
P        3.01685372       3.76154514       4.12665719       0.00000000 NULL       0.00670369       0.00194481      -0.01769929
P       -0.09942571       7.45589584       3.67256820       0.00000000 NULL       0.04464473       0.02115540       0.00338222
P        2.59034091       4.98132202       2.22982373       0.00000000 NULL       0.00746560      -0.01698417      -0.03568968
P        4.07552551       5.46302735       5.18864339       0.00000000 NULL      -0.03771996      -0.03923624      -0.04517362
P        3.28909407       3.03023295       1.34139604       0.00000000 NULL       0.03045142       0.04628171      -0.01270044
P        4.77279408       2.58753612       3.02406621       0.00000000 NULL       0.01495242      -0.02304350       0.04571534
P        1.27472165       3.10877845      -0.20099903       0.00000000 NULL      -0.02634767       0.00781795       0.04602830
P        0.95644422       5.23078130       5.68008197       0.00000000 NULL       0.01189260      -0.04699491       0.06578124
P        0.47281402       4.43714745       1.45368899       0.00000000 NULL      -0.05204282       0.04905894      -0.04964407
9
Lattice="5.1542700684439495 -0.48766725377363673 -0.0051334141198158744 -0.07608251093796584 6.6132810236510675 1.1344731591709043 0.2998026774199355 4.202144170008991 5.398118463528589" Properties=species:S:1:pos:R:3:initial_magmoms:R:1:castep_labels:S:1:forces:R:3 n_minim_iter=5 energy=-47.81885292553728 stress="-0.0005442322720996276 -0.0005011946021724111 -0.0001529638081179894 -0.0005011946021724111 -0.0005506476139988967 -0.0002433690214104111 -0.0001529638081179894 -0.0002433690214104111 -0.00015221994373321147" free_energy=-47.81885292553728 pbc="T T T"
P        3.01080844       3.75474149       4.11315732       0.00000000 NULL      -0.02481687      -0.02360584      -0.02137861
P       -0.10489297       7.45169067       3.65481980       0.00000000 NULL       0.03225151       0.01776102       0.00763862
P        2.58656503       4.97838304       2.21554015       0.00000000 NULL       0.00824720      -0.00877194      -0.01054648
P        4.06561401       5.45243858       5.16885485       0.00000000 NULL       0.00683506      -0.01124293      -0.03909934
P        3.28743549       3.02847195       1.33114641       0.00000000 NULL       0.00707933       0.02837343      -0.04396013
P        4.76670552       2.58235660       3.01145840       0.00000000 NULL       0.05879396      -0.02038685       0.05657794
P        1.27494849       3.10830998      -0.20666542       0.00000000 NULL      -0.05417432       0.00816418       0.04221202
P        0.94885313       5.22120363       5.66743486       0.00000000 NULL       0.00325549      -0.03747328       0.05330128
P        0.46772370       4.43641724       1.44392707       0.00000000 NULL      -0.03747136       0.04718222      -0.04474529
9
Lattice="5.160007103557651 -0.48412264360771756 -0.008258850232947158 -0.07151986993215484 6.6217885464144 1.1352133073898696 0.3004672353465876 4.209497156253099 5.391477615344815" Properties=species:S:1:pos:R:3:initial_magmoms:R:1:castep_labels:S:1:forces:R:3 n_minim_iter=6 energy=-47.819461061233994 stress="0.0009187519199367483 -6.747372396877119e-05 -0.0005494840148927247 -6.747372396877119e-05 0.00043342906902515347 0.0003743573395989243 -0.0005494840148927247 0.0003743573395989243 -0.001346445258715878" free_energy=-47.819461061233994 pbc="T T T"
P        3.01491030       3.76307322       4.10591832       0.00000000 NULL      -0.00308995      -0.02262448       0.00005190
P       -0.10023052       7.46297126       3.65138058       0.00000000 NULL       0.02188372       0.02446039       0.01717891
P        2.59281663       4.98735214       2.21210567       0.00000000 NULL      -0.02079603      -0.02091212      -0.03669835
P        4.07106538       5.46283960       5.15875456       0.00000000 NULL       0.02726852      -0.01013457      -0.02506276
P        3.29438450       3.03635231       1.32749871       0.00000000 NULL       0.00535395       0.03037319      -0.04462923
P        4.77403172       2.59048069       3.00636205       0.00000000 NULL       0.06744005      -0.00815723       0.04907755
P        1.27822753       3.11203729      -0.20382365       0.00000000 NULL      -0.07464011      -0.01086283       0.03558995
P        0.95140382       5.22952006       5.66302959       0.00000000 NULL      -0.00834353      -0.02209756       0.03699777
P        0.46837009       4.44453673       1.44214280       0.00000000 NULL      -0.01507662       0.03995520      -0.03250573
9
Lattice="5.141520442250716 -0.4732102214730616 -0.002638661168666206 -0.056032208540742125 6.620810801871951 1.1366432477965485 0.3142532150512595 4.210167772567015 5.395910515074398" Properties=species:S:1:pos:R:3:initial_magmoms:R:1:castep_labels:S:1:forces:R:3 n_minim_iter=7 energy=-47.822204281019644 stress="-0.00015063321020681547 -0.00011038650817052951 0.001122248004347448 -0.00011038650817052951 -0.0003051693790011721 -0.00034999925818454247 0.001122248004347448 -0.00034999925818454247 -0.0015003318029405688" free_energy=-47.822204281019644 pbc="T T T"
P        3.01641839       3.76757063       4.10879399       0.00000000 NULL      -0.01474341      -0.04511106      -0.01978296
P       -0.07502096       7.46710086       3.65223405       0.00000000 NULL      -0.01812274       0.00454839       0.07916937
P        2.59761609       4.99096609       2.21331581       0.00000000 NULL      -0.03899210       0.00653027      -0.03504519
P        4.07214148       5.46429474       5.15654749       0.00000000 NULL       0.03665853      -0.00122835       0.01057545
P        3.29761493       3.04903084       1.32633765       0.00000000 NULL       0.03436440      -0.01336301      -0.00526032
P        4.77591976       2.60048606       3.02125045       0.00000000 NULL       0.03404067       0.06363473      -0.02220184
P        1.27255746       3.10853736      -0.19089391       0.00000000 NULL       0.01775709       0.01684661       0.00214125
P        0.96719527       5.22653972       5.68207334       0.00000000 NULL      -0.01745413      -0.04666861      -0.02747918
P        0.46534954       4.45473822       1.43835780       0.00000000 NULL      -0.03350830       0.01481104       0.01788344
9
Lattice="5.135297996502529 -0.47075972907562486 -0.013186689491175898 -0.054933868461312645 6.622118106404113 1.1459685181450765 0.3055271687371964 4.215694858642594 5.412105193645643" Properties=species:S:1:pos:R:3:initial_magmoms:R:1:castep_labels:S:1:forces:R:3 n_minim_iter=8 energy=-47.823088200517574 stress="-0.0009461065990223551 -0.00044647533988507424 -0.0002073718884063864 -0.00044647533988507424 0.0008354198820922532 0.0003190054914907287 -0.0002073718884063864 0.0003190054914907287 -0.00026696979518355413" free_energy=-47.823088200517574 pbc="T T T"
P        3.00642336       3.77206608       4.11480336       0.00000000 NULL      -0.00217189      -0.03193218      -0.04339568
P       -0.07691687       7.47250182       3.66856129       0.00000000 NULL      -0.04780868      -0.00075510       0.06858921
P        2.59242371       4.99414125       2.21677826       0.00000000 NULL      -0.01688692      -0.01638651      -0.03151021
P        4.05977438       5.46918599       5.16266992       0.00000000 NULL       0.00816537       0.01607963       0.00509681
P        3.29522675       3.05378391       1.32403867       0.00000000 NULL       0.02420054      -0.00806014       0.01553400
P        4.76918819       2.60662425       3.02354615       0.00000000 NULL       0.03422582       0.07616441      -0.03674850
P        1.27065306       3.10735659      -0.18709324       0.00000000 NULL       0.02242453       0.02983459       0.03237948
P        0.95801751       5.23062487       5.70270740       0.00000000 NULL       0.01013671      -0.04631748      -0.01583210
P        0.45982093       4.45977205       1.44364902       0.00000000 NULL      -0.03228548      -0.01862722       0.00588700
9
Lattice="5.140273128772797 -0.4635616758407025 -0.018800122478710782 -0.04892275221360654 6.6038640850232815 1.1490034831538798 0.3047689086642523 4.205348313136954 5.420533402238714" Properties=species:S:1:pos:R:3:initial_magmoms:R:1:castep_labels:S:1:forces:R:3 n_minim_iter=9 energy=-47.8237882936928 stress="0.00023398011823289998 -8.784993617459625e-05 -0.00033075198945138053 -8.784993617459625e-05 -0.0009883666571750304 0.00017701656150728625 -0.00033075198945138053 0.00017701656150728625 -0.00011280273271945429" free_energy=-47.8237882936928 pbc="T T T"
P        3.00914495       3.76455115       4.11648889       0.00000000 NULL      -0.00667980      -0.03100890      -0.05218116
P       -0.07231966       7.45355361       3.67677690       0.00000000 NULL      -0.04550878      -0.02011029       0.06020594
P        2.59777719       4.98304320       2.21655137       0.00000000 NULL      -0.04264334       0.02311289      -0.00855111
P        4.06450866       5.45811394       5.16435591       0.00000000 NULL       0.02710610       0.01747596       0.00162800
P        3.30308205       3.05057659       1.32184124       0.00000000 NULL       0.03138933      -0.03969167       0.01415626
P        4.77714431       2.60734730       3.02422702       0.00000000 NULL       0.03161562       0.08693357      -0.04299666
P        1.27416232       3.09919902      -0.18474122       0.00000000 NULL       0.02305330       0.02972277       0.02689813
P        0.95922483       5.21601738       5.71394436       0.00000000 NULL       0.00151987      -0.06097027      -0.01076342
P        0.45977028       4.45033175       1.44508061       0.00000000 NULL      -0.01985230      -0.00546406       0.01160402
9
Lattice="5.129736376948574 -0.4495356595487478 -0.020491537419294565 -0.03145914081294045 6.600788519304325 1.1491183537323681 0.31363509049019883 4.2032983857378925 5.426771208129837" Properties=species:S:1:pos:R:3:initial_magmoms:R:1:castep_labels:S:1:forces:R:3 n_minim_iter=10 energy=-47.82590649930462 stress="-0.000110370291501544 -2.6384668450777495e-05 -0.00014449418202054076 -2.6384668450777495e-05 1.8618787628750026e-05 -5.070389141005794e-05 -0.00014449418202054076 -5.070389141005794e-05 -5.3520568218364473e-05" free_energy=-47.82590649930462 pbc="T T T"
P        3.01124519       3.76462632       4.11067838       0.00000000 NULL       0.01391503      -0.00430396      -0.05065434
P       -0.05529117       7.45181661       3.68817274       0.00000000 NULL      -0.02163965      -0.01075886       0.03383851
P        2.60099888       4.98699959       2.21204615       0.00000000 NULL      -0.03709359       0.04355675       0.02259101
P        4.07130013       5.46215510       5.16046690       0.00000000 NULL       0.00497738      -0.02055030       0.00373332
P        3.31437309       3.05924084       1.31923908       0.00000000 NULL      -0.02233977      -0.05730312       0.02099638
P        4.78658762       2.63043930       3.02545887       0.00000000 NULL       0.01165772       0.02429146       0.03395991
P        1.27702561       3.10004813      -0.17378625       0.00000000 NULL       0.00685217      -0.06918140      -0.03596683
P        0.97100831       5.20462645       5.72842406       0.00000000 NULL       0.01103320       0.04056588      -0.00496043
P        0.45700919       4.45559180       1.44356107       0.00000000 NULL       0.03263752       0.05368355      -0.02353753
9
Lattice="5.122123756271182 -0.42010366502243845 -0.02386976970470029 0.00414465876985141 6.5869870681350795 1.1415184851868125 0.33225583349937393 4.189872848756062 5.428385468580647" Properties=species:S:1:pos:R:3:initial_magmoms:R:1:castep_labels:S:1:forces:R:3 n_minim_iter=11 energy=-47.828752967092605 stress="0.00024102215214948718 0.00031217790525700154 -0.0002478572124709929 0.00031217790525700154 0.0003051156270101936 -0.00026559345714231505 -0.0002478572124709929 -0.00026559345714231505 0.00040020371755586614" free_energy=-47.828752967092605 pbc="T T T"
P        3.02731731       3.76184579       4.08782265       0.00000000 NULL      -0.00247424      -0.00143072      -0.01695291
P       -0.02202229       7.43410121       3.69856770       0.00000000 NULL      -0.01699710       0.00738069      -0.02520418
P        2.61250495       4.99632728       2.20353694       0.00000000 NULL      -0.03702956       0.00556525      -0.00773725
P        4.09495076       5.45825050       5.14716148       0.00000000 NULL      -0.01704086      -0.02416062       0.01408431
P        3.33426535       3.06206050       1.31516894       0.00000000 NULL      -0.04005140      -0.00724765       0.06684386
P        4.81033096       2.66606697       3.02933512       0.00000000 NULL       0.05291520       0.02598906      -0.01395652
P        1.28963945       3.08644523      -0.17110311       0.00000000 NULL       0.03563878       0.01459289      -0.05407531
P        0.99792111       5.18779190       5.73871249       0.00000000 NULL      -0.00432884      -0.02687868       0.02768239
P        0.46958243       4.46668390       1.43079218       0.00000000 NULL       0.02936802       0.00618977       0.00931562
9
Lattice="5.115922840427604 -0.40538309463415345 -0.02460618685489464 0.0218693392434606 6.576592901592002 1.141535495438735 0.34248054012992785 4.183606700815924 5.431825881703684" Properties=species:S:1:pos:R:3:initial_magmoms:R:1:castep_labels:S:1:forces:R:3 n_minim_iter=12 energy=-47.83022496669377 stress="0.00017097253918593904 0.0004348738302079743 -0.00026542104428168434 0.0004348738302079743 0.00016848876374351746 -0.00011615346233612512 -0.00026542104428168434 -0.00011615346233612512 0.0003403926561954136" free_energy=-47.83022496669377 pbc="T T T"
P        3.03367944       3.75939687       4.07773869       0.00000000 NULL       0.00333960      -0.00143428       0.00378055
P       -0.00530057       7.42486176       3.70391281       0.00000000 NULL      -0.03117655       0.01080531       0.00539664
P        2.61393755       4.99875958       2.20015196       0.00000000 NULL      -0.00480343       0.02979475       0.00939432
P        4.10282355       5.45116514       5.14632884       0.00000000 NULL      -0.00417385      -0.00852113       0.01527521
P        3.33772553       3.06307648       1.32398202       0.00000000 NULL       0.00276197      -0.01915632       0.03376720
P        4.82780407       2.68569881       3.03413031       0.00000000 NULL       0.03202235       0.01835425      -0.02692237
P        1.29984970       3.08132126      -0.17428479       0.00000000 NULL      -0.01823820      -0.03674320       0.00018295
P        1.01036336       5.17384889       5.75260915       0.00000000 NULL       0.01025381       0.04504429      -0.02068032
P        0.47820731       4.47234031       1.42687620       0.00000000 NULL       0.01001432      -0.03814367      -0.02019417
9
Lattice="5.1154803650338145 -0.40130688511486357 -0.026014585516485954 0.027139495303135565 6.580271485269279 1.1384591164573514 0.34435343625312953 4.184153584485362 5.429148381531695" Properties=species:S:1:pos:R:3:initial_magmoms:R:1:castep_labels:S:1:forces:R:3 n_minim_iter=13 energy=-47.831008862719486 stress="0.00029530141596668735 0.00034368320509748176 -0.000268343827321634 0.00034368320509748176 0.00015432025461740886 -4.7560520206538015e-05 -0.000268343827321634 -4.7560520206538015e-05 0.0004074140986465992" free_energy=-47.831008862719486 pbc="T T T"
P        3.03433133       3.75899381       4.07136381       0.00000000 NULL       0.04221596      -0.00068943      -0.01186276
P       -0.00433822       7.43278106       3.70185345       0.00000000 NULL      -0.03657461       0.01592383       0.00763937
P        2.61524190       5.00815172       2.19453401       0.00000000 NULL      -0.00696948      -0.00906151       0.01533453
P        4.10443741       5.44944440       5.14403028       0.00000000 NULL      -0.02495209       0.01440094       0.00338879
P        3.33924829       3.06582338       1.33053058       0.00000000 NULL       0.01421992      -0.01247389       0.00688864
P        4.84214889       2.69568477       3.02990673       0.00000000 NULL      -0.01448065       0.02115277       0.00523844
P        1.30006041       3.08021406      -0.17657823       0.00000000 NULL       0.00640528      -0.02511913      -0.03006849
P        1.01293115       5.17720955       5.75096504       0.00000000 NULL       0.01059693      -0.00089776      -0.00618792
P        0.48064294       4.47338191       1.41711266       0.00000000 NULL       0.00953874      -0.00323582       0.00962939
9
Lattice="5.111267765917898 -0.39970689129855935 -0.024476612737315592 0.031088723132589976 6.594927810471865 1.1390653657856642 0.34810181075064806 4.194901676515089 5.425037438497283" Properties=species:S:1:pos:R:3:initial_magmoms:R:1:castep_labels:S:1:forces:R:3 n_minim_iter=14 energy=-47.83186796485461 stress="-0.00012835121798356226 0.0001449260024386057 -0.0001446175610550553 0.0001449260024386057 6.779162603249864e-05 0.0001685982743673968 -0.0001446175610550553 0.0001685982743673968 7.562645089322573e-05" free_energy=-47.83186796485461 pbc="T T T"
P        3.04405070       3.76390223       4.06595688       0.00000000 NULL       0.00396548      -0.00531758       0.00571744
P       -0.01074100       7.46242967       3.70441033       0.00000000 NULL      -0.02330646      -0.01489612      -0.01983706
P        2.61654057       5.02034151       2.19413694       0.00000000 NULL      -0.01121192      -0.00994682       0.00118110
P        4.09827611       5.46275054       5.14679190       0.00000000 NULL       0.02532708      -0.01130222      -0.01462730
P        3.34184167       3.07460425       1.33938267       0.00000000 NULL       0.01091227       0.01049469      -0.00454169
P        4.85044966       2.71127574       3.03339250       0.00000000 NULL       0.00655543       0.02726413       0.00939040
P        1.29777779       3.08156036      -0.18487484       0.00000000 NULL       0.01555800      -0.01635270      -0.00484545
P        1.01693410       5.18935034       5.74606933       0.00000000 NULL      -0.04577081       0.01893042       0.01639317
P        0.48384253       4.48011888       1.40956767       0.00000000 NULL       0.01797094       0.00112621       0.01116938
9
Lattice="5.1172619688737635 -0.40201833323825276 -0.023323243763772247 0.029521759999889284 6.607610821698327 1.1329143951919112 0.3482305891854879 4.19989002426343 5.413428781891526" Properties=species:S:1:pos:R:3:initial_magmoms:R:1:castep_labels:S:1:forces:R:3 n_minim_iter=15 energy=-47.83248608699329 stress="-0.00010401746311227167 -0.00021299235732935695 -0.00010208672483272896 -0.00021299235732935695 0.0001765059708792412 0.00019778224732812383 -0.00010208672483272896 0.00019778224732812383 -1.377213745171947e-05" free_energy=-47.83248608699329 pbc="T T T"
P        3.05341764       3.76213934       4.05630085       0.00000000 NULL      -0.00974095      -0.01368478       0.01677974
P       -0.02380651       7.48229094       3.69413695       0.00000000 NULL       0.00353755       0.01048356       0.00211787
P        2.61718545       5.02582054       2.18759092       0.00000000 NULL       0.00393870       0.01350882       0.00672262
P        4.10221786       5.46677779       5.13710175       0.00000000 NULL      -0.03288631      -0.01492342      -0.03177918
P        3.34945088       3.08163590       1.33985722       0.00000000 NULL       0.00751427      -0.00614684      -0.00981420
P        4.86444193       2.72194737       3.03269844       0.00000000 NULL       0.00507703       0.00792276      -0.00315401
P        1.29727380       3.08152717      -0.19406815       0.00000000 NULL      -0.00257750       0.01106618      -0.00482530
P        1.00930142       5.19766978       5.73466678       0.00000000 NULL       0.00647007      -0.00468171       0.01581033
P        0.48670713       4.48546545       1.40028313       0.00000000 NULL       0.01866714      -0.00354457       0.00814212
9
Lattice="5.118958244843688 -0.3954614797400443 -0.02321759694819863 0.03851011373149005 6.614021553430211 1.1247650658554176 0.3537425531153744 4.19994702443176 5.400958852229651" Properties=species:S:1:pos:R:3:initial_magmoms:R:1:castep_labels:S:1:forces:R:3 n_minim_iter=16 energy=-47.83313459682464 stress="9.212188874101997e-05 -0.0003366459362171705 -0.00012729836338750046 -0.0003366459362171705 0.00013363853185789155 0.0003745463828272599 -0.00012729836338750046 0.0003745463828272599 6.65231153899912e-05" free_energy=-47.83313459682464 pbc="T T T"
P        3.06313376       3.75643998       4.04883704       0.00000000 NULL      -0.02624054      -0.02927878      -0.00972312
P       -0.02506710       7.49661649       3.68453980       0.00000000 NULL       0.00181672       0.04352743      -0.00186515
P        2.62293122       5.03517950       2.18149966       0.00000000 NULL       0.02436378      -0.03776001      -0.01116581
P        4.10425131       5.46728357       5.11730798       0.00000000 NULL      -0.00160301      -0.00480503      -0.00001604
P        3.36228986       3.08826334       1.33584085       0.00000000 NULL      -0.00098038       0.02237158       0.02001809
P        4.88175491       2.74089271       3.02892277       0.00000000 NULL      -0.00624933      -0.02661441      -0.00523289
P        1.29910109       3.08194009      -0.20622145       0.00000000 NULL       0.01537393      -0.00176159       0.01572806
P        1.00965344       5.20044569       5.72491900       0.00000000 NULL      -0.00155533       0.00018551      -0.00057872
P        0.50056346       4.48687349       1.39175880       0.00000000 NULL      -0.00492584       0.03413530      -0.00716442
9
Lattice="5.1179554258004085 -0.3846020099759719 -0.01900027849167309 0.055199743179746984 6.632957569073522 1.1050624516810008 0.36704626851576133 4.20189702853111 5.371759586128461" Properties=species:S:1:pos:R:3:initial_magmoms:R:1:castep_labels:S:1:forces:R:3 n_minim_iter=17 energy=-47.8345483914641 stress="0.0005847794247386719 -0.0006800505675176809 -0.00020776169160856108 -0.0006800505675176809 0.0005069304880678103 0.0009445724650001167 -0.00020776169160856108 0.0009445724650001167 0.0008580449820557747" free_energy=-47.8345483914641 pbc="T T T"
P        3.07233306       3.73574137       4.02803620       0.00000000 NULL       0.02427148       0.00302586      -0.01983418
P       -0.02777611       7.54218525       3.66348786       0.00000000 NULL       0.04609464       0.05171283      -0.01483839
P        2.63452957       5.04935784       2.16614610       0.00000000 NULL       0.05225018      -0.03163716       0.00740765
P        4.10854912       5.46941723       5.07567720       0.00000000 NULL      -0.00386251      -0.05056978       0.01641450
P        3.38624394       3.10568410       1.33395892       0.00000000 NULL      -0.01405293      -0.00481028       0.01782342
P        4.91427530       2.77449700       3.01834001       0.00000000 NULL      -0.02702302      -0.00715140       0.03796900
P        1.30462152       3.08081685      -0.22637788       0.00000000 NULL      -0.00681201       0.06303323       0.01006632
P        1.01328698       5.21001553       5.69882201       0.00000000 NULL      -0.03383556      -0.01880514      -0.00409344
P        0.52548830       4.50533628       1.37186617       0.00000000 NULL      -0.03703026      -0.00479815      -0.05091488
9
Lattice="5.118360206204732 -0.3782546077122972 -0.012318645484127767 0.06623209991563016 6.647849868656771 1.0850950390349465 0.37900687583601567 4.200688344879429 5.34322250570597" Properties=species:S:1:pos:R:3:initial_magmoms:R:1:castep_labels:S:1:forces:R:3 n_minim_iter=18 energy=-47.836242423950104 stress="0.000542641654831819 -0.0012115968742529553 -0.0002750809810276084 -0.0012115968742529553 -0.00020897234108388003 0.0013938911251972523 -0.0002750809810276084 0.0013938911251972523 0.0016515180297631811" free_energy=-47.836242423950104 pbc="T T T"
P        3.08276315       3.70996575       4.00748523       0.00000000 NULL       0.01785841       0.02413608      -0.01855960
P       -0.03135374       7.58621055       3.64217898       0.00000000 NULL       0.08877561       0.06143980      -0.03361955
P        2.64531906       5.05869007       2.15405957       0.00000000 NULL       0.04890278      -0.06278069      -0.01445421