33
Lattice="7.469243452753155 1.0026561669447118e-16 -7.439723493727406e-43 -3.734621726376577 6.4685545771348245 -2.350338222159916e-42 1.5904038552078687e-42 6.719854482421693e-42 15.967143930497269" Properties=species:S:1:pos:R:3:initial_magmoms:R:1:castep_labels:S:1:forces:R:3 n_minim_iter=1 energy=-164.19670987863475 stress="-0.0001827573765958722 3.26897220928388e-12 5.572308553697934e-13 3.26897220928388e-12 -0.00018275737461656596 1.9280257697471e-12 5.572308553697934e-13 1.9280257697471e-12 0.0007819806499549265" free_energy=-164.19670987863475 pbc="T T T"
P        5.63190236       3.00709047      14.05858290       0.00000000 NULL       0.25673373      -0.04452576      -0.18637268
P        2.04907553       3.37382528       8.73620159       0.00000000 NULL      -0.08980643       0.24460081      -0.18637268
P        3.52288729       0.08763882       3.41382028       0.00000000 NULL      -0.16692730      -0.20007506      -0.18637268
P        4.03543760       5.00642383       4.69200178       0.00000000 NULL      -0.31193258       0.07282801      -0.05787828
P        1.11583443       0.99157956      15.33676440       0.00000000 NULL       0.09289538      -0.30655555      -0.05787828
P        6.05259315       0.47055118      10.01438309       0.00000000 NULL       0.21903720       0.23372753      -0.05787828
P       -2.77568001       5.87363566       0.81790411       0.00000000 NULL      -0.29721171      -0.13544759       0.10129826
P        0.03574403       1.12792734      11.46266674       0.00000000 NULL       0.26590691      -0.18966910       0.10129826
P        2.73993598       5.93554614       6.14028542       0.00000000 NULL       0.03130480       0.32511669       0.10129826
P        0.03763405       5.23906654       5.13848321       0.00000000 NULL       0.07892771      -0.01183917       0.01184114
P       -0.82136002       3.88161335      15.78324583       0.00000000 NULL      -0.02921083       0.07427299       0.01184114
P        0.78372596       3.81642926      10.46086452       0.00000000 NULL      -0.04971688      -0.06243382       0.01184114
P        1.61661546       3.95699377      16.01974208       0.00000000 NULL       0.44688366       0.55546920       0.47912714
P       -0.50054313       5.89008775      10.69736077       0.00000000 NULL      -0.70449227       0.10927800       0.47912714
P       -1.11607233       3.09002763       5.37497946       0.00000000 NULL       0.25760861      -0.66474720       0.47912714
P        2.80738869       2.12693329       0.13116900       0.00000000 NULL       0.00551528       0.24207367      -0.43522567
P        4.22357084       1.36780327      10.77593162       0.00000000 NULL      -0.21239959      -0.11626047      -0.43522567
P        4.17290565       2.97381800       5.45355031       0.00000000 NULL       0.20688431      -0.12581320      -0.43522567
P        4.31938171       1.08975184      14.05679218       0.00000000 NULL      -0.27794337      -0.19846957      -0.39294474
P        4.36579982       3.19581837       8.73441087       0.00000000 NULL       0.31085138      -0.14147123      -0.39294474
P        2.51868364       2.18298436       3.41202956       0.00000000 NULL      -0.03290801       0.33994080      -0.39294474
P        0.88029875       3.70469757       2.09154138       0.00000000 NULL      -0.06984338      -0.49619743       0.04029002
P        0.08611014       5.37856687      12.73630400       0.00000000 NULL       0.46464127       0.18761258       0.04029002
P       -0.96640889       3.85384471       7.41392269       0.00000000 NULL      -0.39479789       0.30858485       0.04029002
P       -0.81968750       5.82964675      14.59690018       0.00000000 NULL      -0.08507796       0.04914447      -0.32085218
P       -0.90415670       2.84386100       9.27451887       0.00000000 NULL      -0.00002138      -0.09825191      -0.32085218
P        1.72384420       4.26360140       3.95213756       0.00000000 NULL       0.08509934       0.04910744      -0.32085218
P        6.45252098       1.03259772      13.48490195       0.00000000 NULL      -0.09619499      -0.23781059       0.36637270
P        3.34872710       5.07174822       8.16252064       0.00000000 NULL       0.25404751       0.03559799       0.36637270
P        1.40261709       0.36420863       2.84013933       0.00000000 NULL      -0.15785252       0.20221260       0.36637270
P        4.15572815       4.39501596      15.05914542       0.00000000 NULL      -0.15929672      -0.22539430       0.39434428
P        1.58518390       1.40145817       9.73676411       0.00000000 NULL       0.27484555      -0.02525786       0.39434428
P        5.46295312       0.67208044       4.41438280       0.00000000 NULL      -0.11554883       0.25065216       0.39434428
33
Lattice="7.51844465256168 4.29325109292599e-17 -4.05554690027186e-43 -3.7592223262808395 6.511164066065679 -1.7286200133846988e-42 2.2802649716726242e-42 8.34106217781425e-42 15.524825575436237" Properties=species:S:1:pos:R:3:initial_magmoms:R:1:castep_labels:S:1:forces:R:3 n_minim_iter=2 energy=-164.36626006358847 stress="-0.0016293343228245165 -2.430725897375553e-12 2.1219239376008047e-12 -2.430725897375553e-12 -0.0016293343246616093 3.456072564805255e-12 2.1219239376008047e-12 3.456072564805255e-12 -0.01478920543728239" free_energy=-164.36626006358847 pbc="T T T"
P        5.68103498       3.02481157      13.66069653       0.00000000 NULL       0.06342870      -0.10647765      -0.34116515
P        2.05836350       3.40751482       8.48575467       0.00000000 NULL       0.06049800       0.10816969      -0.34116515
P        3.53826850       0.07883766       3.31081281       0.00000000 NULL      -0.12392670      -0.00169204      -0.34116515
P        4.04739800       5.04281580       4.55940436       0.00000000 NULL      -0.07286681      -0.04315168      -0.29992557
P        1.12753906       0.98374158      14.90928807       0.00000000 NULL       0.07380386      -0.04152867      -0.29992558
P        6.10272992       0.48460667       9.73434622       0.00000000 NULL      -0.00093705       0.08468036      -0.29992557
P       -2.80789559       5.90597726       0.79983328       0.00000000 NULL      -0.23123265      -0.19309843       0.20984880
P        0.04844377       1.12646652      11.14971700       0.00000000 NULL       0.28284447      -0.10370413       0.20984880
P        2.75945181       5.98988434       5.97477514       0.00000000 NULL      -0.05161182       0.29680256       0.20984880
P        0.04158166       5.27302222       4.99667421       0.00000000 NULL       0.16929296      -0.13820209       0.10141839
P       -0.82813971       3.91066373      15.34655792       0.00000000 NULL       0.03504005       0.21571305       0.10141840
P        0.78655804       3.83864217      10.17161606       0.00000000 NULL      -0.20433300      -0.07751095       0.10141839
P        1.64821190       4.00909659      15.59766052       0.00000000 NULL       0.62563722       0.41718369      -0.15845905
P       -0.53686312       5.93400914      10.42271867       0.00000000 NULL      -0.67411028       0.33322589      -0.15845905
P       -1.11134878       3.07922239       5.24777681       0.00000000 NULL       0.04847306      -0.75040958      -0.15845905
P        2.82613997       2.15229089       0.10782929       0.00000000 NULL      -0.07074605       0.15625578      -0.47967206
P        4.24143608       1.37136356      10.45771301       0.00000000 NULL      -0.09994845      -0.13939576      -0.47967206
P        4.21009093       2.98750961       5.28277115       0.00000000 NULL       0.17069450      -0.01686002      -0.47967206
P        4.33480573       1.08762703      13.64960227       0.00000000 NULL      -0.33882154      -0.13002976      -0.27455225
P        4.40912914       3.21023837       8.47466042       0.00000000 NULL       0.28201984      -0.22841318      -0.27455225
P        2.53373210       2.21329866       3.29971856       0.00000000 NULL       0.05680170       0.35844294      -0.27455225
P        0.88282355       3.70584198       2.03542620       0.00000000 NULL      -0.45281193      -0.74215487      -0.05122991
P        0.10845726       5.42279070      12.38530991       0.00000000 NULL       0.86913093      -0.02106920      -0.05122991
P       -0.99128081       3.89369545       7.21036806       0.00000000 NULL      -0.41631901       0.76322406      -0.05122991
P       -0.82907492       5.87035127      14.17801251       0.00000000 NULL      -0.28301186       0.07877080       0.38242115
P       -0.91011354       2.85798849       9.00307065       0.00000000 NULL       0.07328842      -0.28448086       0.38242115
P        1.73918846       4.29398837       3.82812880       0.00000000 NULL       0.20972344       0.20571006       0.38242115
P        6.49051575       1.02825233      13.12793471       0.00000000 NULL      -0.01289782      -0.21803513       0.58033576
P        3.38269413       5.10682535       7.95299285       0.00000000 NULL       0.19527288       0.09784772       0.58033576
P        1.40445710       0.37608637       2.77805099       0.00000000 NULL      -0.18237505       0.12018741       0.58033576
P        4.17563567       4.41340141      14.65983531       0.00000000 NULL      -0.11624599      -0.27349493       0.33097988
P        1.60850907       1.40950586       9.48489345       0.00000000 NULL       0.29497655       0.03607548       0.33097988
P        5.49352223       0.68825679       4.30995159       0.00000000 NULL      -0.17873056       0.23741945       0.33097988
33
Lattice="7.591080450000176 -3.3931465029434334e-17 -4.5598412975012515e-43 -3.7955402250000874 6.574068511871556 -1.823855831187717e-42 2.200363769920873e-42 8.162627880668343e-42 15.565625567004037" Properties=species:S:1:pos:R:3:initial_magmoms:R:1:castep_labels:S:1:forces:R:3 n_minim_iter=3 energy=-164.60544441043615 stress="0.007920197825201519 3.731075897089578e-12 -2.5327335407425988e-12 3.731075897089578e-12 0.007920197825984404 -5.640354369451528e-12 -2.5327335407425988e-12 -5.640354369451528e-12 -0.008235572485170173" free_energy=-164.60544441043615 pbc="T T T"
P        5.74782038       3.05171187      13.68757450       0.00000000 NULL       0.08379777      -0.16446973      -0.23495590
P        2.07431026       3.45190253       8.49903264       0.00000000 NULL       0.10053608       0.15480586      -0.23495590
P        3.56449004       0.07045411       3.31049079       0.00000000 NULL      -0.18433385       0.00966387      -0.23495590
P        4.07205177       5.09474492       4.56809806       0.00000000 NULL      -0.13159881      -0.11781228      -0.16750886
P        1.14287604       0.97912781      14.94518177       0.00000000 NULL       0.16782783      -0.05506177      -0.16750886
P        6.17169287       0.50019577       9.75663991       0.00000000 NULL      -0.03622902       0.17287405      -0.16750886
P       -2.84922708       5.95632420       0.80690075       0.00000000 NULL      -0.11754545      -0.00930249       0.06667976
P        0.06182569       1.12840337      11.18398446       0.00000000 NULL       0.06682892      -0.09714610       0.06667976
P        2.78740139       6.06340944       5.99544261       0.00000000 NULL       0.05071653       0.10644859       0.06667976
P        0.04604757       5.32304995       5.01057899       0.00000000 NULL       0.24388907      -0.06762656      -0.15741003
P       -0.83738005       3.95242189      15.38766270       0.00000000 NULL      -0.06337822       0.24502741      -0.15741003
P        0.79133248       3.87266517      10.19912085       0.00000000 NULL      -0.18051085      -0.17740085      -0.15741003
P        1.68624527       4.07433504      15.65925094       0.00000000 NULL       0.67519472       0.15282241      -0.17846608
P       -0.57606006       5.99723223      10.47070908       0.00000000 NULL      -0.46994545       0.50832458      -0.17846608
P       -1.11018521       3.07656974       5.28216723       0.00000000 NULL      -0.20524927      -0.66114699      -0.17846608
P        2.85350380       2.18456657       0.08783696       0.00000000 NULL      -0.26847654       0.15807013      -0.56227054
P        4.27243840       1.37892349      10.46492067       0.00000000 NULL      -0.00265448      -0.31154257      -0.56227054
P        4.26067847       3.01057844       5.27637881       0.00000000 NULL       0.27113102       0.15347244      -0.56227054
P        4.36306901       1.08871533      13.66756571       0.00000000 NULL      -0.24146717      -0.18621644      -0.26169584
P        4.46669080       3.23417094       8.47902385       0.00000000 NULL       0.28200175      -0.11600849      -0.26169584
P        2.55686085       2.25118224       3.29048199       0.00000000 NULL      -0.04053458       0.30222492      -0.26169584
P        0.88693585       3.71696581       2.04241250       0.00000000 NULL      -0.36212213      -0.75372335       0.00570515
P        0.13308548       5.48369458      12.41949621       0.00000000 NULL       0.83380463       0.06325471       0.00570515
P       -1.02002133       3.94747662       7.23095436       0.00000000 NULL      -0.47168250       0.69046864       0.00570515
P       -0.84173764       5.92952327      14.20217172       0.00000000 NULL      -0.37815814       0.00301474       0.52291087
P       -0.91870874       2.88034070       9.01362987       0.00000000 NULL       0.18646823      -0.32900192       0.52291087
P        1.76044637       4.33827305       3.82508801       0.00000000 NULL       0.19168991       0.32598719       0.52291087
P        6.54879103       1.02673144      13.17994646       0.00000000 NULL      -0.10863078      -0.05201349       0.60353832
P        3.42750942       5.15805367       7.99140460       0.00000000 NULL       0.09936040      -0.06807027       0.60353832
P        1.41032022       0.38928339       2.80286275       0.00000000 NULL       0.00927038       0.12008376       0.60353833
P        4.20838423       4.44500161      14.71647331       0.00000000 NULL       0.03464580      -0.26325209       0.36347314
P        1.63740402       1.42206685       9.52793146       0.00000000 NULL       0.21066010       0.16163019       0.36347314
P        5.54083242       0.70700005       4.33938960       0.00000000 NULL      -0.24530590       0.10162190       0.36347314
33
Lattice="7.473840839627306 -9.055490378479838e-16 -7.0485615061324144e-43 -3.736920419813652 6.472536030958859 -2.26294203801031e-42 1.6743390419811393e-42 6.347782701166076e-42 15.866351662139694" Properties=species:S:1:pos:R:3:initial_magmoms:R:1:castep_labels:S:1:forces:R:3 n_minim_iter=4 energy=-165.59132060394887 stress="0.00047413443039058046 3.8623211038152837e-13 -4.118335383938008e-12 3.8623211038152837e-13 0.00047413443024313704 -6.589557903457948e-13 -4.118335383938008e-12 -6.589557903457948e-13 -0.005998255097022784" free_energy=-165.59132060394887 pbc="T T T"
P        5.70604381       2.99456394      13.91489839       0.00000000 NULL       0.35619183      -0.01699430      -0.05252660
P        2.02745049       3.44429692       8.62611450       0.00000000 NULL      -0.16337842       0.31696832      -0.05252660
P        3.47726696       0.03367517       3.33733061       0.00000000 NULL      -0.19281341      -0.29997403      -0.05252660
P        3.95184907       5.02782624       4.64283070       0.00000000 NULL      -0.00521710       0.06397769      -0.04092152
P        1.14369105       0.90848856      15.22039847       0.00000000 NULL      -0.05279776      -0.03650699      -0.04092152
P        6.11522113       0.53622122       9.93161458       0.00000000 NULL       0.05801486      -0.02747070      -0.04092152
P       -2.86086596       5.83873735       0.84235218       0.00000000 NULL       0.22579735       0.09735252       0.04142207
P        0.11085853       1.07558475      11.41991995       0.00000000 NULL      -0.19720843       0.14686998       0.04142207
P        2.75000743       6.03074995       6.13113607       0.00000000 NULL      -0.02858892      -0.24422250       0.04142207
P        0.06257228       5.23723481       5.10892853       0.00000000 NULL       0.15873615       0.00521907      -0.39131139
P       -0.82994412       3.90810780      15.68649630       0.00000000 NULL      -0.08388792       0.13486000      -0.39131139
P        0.76737183       3.79972944      10.39771242       0.00000000 NULL      -0.07484822      -0.14007907      -0.39131139
P        1.74980128       4.11475897      16.04441081       0.00000000 NULL       0.04162476      -0.02803863      -0.07944800
P       -0.70146602       5.93052891      10.75562692       0.00000000 NULL       0.00346979       0.05006741      -0.07944800
P       -1.04833527       2.89978418       5.46684303       0.00000000 NULL      -0.04509455      -0.02202878      -0.07944800
P        2.80775916       2.19643578       0.00481466       0.00000000 NULL      -0.04801178       0.17527535      -0.12507436
P        4.16779207       1.33337287      10.58238243       0.00000000 NULL      -0.12778702      -0.12921709      -0.12507436
P        4.23521003       2.94272737       5.29359854       0.00000000 NULL       0.17579880      -0.04605826      -0.12507436
P        4.24174745       1.03403504      13.85806719       0.00000000 NULL      -0.09914385      -0.19904886      -0.48126417
P        4.45746649       3.15644353       8.56928330       0.00000000 NULL       0.22195329       0.01366334      -0.48126417
P        2.51154731       2.28205745       3.28049942       0.00000000 NULL      -0.12280944       0.18538552      -0.48126417
P        0.85473921       3.55971797       2.08873270       0.00000000 NULL      -0.03988909      -0.47211318      -0.16601891
P        0.22674462       5.43290292      12.66630048       0.00000000 NULL       0.42880655       0.20151162      -0.16601891
P       -1.08148384       3.95245117       7.37751659       0.00000000 NULL      -0.38891746       0.27060155      -0.16601891
P       -0.84893506       5.84728830      14.42614520       0.00000000 NULL      -0.26172961      -0.21441967       0.63541862
P       -0.90251227       2.81369255       9.13736131       0.00000000 NULL       0.31655769      -0.11945466       0.63541862
P        1.75144732       4.28409120       3.84857742       0.00000000 NULL      -0.05482808       0.33387433       0.63541862
P        6.42948751       0.96646856      13.50805568       0.00000000 NULL      -0.07890332      -0.10482403       0.32942115
P        3.42211076       5.08486523       8.21927179       0.00000000 NULL       0.13023193      -0.01592026       0.32942115
P        1.35916299       0.42120223       2.93048790       0.00000000 NULL      -0.05132861       0.12074429       0.32942115
P        4.11440980       4.33207340      15.07575125       0.00000000 NULL      -0.04743806      -0.19790845       0.33030311
P        1.66495032       1.39714671       9.78696736       0.00000000 NULL       0.19511278       0.05787166       0.33030311
P        5.43140114       0.74331592       4.49818348       0.00000000 NULL      -0.14767472       0.14003679       0.33030311
33
Lattice="7.481254507633656 -1.8786668206724696e-15 -8.51568701120093e-43 -3.740627253816826 6.478956455787586 -4.545291905251402e-42 1.3776284828661163e-42 4.851314954228816e-42 16.007977447400727" Properties=species:S:1:pos:R:3:initial_magmoms:R:1:castep_labels:S:1:forces:R:3 n_minim_iter=5 energy=-166.1100954750986 stress="-0.0016070866695845798 -1.1613241312595523e-12 7.506788358861095e-13 -1.1613241312595523e-12 -0.0016070866608864484 -8.248017374787559e-12 7.506788358861095e-13 -8.248017374787559e-12 -0.006457789829343798" free_energy=-166.1100954750986 pbc="T T T"
P        5.79383949       2.99658791      14.02562665       0.00000000 NULL       0.05543826      -0.35989649      -0.54811301
P        1.98921351       3.51931823       8.68963417       0.00000000 NULL       0.28396037       0.22795918      -0.54811302
P        3.43882876      -0.03694968       3.35364168       0.00000000 NULL      -0.33939863       0.13193730      -0.54811302
P        3.92011296       5.05550633       4.68629395       0.00000000 NULL       0.29935788      -0.26005614      -0.07818009
P        1.14300111       0.86716424      15.35827891       0.00000000 NULL       0.07553628       0.38927960      -0.07818009
P        6.15876769       0.55628588      10.02228643       0.00000000 NULL      -0.37489417      -0.12922346      -0.07818009
P       -2.85601538       5.85048759       0.85893980       0.00000000 NULL       0.08204369      -0.05371172       0.38367011
P        0.10196406       1.08033078      11.53092476       0.00000000 NULL       0.00549387       0.09790778       0.38367011
P        2.75405132       6.02709453       6.19493228       0.00000000 NULL      -0.08753756      -0.04419606       0.38367011
P        0.08513375       5.24896201       5.09583688       0.00000000 NULL      -0.33477620      -0.15888365       0.30385938
P       -0.84767407       3.92820343      15.76782185       0.00000000 NULL       0.30498537      -0.21048287       0.30385938
P        0.76254032       3.78074746      10.43182936       0.00000000 NULL       0.02979083       0.36936652       0.30385938
P        1.77672503       4.16502547      16.24715230       0.00000000 NULL      -0.04209662      -0.08768816      -0.37259266
P       -0.75475313       5.93513273      10.91115982       0.00000000 NULL       0.09698848       0.00738734      -0.37259266
P       -1.02197190       2.85775470       5.57516734       0.00000000 NULL      -0.05489187       0.08030082      -0.37259266
P        2.81138976       2.24650460      -0.04062007       0.00000000 NULL      -0.09551039       0.18233015       0.07677395
P        4.13002957       1.31148265      10.63136490       0.00000000 NULL      -0.11014735      -0.17387950       0.07677395
P        4.28046242       2.92096920       5.29537241       0.00000000 NULL       0.20565774      -0.00845065       0.07677395
P        4.21434022       0.98848295      13.87547112       0.00000000 NULL      -0.10018193      -0.28965259      -0.39118932
P        4.51803305       3.15548421       8.53947864       0.00000000 NULL       0.30093746       0.05806620      -0.39118932
P        2.48950849       2.33498928       3.20348616       0.00000000 NULL      -0.20075553       0.23158639      -0.39118932
P        0.86662818       3.47386333       2.09007233       0.00000000 NULL       0.03729488      -0.13903339       0.39897508
P        0.29885927       5.49254681      12.76205729       0.00000000 NULL       0.10175900       0.10181501       0.39897508
P       -1.16548745       3.99150277       7.42606481       0.00000000 NULL      -0.13905389       0.03721838       0.39897508
P       -0.88126234       5.82378362      14.58351146       0.00000000 NULL       0.40147049       0.41453938      -0.38747620
P       -0.86228614       2.80386907       9.24751898       0.00000000 NULL      -0.55973688       0.14041396      -0.38747620
P        1.74354848       4.33026022       3.91152649       0.00000000 NULL       0.15826639      -0.55495334      -0.38747620
P        6.41393243       0.93177676      13.69057249       0.00000000 NULL      -0.08132211       0.00224435       0.27464748
P        3.46734594       5.08874003       8.35458000       0.00000000 NULL       0.03871739      -0.07154919       0.27464749
P        1.34060339       0.45843965       3.01858752       0.00000000 NULL       0.04260472       0.06930484       0.27464749
P        4.09560310       4.29415410      15.29041827       0.00000000 NULL      -0.16133787      -0.17654321       0.33962529
P        1.71460641       1.39981927       9.95442579       0.00000000 NULL       0.23355984      -0.05145109       0.33962529
P        5.41167224       0.78498307       4.61843330       0.00000000 NULL      -0.07222197       0.22799430       0.33962529
33
Lattice="7.465647724894466 -8.669727539164209e-16 -1.0161657516317953e-42 -3.732823862447233 6.465440585464101 -5.018164375083264e-42 1.0391333353212071e-42 3.781053080394664e-42 16.15330916116338" Properties=species:S:1:pos:R:3:initial_magmoms:R:1:castep_labels:S:1:forces:R:3 n_minim_iter=6 energy=-166.36192224157313 stress="-0.005028777039342753 -2.773992102402787e-12 2.7816118062725547e-12 -2.773992102402787e-12 -0.005028777048596337 -2.5727138094223053e-12 2.7816118062725547e-12 -2.5727138094223053e-12 -0.006129775022700126" free_energy=-166.36192224157313 pbc="T T T"
P        5.82649282       2.97414343      14.12570525       0.00000000 NULL       0.06263185       0.00016419      -0.44138717
P        1.97671755       3.55881908       8.74126886       0.00000000 NULL      -0.03145812       0.05415867      -0.44138717
P        3.39526122      -0.06752193       3.35683248       0.00000000 NULL      -0.03117373      -0.05432286      -0.44138717
P        3.90838897       5.04477070       4.73221576       0.00000000 NULL       0.10868200      -0.19802062       0.04780998
P        1.14255365       0.86237879      15.50108853       0.00000000 NULL       0.11714989       0.19313168       0.04780998
P        6.14752896       0.55829109      10.11665215       0.00000000 NULL      -0.22583189       0.00488894       0.04780998
P       -2.83754620       5.84324086       0.88575186       0.00000000 NULL       0.08702767      -0.02922990       0.19825254
P        0.09120193       1.08643306      11.65462463       0.00000000 NULL      -0.01820000       0.08998313       0.19825254
P        2.74634427       6.00120724       6.27018824       0.00000000 NULL      -0.06882767      -0.06075323       0.19825254
P        0.07791502       5.23672679       5.12276648       0.00000000 NULL      -0.34891470      -0.13023814       0.25438357
P       -0.84127208       3.91455357      15.89163925       0.00000000 NULL       0.28724688      -0.23704992       0.25438357
P        0.76335706       3.77960080      10.50720287       0.00000000 NULL       0.06166781       0.36728806       0.25438357
P        1.77326925       4.16767245      16.41130294       0.00000000 NULL      -0.23877817       0.11636725      -0.37428083
P       -0.76312098       5.91730058      11.02686655       0.00000000 NULL       0.01861209      -0.26497158      -0.37428083
P       -1.01014827       2.84590813       5.64243016       0.00000000 NULL       0.22016608       0.14860433      -0.37428083
P        2.80162402       2.27295700      -0.05343624       0.00000000 NULL       0.01103855       0.03330021       0.17675724
P        4.09639721       1.28979907      10.71543653       0.00000000 NULL      -0.03435811      -0.00709044       0.17675724
P        4.30045035       2.90268451       5.33100015       0.00000000 NULL       0.02331956      -0.02620977       0.17675724
P        4.19075580       0.95007192      13.93092722       0.00000000 NULL      -0.02250823       0.32125176      -0.09273991
P        4.54748340       3.15426502       8.54649083       0.00000000 NULL      -0.26695807      -0.18011858      -0.09273991
P        2.46023238       2.36110364       3.16205444       0.00000000 NULL       0.28946630      -0.14113318      -0.09273991
P        0.88124740       3.42651177       2.12067179       0.00000000 NULL      -0.56973567       0.26761582      -0.13582631
P        0.32475392       5.51536733      12.88954456       0.00000000 NULL       0.05310574      -0.62721347      -0.13582631
P       -1.20600132       3.98900207       7.50510818       0.00000000 NULL       0.51662993       0.35959765      -0.13582631
P       -0.87184841       5.81448593      14.70539499       0.00000000 NULL       0.09344954       0.35783715      -0.13449674
P       -0.86674446       2.80315475       9.32095860       0.00000000 NULL      -0.35662083      -0.09798890      -0.13449674
P        1.73859287       4.31324049       3.93652222       0.00000000 NULL       0.26317129      -0.25984825      -0.13449674
P        6.38480048       0.91603153      13.85087028       0.00000000 NULL       0.07911715      -0.16037429       0.16463157
P        3.47994090       5.07138365       8.46643389       0.00000000 NULL       0.09932963       0.14870461       0.16463157
P        1.33373020       0.47802540       3.08199750       0.00000000 NULL      -0.17844678       0.01166968       0.16463157
P        4.07015383       4.25957485      15.48263663       0.00000000 NULL      -0.02252864      -0.00413876       0.33689606
P        1.74167078       1.39506919      10.09820025       0.00000000 NULL       0.01484859      -0.01744100       0.33689606
P        5.38664698       0.81079654       4.71376386       0.00000000 NULL       0.00768005       0.02157975       0.33689606
33
Lattice="7.44538455559094 -2.470634772084605e-16 -1.0660363262278721e-42 -3.72269227779547 6.447892166086064 -1.2305723542829247e-42 9.380424792591115e-43 8.326505416074519e-42 16.222963927371612" Properties=species:S:1:pos:R:3:initial_magmoms:R:1:castep_labels:S:1:forces:R:3 n_minim_iter=7 energy=-166.7378703046667 stress="-0.004630277920740728 -3.2834814099775007e-12 6.041232440759651e-12 -3.2834814099775007e-12 -0.004630277924354683 7.807119977232338e-12 6.041232440759651e-12 7.807119977232338e-12 -0.003861242656703014" free_energy=-166.7378703046667 pbc="T T T"
P        5.88751605       2.96055623      14.11712385       0.00000000 NULL       0.04366684       0.24355584      -0.19223619
P        1.93770962       3.61846035       8.70946921       0.00000000 NULL      -0.23275897      -0.08396133      -0.19223619
P        3.34285115      -0.13112442       3.30181457       0.00000000 NULL       0.18909213      -0.15959452      -0.19223619
P        3.88063069       5.01268150       4.78016540       0.00000000 NULL       0.14306131      -0.03715611      -0.11597148
P        1.16395969       0.85438400      15.59547469       0.00000000 NULL      -0.03935251       0.14247278      -0.11597148
P        6.12348645       0.58082665      10.18782004       0.00000000 NULL      -0.10370879      -0.10531667      -0.11597148