12
Lattice="3.7922299999999995 0.0 0.0 0.0 7.365849999999999 0.0 0.0 0.0 9.25255" Properties=species:S:1:pos:R:3:initial_magmoms:R:1:castep_labels:S:1 n_minim_iter=1 pbc="T T T"
P        3.69477538       1.01538758       6.05827458       0.00000000 NULL
P        3.69477538       6.35046242       3.19427542       0.00000000 NULL
P        3.69477538       1.01538758       3.19427542       0.00000000 NULL
P        3.69477538       6.35046242       6.05827458       0.00000000 NULL
P        0.96737929       2.66310097       5.64576722       0.00000000 NULL
P        0.96737929       4.70274903       3.60678278       0.00000000 NULL
P        0.96737929       2.66310097       3.60678278       0.00000000 NULL
P        0.96737929       4.70274903       5.64576722       0.00000000 NULL
P        2.72618295       4.68322143       6.64026090       0.00000000 NULL
P        2.72618295       2.68262857       2.61228910       0.00000000 NULL
P        2.72618295       4.68322143       2.61228910       0.00000000 NULL
P        2.72618295       2.68262857       6.64026090       0.00000000 NULL
12
Lattice="3.8146373708861514 0.0 0.0 0.0 7.429034507699565 0.0 0.0 0.0 9.280104921449896" Properties=species:S:1:pos:R:3:initial_magmoms:R:1:castep_labels:S:1 n_minim_iter=2 pbc="T T T"
P        3.71659552       1.02379008       6.07634384       0.00000000 NULL
P        3.71659552       6.40524443       3.20376109       0.00000000 NULL
P        3.71659552       1.02379008       3.20376109       0.00000000 NULL
P        3.71659552       6.40524443       6.07634384       0.00000000 NULL
P        0.97314170       2.68578125       5.66266577       0.00000000 NULL
P        0.97314170       4.74325326       3.61743915       0.00000000 NULL
P        0.97314170       2.68578125       3.61743915       0.00000000 NULL
P        0.97314170       4.74325326       5.66266577       0.00000000 NULL
P        2.74225630       4.72356200       6.66035547       0.00000000 NULL
P        2.74225630       2.70547250       2.61974945       0.00000000 NULL
P        2.74225630       4.72356200       2.61974945       0.00000000 NULL
P        2.74225630       2.70547250       6.66035547       0.00000000 NULL
12
Lattice="4.092267518592049 0.0 0.0 0.0 8.200888553067477 0.0 0.0 0.0 9.617494536995363" Properties=species:S:1:pos:R:3:initial_magmoms:R:1:castep_labels:S:1 n_minim_iter=3 pbc="T T T"
P        3.98694596       1.12615754       6.29760927       0.00000000 NULL
P        3.98694596       7.07473101       3.31988526       0.00000000 NULL
P        3.98694596       1.12615754       3.31988526       0.00000000 NULL
P        3.98694596       7.07473101       6.29760927       0.00000000 NULL
P        1.04453557       2.96274955       5.86978129       0.00000000 NULL
P        1.04453557       5.23813900       3.74771325       0.00000000 NULL
P        1.04453557       2.96274955       3.74771325       0.00000000 NULL
P        1.04453557       5.23813900       5.86978129       0.00000000 NULL
P        2.94141412       5.21648738       6.90637406       0.00000000 NULL
P        2.94141412       2.98440118       2.71112048       0.00000000 NULL
P        2.94141412       5.21648738       2.71112048       0.00000000 NULL
P        2.94141412       2.98440118       6.90637406       0.00000000 NULL
12
Lattice="4.261395611674951 0.0 0.0 0.0 8.465315701090493 0.0 0.0 0.0 9.798515592225362" Properties=species:S:1:pos:R:3:initial_magmoms:R:1:castep_labels:S:1 n_minim_iter=4 pbc="T T T"
P        4.15178602       1.16094105       6.41591572       0.00000000 NULL
P        4.15178602       7.30437465       3.38259987       0.00000000 NULL
P        4.15178602       1.16094105       3.38259987       0.00000000 NULL
P        4.15178602       7.30437465       6.41591572       0.00000000 NULL
P        1.08752631       3.05725335       5.98313893       0.00000000 NULL
P        1.08752631       5.40806235       3.81537667       0.00000000 NULL
P        1.08752631       3.05725335       3.81537667       0.00000000 NULL
P        1.08752631       5.40806235       5.98313893       0.00000000 NULL
P        3.06309272       5.38611221       7.03767167       0.00000000 NULL
P        3.06309272       3.07920349       2.76084393       0.00000000 NULL
P        3.06309272       5.38611221       2.76084393       0.00000000 NULL
P        3.06309272       3.07920349       7.03767167       0.00000000 NULL
12
Lattice="4.295409745966695 0.0 0.0 0.0 8.394556997935352 0.0 0.0 0.0 9.83113795622383" Properties=species:S:1:pos:R:3:initial_magmoms:R:1:castep_labels:S:1 n_minim_iter=5 pbc="T T T"
P        4.18496341       1.15170268       6.43652879       0.00000000 NULL
P        4.18496341       7.24285432       3.39460916       0.00000000 NULL
P        4.18496341       1.15170268       3.39460916       0.00000000 NULL
P        4.18496341       7.24285432       6.43652879       0.00000000 NULL
P        1.09597031       3.03092677       6.00558585       0.00000000 NULL
P        1.09597031       5.36363023       3.82555211       0.00000000 NULL
P        1.09597031       3.03092677       3.82555211       0.00000000 NULL
P        1.09597031       5.36363023       6.00558585       0.00000000 NULL
P        3.08774049       5.34209731       7.06091971       0.00000000 NULL
P        3.08774049       3.05245969       2.77021825       0.00000000 NULL
P        3.08774049       5.34209731       2.77021825       0.00000000 NULL
P        3.08774049       3.05245969       7.06091971       0.00000000 NULL
12
Lattice="4.392990313870683 0.0 0.0 0.0 8.174516910324407 0.0 0.0 0.0 9.945335262582418" Properties=species:S:1:pos:R:3:initial_magmoms:R:1:castep_labels:S:1 n_minim_iter=6 pbc="T T T"
P        4.27992777       1.12243867       6.50871658       0.00000000 NULL
P        4.27992777       7.05207824       3.43661868       0.00000000 NULL
P        4.27992777       1.12243867       3.43661868       0.00000000 NULL
P        4.27992777       7.05207824       6.50871658       0.00000000 NULL
P        1.12062943       2.94824433       6.08483220       0.00000000 NULL
P        1.12062943       5.22627258       3.86050306       0.00000000 NULL
P        1.12062943       2.94824433       3.86050306       0.00000000 NULL
P        1.12062943       5.22627258       6.08483220       0.00000000 NULL
P        3.15823158       5.20584471       7.14200736       0.00000000 NULL
P        3.15823158       2.96867221       2.80332790       0.00000000 NULL
P        3.15823158       5.20584471       2.80332790       0.00000000 NULL
P        3.15823158       2.96867221       7.14200736       0.00000000 NULL
12
Lattice="4.402344090282202 0.0 0.0 0.0 8.276345751607103 0.0 0.0 0.0 10.006686743451995" Properties=species:S:1:pos:R:3:initial_magmoms:R:1:castep_labels:S:1 n_minim_iter=7 pbc="T T T"
P        4.28827337       1.13572902       6.54782755       0.00000000 NULL
P        4.28827337       7.14061673       3.45885919       0.00000000 NULL
P        4.28827337       1.13572902       3.45885919       0.00000000 NULL
P        4.28827337       7.14061673       6.54782755       0.00000000 NULL
P        1.12478548       2.98181678       6.12722194       0.00000000 NULL
P        1.12478548       5.29452897       3.87946481       0.00000000 NULL
P        1.12478548       2.98181678       3.87946481       0.00000000 NULL
P        1.12478548       5.29452897       6.12722194       0.00000000 NULL
P        3.16395373       5.27338165       7.18551007       0.00000000 NULL
P        3.16395373       3.00296410       2.82117667       0.00000000 NULL
P        3.16395373       5.27338165       2.82117667       0.00000000 NULL
P        3.16395373       3.00296410       7.18551007       0.00000000 NULL
12
Lattice="4.380977658922591 0.0 0.0 0.0 8.210436196493577 0.0 0.0 0.0 9.984658592601804" Properties=species:S:1:pos:R:3:initial_magmoms:R:1:castep_labels:S:1 n_minim_iter=8 pbc="T T T"
P        4.26721981       1.12688814       6.53289745       0.00000000 NULL
P        4.26721981       7.08354806       3.45176114       0.00000000 NULL
P        4.26721981       1.12688814       3.45176114       0.00000000 NULL
P        4.26721981       7.08354806       6.53289745       0.00000000 NULL
P        1.11972757       2.95722197       6.11505151       0.00000000 NULL
P        1.11972757       5.25321423       3.86960708       0.00000000 NULL
P        1.11972757       2.95722197       3.86960708       0.00000000 NULL
P        1.11972757       5.25321423       6.11505151       0.00000000 NULL
P        3.14843736       5.23207936       7.16920392       0.00000000 NULL
P        3.14843736       2.97835684       2.81545467       0.00000000 NULL
P        3.14843736       5.23207936       2.81545467       0.00000000 NULL
P        3.14843736       2.97835684       7.16920392       0.00000000 NULL
