6
Lattice="3.146370000000001 1.500966938382161e-16 0.0 -0.3228105658412143 4.221224815273554 0.0 0.0 0.0 10.10675" Properties=species:S:1:pos:R:3:initial_magmoms:R:1:castep_labels:S:1 n_minim_iter=1 pbc="T T T"
P        1.11305355       2.91681443       7.49434614       0.00000000 NULL
P        1.71050588       1.30441039       2.44097114       0.00000000 NULL
P        2.69079128       3.59207785       6.40201669       0.00000000 NULL
P        0.13276815       0.62914697       1.34864169       0.00000000 NULL
P        2.36550841       2.24170677       8.92575908       0.00000000 NULL
P        0.45805102       1.97951805       3.87238408       0.00000000 NULL
6
Lattice="3.1513961281420664 -0.0008797409017675078 0.0 -0.3245065111353416 4.220988650162512 0.0 0.0 0.0 10.113191902642154" Properties=species:S:1:pos:R:3:initial_magmoms:R:1:castep_labels:S:1 n_minim_iter=2 pbc="T T T"
P        1.11389676       2.91613697       7.49923575       0.00000000 NULL
P        1.71299285       1.30397194       2.44263979       0.00000000 NULL
P        2.69408966       3.59126885       6.40581635       0.00000000 NULL
P        0.13279995       0.62884006       1.34922040       0.00000000 NULL
P        2.36877069       2.24075542       8.93161632       0.00000000 NULL
P        0.45811893       1.97935350       3.87502037       0.00000000 NULL
6
Lattice="3.411338608110066 -0.04644329431617781 0.0 -0.4123048887544997 4.208805738792847 0.0 0.0 0.0 10.432614344352674" Properties=species:S:1:pos:R:3:initial_magmoms:R:1:castep_labels:S:1 n_minim_iter=3 pbc="T T T"
P        1.15724605       2.88148544       7.74194657       0.00000000 NULL
P        1.84178767       1.28087701       2.52563940       0.00000000 NULL
P        2.86448182       3.54887811       6.59376763       0.00000000 NULL
P        0.13455189       0.61348434       1.37746046       0.00000000 NULL
P        2.53779237       2.19172744       9.22224423       0.00000000 NULL
P        0.46124134       1.97063501       4.00593706       0.00000000 NULL
6
Lattice="3.4458484745365325 -0.06540601258060627 0.0 -0.4412862375504389 4.138957584876392 0.0 0.0 0.0 10.33648428353616" Properties=species:S:1:pos:R:3:initial_magmoms:R:1:castep_labels:S:1 n_minim_iter=4 pbc="T T T"
P        1.14734170       2.82226777       7.67492714       0.00000000 NULL
P        1.85722053       1.25128380       2.50668500       0.00000000 NULL
P        2.87177878       3.47578419       6.52835635       0.00000000 NULL
P        0.13278345       0.59776739       1.36011421       0.00000000 NULL
P        2.55509417       2.13806717       9.13760299       0.00000000 NULL
P        0.44946806       1.93548441       3.96936085       0.00000000 NULL
6
Lattice="3.45709145875098 -0.08667836554841783 0.0 -0.47097910212866545 4.065329382464283 0.0 0.0 0.0 10.194780719942543" Properties=species:S:1:pos:R:3:initial_magmoms:R:1:castep_labels:S:1 n_minim_iter=5 pbc="T T T"
P        1.12590916       2.75985445       7.57450183       0.00000000 NULL
P        1.86020319       1.21879658       2.47711147       0.00000000 NULL
P        2.85629586       3.39723386       6.43362508       0.00000000 NULL
P        0.12981649       0.58141716       1.33623472       0.00000000 NULL
P        2.55493328       2.08050155       9.01277777       0.00000000 NULL
P        0.43117907       1.89814947       3.91538741       0.00000000 NULL
6
Lattice="3.467267659382849 -0.12382838040060334 0.0 -0.5218642649244947 3.954798333887113 0.0 0.0 0.0 9.970411436186948" Properties=species:S:1:pos:R:3:initial_magmoms:R:1:castep_labels:S:1 n_minim_iter=6 pbc="T T T"
P        1.08476206       2.66473844       7.41505974       0.00000000 NULL
P        1.86064133       1.16623152       2.42985403       0.00000000 NULL
P        2.82166542       3.27416916       6.28295900       0.00000000 NULL
P        0.12373797       0.55680080       1.29775328       0.00000000 NULL
P        2.54816936       1.98956983       8.81623611       0.00000000 NULL
P        0.39723403       1.84140012       3.83103040       0.00000000 NULL
6
Lattice="3.450633768833813 -0.18496827900120177 0.0 -0.6021840180227889 3.803450141492538 0.0 0.0 0.0 9.788846269351255" Properties=species:S:1:pos:R:3:initial_magmoms:R:1:castep_labels:S:1 n_minim_iter=7 pbc="T T T"
P        1.01101510       2.53301860       7.28594678       0.00000000 NULL
P        1.83743464       1.08546326       2.39152365       0.00000000 NULL
P        2.73706836       3.09241564       6.15903124       0.00000000 NULL
P        0.11138139       0.52606622       1.26460810       0.00000000 NULL
P        2.50521174       1.85792171       8.65928329       0.00000000 NULL
P        0.34323801       1.76056015       3.76486015       0.00000000 NULL
6
Lattice="3.4503217615640827 -0.229861440752452 0.0 -0.6623814548077761 3.6761651212364557 0.0 0.0 0.0 9.797584929437985" Properties=species:S:1:pos:R:3:initial_magmoms:R:1:castep_labels:S:1 n_minim_iter=8 pbc="T T T"
P        0.95825974       2.42534334       7.29704155       0.00000000 NULL
P        1.82968056       1.02096034       2.39824909       0.00000000 NULL
P        2.68672011       2.94487086       6.15524197       0.00000000 NULL
P        0.10122019       0.50143282       1.25644951       0.00000000 NULL
P        2.48408900       1.75339651       8.67171061       0.00000000 NULL
P        0.30385131       1.69290717       3.77291814       0.00000000 NULL
6
Lattice="3.4365920263486536 -0.24061615245007878 0.0 -0.6754015231104206 3.657552935474261 0.0 0.0 0.0 9.864602178517655" Properties=species:S:1:pos:R:3:initial_magmoms:R:1:castep_labels:S:1 n_minim_iter=9 pbc="T T T"
P        0.93223192       2.40667923       7.35272292       0.00000000 NULL
P        1.82895858       1.01025756       2.42042183       0.00000000 NULL
P        2.66528380       2.92297139       6.18551029       0.00000000 NULL
P        0.09590670       0.49396540       1.25320920       0.00000000 NULL
P        2.47694901       1.73442522       8.73709304       0.00000000 NULL
P        0.28424149       1.68251157       3.80479195       0.00000000 NULL
6
Lattice="3.395984816471307 -0.24596093677982642 0.0 -0.6784059694556609 3.6475291744223206 0.0 0.0 0.0 9.896897487859396" Properties=species:S:1:pos:R:3:initial_magmoms:R:1:castep_labels:S:1 n_minim_iter=10 pbc="T T T"
P        0.90535866       2.39635014       7.38207608       0.00000000 NULL
P        1.81222018       1.00521810       2.43362734       0.00000000 NULL
P        2.62611273       2.91316754       6.19487864       0.00000000 NULL
P        0.09146611       0.48840070       1.24642989       0.00000000 NULL
P        2.45112622       1.72434286       8.77129778       0.00000000 NULL
P        0.26645262       1.67722538       3.82284904       0.00000000 NULL
6
Lattice="3.36867202513436 -0.25285154179170044 0.0 -0.6848482935441148 3.6418210430920066 0.0 0.0 0.0 9.972988527133328" Properties=species:S:1:pos:R:3:initial_magmoms:R:1:castep_labels:S:1 n_minim_iter=11 pbc="T T T"
P        0.88168759       2.38817904       7.44448778       0.00000000 NULL
P        1.80213614       1.00079047       2.45799352       0.00000000 NULL
P        2.59680192       2.90650048       6.22963452       0.00000000 NULL
P        0.08702181       0.48246903       1.24314026       0.00000000 NULL
P        2.43485144       1.71483433       8.84595190       0.00000000 NULL
P        0.24897229       1.67413518       3.85945763       0.00000000 NULL
6
Lattice="3.291306147618321 -0.26511551800101224 0.0 -0.6933642907125722 3.6116680622939423 0.0 0.0 0.0 10.083820085732162" Properties=species:S:1:pos:R:3:initial_magmoms:R:1:castep_labels:S:1 n_minim_iter=12 pbc="T T T"
P        0.83086029       2.35965280       7.53871341       0.00000000 NULL
P        1.76708156       0.98689975       2.49680337       0.00000000 NULL
P        2.52003690       2.87917044       6.27121558       0.00000000 NULL
P        0.07790495       0.46738211       1.22930554       0.00000000 NULL
P        2.38496150       1.68649553       8.96041472       0.00000000 NULL
P        0.21298036       1.66005702       3.91850468       0.00000000 NULL
6
Lattice="3.288534953057392 -0.28944803324366364 0.0 -0.7257248987389753 3.556783421172673 0.0 0.0 0.0 10.259041515409956" Properties=species:S:1:pos:R:3:initial_magmoms:R:1:castep_labels:S:1 n_minim_iter=13 pbc="T T T"
P        0.79800438       2.30951837       7.67959669       0.00000000 NULL
P        1.76480567       0.95781702       2.55007593       0.00000000 NULL
P        2.49342782       2.82057080       6.34938689       0.00000000 NULL
P        0.06938223       0.44676459       1.21986613       0.00000000 NULL
P        2.38179571       1.63350815       9.13702885       0.00000000 NULL
P        0.18101434       1.63382724       4.00750809       0.00000000 NULL
6
Lattice="3.230805054838149 -0.2942720086355426 0.0 -0.7262738689879784 3.519688288431322 0.0 0.0 0.0 10.184272919060067" Properties=species:S:1:pos:R:3:initial_magmoms:R:1:castep_labels:S:1 n_minim_iter=14 pbc="T T T"
P        0.77342781       2.28194441       7.62584173       0.00000000 NULL
P        1.73110337       0.94347188       2.53370527       0.00000000 NULL
P        2.43956151       2.78671044       6.29530479       0.00000000 NULL
P        0.06496967       0.43870585       1.20316833       0.00000000 NULL
P        2.33656238       1.60880474       9.07603043       0.00000000 NULL
P        0.16796881       1.61661154       3.98389397       0.00000000 NULL
6
Lattice="3.235836918956181 -0.305069092169431 0.0 -0.7412756824584248 3.498012753622485 0.0 0.0 0.0 10.218147098347" Properties=species:S:1:pos:R:3:initial_magmoms:R:1:castep_labels:S:1 n_minim_iter=15 pbc="T T T"
P        0.76407233       2.26248755       7.65289468       0.00000000 NULL
P        1.73048890       0.93045612       2.54382113       0.00000000 NULL
P        2.43247061       2.76016543       6.30950902       0.00000000 NULL
P        0.06209062       0.43277823       1.20043548       0.00000000 NULL
P        2.33487060       1.58744815       9.11126476       0.00000000 NULL
P        0.15969063       1.60549552       4.00219121       0.00000000 NULL
6
Lattice="3.2288053029114008 -0.3154565528610683 0.0 -0.7544902525455487 3.469852174854706 0.0 0.0 0.0 10.228505489150779" Properties=species:S:1:pos:R:3:initial_magmoms:R:1:castep_labels:S:1 n_minim_iter=16 pbc="T T T"
P        0.75115155       2.23887246       7.66254026       0.00000000 NULL
P        1.72316349       0.91552316       2.54828752       0.00000000 NULL
P        2.41575347       2.72841728       6.30870865       0.00000000 NULL
P        0.05856158       0.42597835       1.19445590       0.00000000 NULL
P        2.32383484       1.56297363       9.12580991       0.00000000 NULL
P        0.15048021       1.59142200       4.01155716       0.00000000 NULL
6
Lattice="3.2073884918700637 -0.3618918537441719 0.0 -0.8145913441214545 3.3177105468660226 0.0 0.0 0.0 10.273738131243098" Properties=species:S:1:pos:R:3:initial_magmoms:R:1:castep_labels:S:1 n_minim_iter=17 pbc="T T T"
P        0.69552258       2.11559373       7.70766883       0.00000000 NULL
P        1.69727456       0.84022497       2.57079977       0.00000000 NULL
P        2.35195237       2.56550337       6.29541039       0.00000000 NULL
P        0.04084477       0.39031533       1.15854133       0.00000000 NULL
P        2.28204999       1.43899097       9.19611974       0.00000000 NULL
P        0.11074715       1.51682772       4.05925067       0.00000000 NULL
6
Lattice="3.2473490166060843 -0.3925956694964451 0.0 -0.8598839793100784 3.2206696935980137 0.0 0.0 0.0 10.115025376184493" Properties=species:S:1:pos:R:3:initial_magmoms:R:1:castep_labels:S:1 n_minim_iter=18 pbc="T T T"
P        0.67694402       2.03796907       7.59534574       0.00000000 NULL
P        1.71052101       0.79010495       2.53783305       0.00000000 NULL
P        2.35761994       2.45778177       6.17599335       0.00000000 NULL
P        0.02984509       0.37029226       1.11848067       0.00000000 NULL
P        2.28935272       1.35957476       9.06946950       0.00000000 NULL
P        0.09811231       1.46849927       4.01195681       0.00000000 NULL
6
Lattice="3.25800506400411 -0.40411714241913294 0.0 -0.8764346749053004 3.2128318663983673 0.0 0.0 0.0 10.098291014151513" Properties=species:S:1:pos:R:3:initial_magmoms:R:1:castep_labels:S:1 n_minim_iter=19 pbc="T T T"
P        0.66875464       2.02836043       7.58453671       0.00000000 NULL
P        1.71281574       0.78035430       2.53539120       0.00000000 NULL
P        2.35507812       2.44135646       6.15982040       0.00000000 NULL
P        0.02649227       0.36735827       1.11067489       0.00000000 NULL
P        2.28846166       1.34494779       9.05866350       0.00000000 NULL
P        0.09310873       1.46376694       4.00951800       0.00000000 NULL
6
Lattice="3.269053581392768 -0.42121120605995493 0.0 -0.900501921854784 3.1963220635219662 0.0 0.0 0.0 10.049264214929616" Properties=species:S:1:pos:R:3:initial_magmoms:R:1:castep_labels:S:1 n_minim_iter=20 pbc="T T T"
P        0.65489864       2.01087339       7.55042822       0.00000000 NULL
P        1.71365301       0.76423748       2.52579611       0.00000000 NULL
P        2.34748636       2.41273639       6.12065702       0.00000000 NULL
P        0.02106529       0.36237447       1.09602491       0.00000000 NULL
P        2.28304768       1.32058546       9.02122763       0.00000000 NULL
P        0.08550397       1.45452540       3.99659552       0.00000000 NULL
6
Lattice="3.2823705672957786 -0.4384032686380005 0.0 -0.9249333857114924 3.178726495529849 0.0 0.0 0.0 9.995070635606192" Properties=species:S:1:pos:R:3:initial_magmoms:R:1:castep_labels:S:1 n_minim_iter=21 pbc="T T T"
P        0.64157787       1.99267620       7.51235326       0.00000000 NULL
P        1.71585930       0.74764703       2.51481794       0.00000000 NULL
P        2.34194360       2.38296221       6.07823427       0.00000000 NULL
P        0.01549357       0.35736102       1.08069895       0.00000000 NULL
P        2.27896071       1.29553299       8.97935044       0.00000000 NULL
P        0.07847646       1.44479024       3.98181512       0.00000000 NULL
6
Lattice="3.2976974889737534 -0.45597561620378846 0.0 -0.9500812614752396 3.1610891033941417 0.0 0.0 0.0 9.937935173935108" Properties=species:S:1:pos:R:3:initial_magmoms:R:1:castep_labels:S:1 n_minim_iter=22 pbc="T T T"
P        0.62843575       1.97435671       7.47197931       0.00000000 NULL
P        1.71918047       0.73075678       2.50301172       0.00000000 NULL
P        2.33789585       2.35267494       6.03388046       0.00000000 NULL
P        0.00972037       0.35243855       1.06491288       0.00000000 NULL
P        2.27583979       1.27012480       8.93506021       0.00000000 NULL
P        0.07177643       1.43498869       3.96609263       0.00000000 NULL
6
Lattice="3.3145717841382814 -0.47395329881417386 0.0 -0.9759316988765322 3.1437635690845642 0.0 0.0 0.0 9.875844018826744" Properties=species:S:1:pos:R:3:initial_magmoms:R:1:castep_labels:S:1 n_minim_iter=23 pbc="T T T"
P        0.61529190       1.95614643       7.42781245       0.00000000 NULL
P        1.72334818       0.71366385       2.48989044       0.00000000 NULL
P        2.33491578       2.32215307       5.98638668       0.00000000 NULL
P        0.00372430       0.34765721       1.04846467       0.00000000 NULL
P        2.27333913       1.24454551       8.88651239       0.00000000 NULL
P        0.06530095       1.42526477       3.94859038       0.00000000 NULL
6
Lattice="3.3333348722495337 -0.4920346128235361 0.0 -1.0021149559248745 3.127392067563337 0.0 0.0 0.0 9.809372801168147" Properties=species:S:1:pos:R:3:initial_magmoms:R:1:castep_labels:S:1 n_minim_iter=24 pbc="T T T"
P        0.60252164       1.93859260       7.38027429       0.00000000 NULL
P        1.72869827       0.69676486       2.47558789       0.00000000 NULL
P        2.33364198       2.29225867       5.93613827       0.00000000 NULL
P       -0.00242207       0.34309879       1.03145187       0.00000000 NULL
P        2.27196633       1.21940553       8.83419985       0.00000000 NULL
P        0.05925358       1.41595192       3.92951344       0.00000000 NULL
6
Lattice="3.353586862751684 -0.509731361224875 0.0 -1.0279350311273459 3.1122623018062328 0.0 0.0 0.0 9.736361417482984" Properties=species:S:1:pos:R:3:initial_magmoms:R:1:castep_labels:S:1 n_minim_iter=25 pbc="T T T"
P        0.59043664       1.92207900       7.32772418       0.00000000 NULL
P        1.73521519       0.68045194       2.45954347       0.00000000 NULL
P        2.33427726       2.26372589       5.88189560       0.00000000 NULL
P       -0.00862543       0.33880505       1.01371489       0.00000000 NULL
P        2.27179603       1.19528105       8.77612512       0.00000000 NULL
P        0.05385580       1.40724989       3.90794441       0.00000000 NULL
6
Lattice="3.375375293531669 -0.5268087221964137 0.0 -1.0530817607177367 3.0987227783051874 0.0 0.0 0.0 9.65718198953695" Properties=species:S:1:pos:R:3:initial_magmoms:R:1:castep_labels:S:1 n_minim_iter=26 pbc="T T T"
P        0.57926625       1.90693797       7.27043744       0.00000000 NULL
P        1.74302728       0.66497609       2.44184644       0.00000000 NULL
P        2.33712565       2.23709951       5.82393993       0.00000000 NULL
P       -0.01483212       0.33481455       0.99534893       0.00000000 NULL
P        2.27307237       1.17255456       8.71257192       0.00000000 NULL
P        0.04922116       1.39935950       3.88398092       0.00000000 NULL
6
Lattice="3.3986382341749746 -0.5431846911280545 0.0 -1.0774387719594478 3.0870331875734185 0.0 0.0 0.0 9.574715600764137" Properties=species:S:1:pos:R:3:initial_magmoms:R:1:castep_labels:S:1 n_minim_iter=27 pbc="T T T"
P        0.56906717       1.89339218       7.21058792       0.00000000 NULL
P        1.75213229       0.65045632       2.42323012       0.00000000 NULL
P        2.34221464       2.21268603       5.76407622       0.00000000 NULL
P       -0.02101519       0.33116247       0.97671842       0.00000000 NULL
P        2.27586355       1.15143173       8.64606723       0.00000000 NULL
P        0.04533590       1.39241677       3.85870943       0.00000000 NULL
6
Lattice="3.502439258940627 -0.6097496590948637 0.0 -1.1773932471638553 3.0436662367897585 0.0 0.0 0.0 9.223676454196141" Properties=species:S:1:pos:R:3:initial_magmoms:R:1:castep_labels:S:1 n_minim_iter=28 pbc="T T T"
P        0.52914264       1.84179632       6.95524800       0.00000000 NULL
P        1.79590337       0.59212026       2.34340977       0.00000000 NULL
P        2.37250315       2.11652327       5.51112997       0.00000000 NULL
P       -0.04745714       0.31739331       0.89929174       0.00000000 NULL
P        2.29313903       1.06807598       8.36166948       0.00000000 NULL
P        0.03190698       1.36584060       3.74983125       0.00000000 NULL
6
Lattice="3.7336277451987367 -0.6773171546001766 0.0 -1.2917624010770512 3.0000241373472676 0.0 0.0 0.0 9.122923690303963" Properties=species:S:1:pos:R:3:initial_magmoms:R:1:castep_labels:S:1 n_minim_iter=29 pbc="T T T"
P        0.51413905       1.79612614       6.89449246       0.00000000 NULL
P        1.92772629       0.52658085       2.33303062       0.00000000 NULL
P        2.53231194       2.01797027       5.38971147       0.00000000 NULL
P       -0.09044660       0.30473671       0.82824962       0.00000000 NULL
P        2.39697827       0.97996752       8.31633300       0.00000000 NULL
P        0.04488707       1.34273947       3.75487116       0.00000000 NULL
6
Lattice="3.530401280616173 -0.6498321157629922 0.0 -1.2340374106868293 2.97798686764361 0.0 0.0 0.0 8.772034808475967" Properties=species:S:1:pos:R:3:initial_magmoms:R:1:castep_labels:S:1 n_minim_iter=30 pbc="T T T"
P        0.46788779       1.79511281       6.63347799       0.00000000 NULL
P        1.82847608       0.53304194       2.24746059       0.00000000 NULL
P        2.39167582       2.02357309       5.17900740       0.00000000 NULL
P       -0.09531196       0.30458166       0.79299000       0.00000000 NULL
P        2.26535871       0.98611310       7.99570693       0.00000000 NULL
P        0.03100515       1.34204165       3.60968953       0.00000000 NULL
6
Lattice="3.602245171802337 -0.6534429687414778 0.0 -1.2462528174454508 3.0233773908364565 0.0 0.0 0.0 9.06761883599784" Properties=species:S:1:pos:R:3:initial_magmoms:R:1:castep_labels:S:1 n_minim_iter=31 pbc="T T T"
P        0.48554563       1.82562990       6.85736101       0.00000000 NULL
P        1.87044672       0.54430453       2.32355159       0.00000000 NULL
P        2.45360038       2.06042512       5.35191112       0.00000000 NULL
P       -0.09760803       0.30950931       0.81810170       0.00000000 NULL
P        2.31565769       1.00494839       8.26638052       0.00000000 NULL
P        0.04033466       1.36498604       3.73257111       0.00000000 NULL
