48
Lattice="15.054144322634095 -1.0915511770073403e-16 -9.283224917202836e-16 7.527072161317047 9.471918097396046 -1.5184159445404182 7.527072161317047 -1.1242749744426677 9.526742633568684" Properties=species:S:1:pos:R:3:initial_magmoms:R:1:castep_labels:S:1:forces:R:3 n_minim_iter=1 energy=-252.16302165480482 stress="0.0011367539814312955 4.6544654517591254e-12 -3.923436800665323e-12 4.6544654517591254e-12 -0.004903174585312936 -0.001511595514263946 -3.923436800665323e-12 -0.001511595514263946 -0.004777684003814038" free_energy=-252.16302165480482 pbc="T T T"
P       20.14166296       2.31343970       7.49827940       0.00000000 NULL       0.06652694      -0.18412452       0.01033490
P        9.96662568       7.58777454       2.00046859       0.00000000 NULL      -0.06652694       0.00268970      -0.18439472
P        9.96662568       2.31343970       7.49827940       0.00000000 NULL      -0.06652694      -0.18412452       0.01033490
P       20.14166296       7.58777454       2.00046859       0.00000000 NULL       0.06652694       0.00268970      -0.18439472
P       19.04840113       7.53005850       5.31247753       0.00000000 NULL      -0.16014525      -0.20314069       0.11371402
P       26.11403183       5.62020529       7.30325208       0.00000000 NULL       0.16014525       0.10519120      -0.20768204
P       26.11403183       7.53005850       5.31247753       0.00000000 NULL       0.16014525      -0.20314069       0.11371402
P       19.04840113       5.62020529       7.30325208       0.00000000 NULL      -0.16014525       0.10519120      -0.20768204
P       27.78550608       6.88559696       8.16643637       0.00000000 NULL      -0.25032296       0.08482201       0.15425999
P       17.37692688       8.44498045       6.54098109       0.00000000 NULL       0.25032296       0.15764514       0.07835131
P       17.37692688       6.88559696       8.16643637       0.00000000 NULL       0.25032296       0.08482201       0.15425999
P       27.78550608       8.44498045       6.54098109       0.00000000 NULL      -0.25032296       0.15764514       0.07835131
P       11.12913112       0.89958792       8.88071248       0.00000000 NULL      -0.28627149      -0.18740634       0.21055529
P       18.97915752       8.91038066       0.53049882       0.00000000 NULL       0.28627149       0.20260171      -0.19597758
P       18.97915752       0.89958792       8.88071248       0.00000000 NULL       0.28627149      -0.18740634       0.21055529
P       11.12913112       8.91038066       0.53049882       0.00000000 NULL      -0.28627149       0.20260171      -0.19597758
P       13.44963201       2.52960950       7.17552907       0.00000000 NULL      -0.15592188      -0.05946357      -0.24470088
P       16.65865663       7.27426726       2.22983802       0.00000000 NULL       0.15592188      -0.24695651      -0.04926378
P       16.65865663       2.52960950       7.17552907       0.00000000 NULL       0.15592188      -0.05946357      -0.24470088
P       13.44963201       7.27426726       2.22983802       0.00000000 NULL      -0.15592188      -0.24695651      -0.04926378
P       11.57495229       6.05558673       2.27033634       0.00000000 NULL       0.31635684      -0.33892357      -0.25314623
P       18.53333635       2.51952991       5.95621749       0.00000000 NULL      -0.31635684      -0.26698480      -0.32813308
P       18.53333635       6.05558673       2.27033634       0.00000000 NULL      -0.31635684      -0.33892357      -0.25314623
P       11.57495229       2.51952991       5.95621749       0.00000000 NULL       0.31635684      -0.26698480      -0.32813308
P        6.42564239       1.45795620       3.00107092       0.00000000 NULL      -0.07392397       0.02444398      -0.26738185
P        8.62850192       3.05895549       1.33223657       0.00000000 NULL       0.07392397      -0.26613801       0.03551224
P        8.62850192       1.45795620       3.00107092       0.00000000 NULL       0.07392397       0.02444398      -0.26738185
P        6.42564239       3.05895549       1.33223657       0.00000000 NULL      -0.07392397      -0.26613801       0.03551224
P       12.78726411       2.59324562       0.99340814       0.00000000 NULL       0.08183114      -0.14894381       0.05173879
P       17.32102453       1.10010464       2.54981418       0.00000000 NULL      -0.08183114       0.04551704      -0.15096145
P       17.32102453       2.59324562       0.99340814       0.00000000 NULL      -0.08183114      -0.14894381       0.05173879
P       12.78726411       1.10010464       2.54981418       0.00000000 NULL       0.08183114       0.04551704      -0.15096145
P       12.47735572       2.78984476       9.11390473       0.00000000 NULL      -0.08026759       0.27998014       0.17166891
P       17.63093292       9.22176802       2.40945796       0.00000000 NULL       0.08026759       0.18313299       0.27261951
P       17.63093292       2.78984476       9.11390473       0.00000000 NULL       0.08026759       0.27998014       0.17166891
P       12.47735572       9.22176802       2.40945796       0.00000000 NULL      -0.08026759       0.18313299       0.27261951
P       21.35829802       3.08639612       4.50644590       0.00000000 NULL       0.62911336       0.19907784       0.17206177
P        8.74999062       4.63057250       2.89684206       0.00000000 NULL      -0.62911337       0.18017020       0.19177053
P        8.74999062       3.08639612       4.50644590       0.00000000 NULL      -0.62911337       0.19907784       0.17206177
P       21.35829802       4.63057250       2.89684206       0.00000000 NULL       0.62911336       0.18017020       0.19177053
P       19.51055748       8.89219546       3.63857626       0.00000000 NULL       0.10389013       0.54234107       0.14460436
P       25.65187548       4.00423697       8.73363977       0.00000000 NULL      -0.10389013       0.16697277       0.53587718
P       25.65187548       8.89219546       3.63857626       0.00000000 NULL      -0.10389013       0.54234107       0.14460436
P       19.51055748       4.00423697       8.73363977       0.00000000 NULL       0.10389013       0.16697277       0.53587718
P       17.67461903       6.17053966       4.29792082       0.00000000 NULL       0.07183726      -0.00502913      -0.26749642
P       12.43366961       4.55013737       5.98698029       0.00000000 NULL      -0.07183726      -0.26747485       0.00606923
P       12.43366961       6.17053966       4.29792082       0.00000000 NULL      -0.07183726      -0.00502913      -0.26749642
P       17.67461903       4.55013737       5.98698029       0.00000000 NULL       0.07183726      -0.26747485       0.00606923
48
Lattice="15.028553237550536 -1.884366602281278e-16 -9.48142646202423e-16 7.514276618775268 9.538248503564136 -1.5077314348494273 7.514276618775268 -1.1108486970884164 9.592572844005595" Properties=species:S:1:pos:R:3:initial_magmoms:R:1:castep_labels:S:1:forces:R:3 n_minim_iter=2 energy=-252.2185354729417 stress="0.0023545343428093986 -2.0951522649692425e-12 9.41120228551174e-13 -2.0951522649692425e-12 0.0008768206222268418 -0.0007734898351867274 9.41120228551174e-13 -0.0007734898351867274 0.0009410346820225481" free_energy=-252.2185354729417 pbc="T T T"
P       20.10749800       2.34736477       7.55739260       0.00000000 NULL      -0.01055105      -0.05940774       0.11971290
P        9.94960847       7.64824389       2.03191284       0.00000000 NULL       0.01055105       0.11714604      -0.06432155
P        9.94960847       2.34736477       7.55739260       0.00000000 NULL       0.01055105      -0.05940774       0.11971290
P       20.10749800       7.64824389       2.03191284       0.00000000 NULL      -0.01055105       0.11714604      -0.06432155
P       19.01584052       7.59741809       5.36790375       0.00000000 NULL      -0.22948250      -0.21789860       0.00786544
P       26.06981919       5.67837747       7.36825500       0.00000000 NULL       0.22948250      -0.00117837      -0.21803733
P       26.06981919       7.59741809       5.36790375       0.00000000 NULL       0.22948250      -0.21789860       0.00786544
P       19.01584052       5.67837747       7.36825500       0.00000000 NULL      -0.22948250      -0.00117837      -0.21803733
P       27.73799185       6.95503771       8.24092905       0.00000000 NULL      -0.27419906       0.08915935       0.06277590
P       17.34766786       8.52228900       6.60727262       0.00000000 NULL       0.27419906       0.06641965       0.08647910
P       17.34766786       6.95503771       8.24092905       0.00000000 NULL       0.27419906       0.08915935       0.06277590
P       27.73799185       8.52228900       6.60727262       0.00000000 NULL      -0.27419906       0.06641965       0.08647910
P       11.10989136       0.92624267       8.94675464       0.00000000 NULL      -0.33234189      -0.05028896       0.26301429
P       18.94721511       8.97747146       0.55439163       0.00000000 NULL       0.33234189       0.26070233      -0.06115384
P       18.94721511       0.92624267       8.94675464       0.00000000 NULL       0.33234189      -0.05028896       0.26301429
P       11.10989136       8.97747146       0.55439163       0.00000000 NULL      -0.33234189       0.26070233      -0.06115384
P       13.42659368       2.56453222       7.23252974       0.00000000 NULL      -0.21762359      -0.02254358      -0.16289126
P       16.63051279       7.33266725       2.26236667       0.00000000 NULL       0.21762359      -0.16368607      -0.01576850
P       16.63051279       2.56453222       7.23252974       0.00000000 NULL       0.21762359      -0.02254358      -0.16289126
P       13.42659368       7.33266725       2.26236667       0.00000000 NULL      -0.21762359      -0.16368607      -0.01576850
P       11.55563029       6.10499500       2.30014768       0.00000000 NULL       0.31431100      -0.18104095      -0.13858755
P       18.50147618       2.55136474       6.00434687       0.00000000 NULL      -0.31431100      -0.14597673      -0.17513746
P       18.50147618       6.10499500       2.30014768       0.00000000 NULL      -0.31431100      -0.18104095      -0.13858755
P       11.55563029       2.55136474       6.00434687       0.00000000 NULL       0.31431100      -0.14597673      -0.17513746
P        6.41463633       1.47556466       3.02563565       0.00000000 NULL      -0.06084368       0.24282065      -0.19456230
P        8.61391690       3.08422937       1.34881109       0.00000000 NULL       0.06084368      -0.18432425       0.25068093
P        8.61391690       1.47556466       3.02563565       0.00000000 NULL       0.06084368       0.24282065      -0.19456230
P        6.41463633       3.08422937       1.34881109       0.00000000 NULL      -0.06084368      -0.18432425       0.25068093
P       12.76561832       2.61444855       1.00650759       0.00000000 NULL       0.00207016      -0.24776158       0.01768525
P       17.29148815       1.11407217       2.57045559       0.00000000 NULL      -0.00207016       0.00739447      -0.24828188
P       17.29148815       2.61444855       1.00650759       0.00000000 NULL      -0.00207016      -0.24776158       0.01768525
P       12.76561832       1.11407217       2.57045559       0.00000000 NULL       0.00207016       0.00739447      -0.24828188
P       12.45605502       2.83148730       9.18588581       0.00000000 NULL      -0.06442950       0.21254120       0.00232159
P       17.60105145       9.29541424       2.44807936       0.00000000 NULL       0.06442950       0.01113444       0.21226204
P       17.60105145       2.83148730       9.18588581       0.00000000 NULL       0.06442950       0.21254120       0.00232159
P       12.45605502       9.29541424       2.44807936       0.00000000 NULL      -0.06442950       0.01113444       0.21226204
P       21.32269559       3.11963242       4.54602617       0.00000000 NULL       0.65330228       0.10834534      -0.05288985
P        8.73441088       4.67149715       2.92840823       0.00000000 NULL      -0.65330228      -0.04835087       0.11044565
P        8.73441088       3.11963242       4.54602617       0.00000000 NULL      -0.65330228       0.10834534      -0.05288985
P       21.32269559       4.67149715       2.92840823       0.00000000 NULL       0.65330227      -0.04835087       0.11044565
P       19.47750725       8.96662036       3.68512654       0.00000000 NULL       0.15204325       0.34240819       0.01519930
P       25.60815245       4.05383387       8.80607003       0.00000000 NULL      -0.15204325       0.02938713       0.34148321
P       25.60815245       8.96662036       3.68512654       0.00000000 NULL      -0.15204325       0.34240818       0.01519930
P       19.47750725       4.05383387       8.80607003       0.00000000 NULL       0.15204325       0.02938713       0.34148321
P       17.64465384       6.22579321       4.34253473       0.00000000 NULL       0.13497723       0.07528701      -0.24362012
P       12.41245263       4.59700445       6.04033600       0.00000000 NULL      -0.13497723      -0.24028809       0.08532604
P       12.41245263       6.22579321       4.34253473       0.00000000 NULL      -0.13497723       0.07528701      -0.24362012
P       17.64465384       4.59700445       6.04033600       0.00000000 NULL       0.13497723      -0.24028809       0.08532604
48
Lattice="14.935373364166631 -9.434887211995295e-17 -8.131402906559332e-16 7.467686682083316 9.538336067550327 -1.4829676837633652 7.467686682083316 -1.0861026211356894 9.591633290789435" Properties=species:S:1:pos:R:3:initial_magmoms:R:1:castep_labels:S:1:forces:R:3 n_minim_iter=3 energy=-252.23674637689675 stress="-0.0008593303994562034 -3.365281702369801e-12 -1.627124040321345e-12 -3.365281702369801e-12 5.46018163111218e-05 0.0007086266147553039 -1.627124040321345e-12 0.0007086266147553039 -4.227394379101343e-06" free_energy=-252.23674637689675 pbc="T T T"
P       19.98283463       2.36805246       7.56534236       0.00000000 NULL       0.10101456      -0.02107208       0.14391120
P        9.88791209       7.65704480       2.05225303       0.00000000 NULL      -0.10101456       0.14291345      -0.02702246
P        9.88791209       2.36805246       7.56534236       0.00000000 NULL      -0.10101456      -0.02107207       0.14391120
P       19.98283463       7.65704480       2.05225303       0.00000000 NULL       0.10101456       0.14291345      -0.02702246
P       18.89747446       7.61428581       5.38904012       0.00000000 NULL      -0.17745965      -0.23985134       0.00883018
P       25.90864562       5.70019522       7.38423159       0.00000000 NULL       0.17745965      -0.00112491      -0.24001119
P       25.90864562       7.61428581       5.38904012       0.00000000 NULL       0.17745965      -0.23985134       0.00883018
P       18.89747446       5.70019522       7.38423159       0.00000000 NULL      -0.17745965      -0.00112491      -0.24001119
P       27.56543378       6.97985088       8.26108896       0.00000000 NULL      -0.19529665       0.07928893       0.09837466
P       17.24068630       8.54346064       6.63122833       0.00000000 NULL       0.19529665       0.10157841       0.07514076
P       17.24068630       6.97985088       8.26108896       0.00000000 NULL       0.19529665       0.07928893       0.09837466
P       27.56543378       8.54346064       6.63122833       0.00000000 NULL      -0.19529665       0.10157841       0.07514076
P       11.04031481       0.94999662       8.95159098       0.00000000 NULL      -0.25987025      -0.06625549       0.26186249
P       18.83043191       8.98328881       0.57792456       0.00000000 NULL       0.25987025       0.25888933      -0.07705886
P       18.83043191       0.94999662       8.95159098       0.00000000 NULL       0.25987025      -0.06625548       0.26186249
P       11.04031481       8.98328881       0.57792456       0.00000000 NULL      -0.25987025       0.25888933      -0.07705886
P       13.34290445       2.58456880       7.24037657       0.00000000 NULL      -0.06675067      -0.05327406      -0.13428697
P       16.52784227       7.34133831       2.28206057       0.00000000 NULL       0.06675067      -0.13638090      -0.04765885
P       16.52784227       2.58456880       7.24037657       0.00000000 NULL       0.06675067      -0.05327406      -0.13428697
P       13.34290445       7.34133831       2.28206057       0.00000000 NULL      -0.06675067      -0.13638090      -0.04765885
P       11.48465616       6.11317501       2.31632141       0.00000000 NULL       0.25877020      -0.22182716      -0.11643111
P       18.38609056       2.56786381       6.01184906       0.00000000 NULL      -0.25877020      -0.12553090      -0.21680749
P       18.38609056       6.11317501       2.31632141       0.00000000 NULL      -0.25877020      -0.22182716      -0.11643111
P       11.48465616       2.56786381       6.01184906       0.00000000 NULL       0.25877020      -0.12553090      -0.21680749
P        6.37472925       1.48458905       3.02968881       0.00000000 NULL      -0.19275296       0.22754366      -0.13762759
P        8.56064411       3.08865331       1.35765961       0.00000000 NULL       0.19275296      -0.12807212       0.23305580
P        8.56064411       1.48458905       3.02968881       0.00000000 NULL       0.19275296       0.22754366      -0.13762759
P        6.37472925       3.08865331       1.35765961       0.00000000 NULL      -0.19275296      -0.12807212       0.23305580
P       12.68650401       2.61770147       1.01363698       0.00000000 NULL       0.01733095      -0.20876175      -0.00340991
P       17.18424271       1.12133034       2.57341003       0.00000000 NULL      -0.01733095      -0.01206508      -0.20844071
P       17.18424271       2.61770147       1.01363698       0.00000000 NULL      -0.01733095      -0.20876175      -0.00340991
P       12.68650401       1.12133034       2.57341003       0.00000000 NULL       0.01733095      -0.01206508      -0.20844071
P       12.37868127       2.85733043       9.19530041       0.00000000 NULL      -0.01005268       0.18219264       0.00963595
P       17.49206545       9.30589254       2.47350979       0.00000000 NULL       0.01005268       0.01718384       0.18163624
P       17.49206545       2.85733043       9.19530041       0.00000000 NULL       0.01005268       0.18219263       0.00963595
P       12.37868127       9.30589254       2.47350979       0.00000000 NULL      -0.01005268       0.01718384       0.18163624
P       21.19187875       3.13318051       4.55513953       0.00000000 NULL       0.58113702       0.05149442      -0.03528685
P        8.67886797       4.68116456       2.94156670       0.00000000 NULL      -0.58113702      -0.03312083       0.05291359
P        8.67886797       3.13318051       4.55513953       0.00000000 NULL      -0.58113702       0.05149442      -0.03528685
P       21.19187875       4.68116456       2.94156670       0.00000000 NULL       0.58113702      -0.03312083       0.05291359
P       19.35704976       8.98094421       3.70954876       0.00000000 NULL       0.25631702       0.33253532      -0.02280639
P       25.44907032       4.07882914       8.81936867       0.00000000 NULL      -0.25631702      -0.00899533       0.33319507
P       25.44907032       8.98094421       3.70954876       0.00000000 NULL      -0.25631702       0.33253532      -0.02280639
P       19.35704976       4.07882914       8.81936867       0.00000000 NULL       0.25631702      -0.00899533       0.33319507
P       17.53551816       6.23998353       4.35925717       0.00000000 NULL       0.10031680       0.04438421      -0.18367108
P       12.33522856       4.61430103       6.05382057       0.00000000 NULL      -0.10031680      -0.18167227       0.05196352
P       12.33522856       6.23998353       4.35925717       0.00000000 NULL      -0.10031681       0.04438421      -0.18367108
P       17.53551816       4.61430103       6.05382057       0.00000000 NULL       0.10031680      -0.18167227       0.05196352
48
Lattice="14.881012192664054 1.1051897173710497e-17 -7.674754122953026e-16 7.440506096332027 9.555273535059204 -1.5450999540380004 7.440506096332027 -1.1474789750944363 9.611133034116598" Properties=species:S:1:pos:R:3:initial_magmoms:R:1:castep_labels:S:1:forces:R:3 n_minim_iter=4 energy=-252.30351485884472 stress="-0.0036031864915163155 -2.8773983615382777e-13 -5.042474477455896e-12 -2.8773983615382777e-13 0.0006598008432248148 -0.0031775513079603363 -5.042474477455896e-12 -0.0031775513079603363 0.0009235967989405599" free_energy=-252.30351485884472 pbc="T T T"
P       19.91182786       2.32116657       7.56370292       0.00000000 NULL       0.11666609      -0.12039203       0.05208136
P        9.85019652       7.65346224       2.00547546       0.00000000 NULL      -0.11666609       0.04704346      -0.12244845
P        9.85019652       2.32116657       7.56370292       0.00000000 NULL      -0.11666609      -0.12039203       0.05208137
P       19.91182786       7.65346224       2.00547546       0.00000000 NULL       0.11666609       0.04704346      -0.12244845
P       18.82397074       7.58038697       5.34847287       0.00000000 NULL       0.08061980      -0.04471839      -0.08482515
P       25.81906583       5.65825696       7.35204439       0.00000000 NULL      -0.08061980      -0.08660679      -0.04116191
P       25.81906583       7.58038697       5.34847287       0.00000000 NULL      -0.08061980      -0.04471839      -0.08482515
P       18.82397074       5.65825696       7.35204439       0.00000000 NULL       0.08061980      -0.08660679      -0.04116191
P       27.45965360       6.93539615       8.23032140       0.00000000 NULL      -0.09155547       0.17962220       0.05238432
P       17.18338297       8.51087586       6.58808789       0.00000000 NULL       0.09155547       0.05978883       0.17729509
P       17.18338297       6.93539615       8.23032140       0.00000000 NULL       0.09155547       0.17962220       0.05238432
P       27.45965360       8.51087586       6.58808789       0.00000000 NULL      -0.09155547       0.05978883       0.17729509
P       10.99316357       0.89251578       8.96404655       0.00000000 NULL      -0.11982028      -0.04999126       0.04868537
P       18.76886081       8.99334972       0.51997660       0.00000000 NULL       0.11982028       0.04657017      -0.05196740
P       18.76886081       0.89251578       8.96404655       0.00000000 NULL       0.11982028      -0.04999126       0.04868537
P       10.99316357       8.99334972       0.51997660       0.00000000 NULL      -0.11982028       0.04657017      -0.05196740
P       13.29156033       2.53976590       7.22980722       0.00000000 NULL       0.04245974      -0.01452068      -0.06593509
P       16.47046405       7.32891992       2.23773457       0.00000000 NULL      -0.04245974      -0.06648058      -0.01177362
P       16.47046405       2.53976590       7.22980722       0.00000000 NULL      -0.04245974      -0.01452068      -0.06593509
P       13.29156033       7.32891992       2.23773457       0.00000000 NULL       0.04245974      -0.06648058      -0.01177362
P       11.44973033       6.09781596       2.27744845       0.00000000 NULL       0.05824858      -0.13366555      -0.20278762
P       18.31229405       2.52838730       5.99811542       0.00000000 NULL      -0.05824858      -0.20815673      -0.12514021
P       18.31229405       6.09781596       2.27744845       0.00000000 NULL      -0.05824858      -0.13366555      -0.20278762
P       11.44973033       2.52838730       5.99811542       0.00000000 NULL       0.05824858      -0.20815673      -0.12514021
P        6.34778222       1.47227958       3.02021898       0.00000000 NULL      -0.23492820       0.13251062      -0.23621868
P        8.53322997       3.07868111       1.34575348       0.00000000 NULL       0.23492820      -0.23051974       0.14219345
P        8.53322997       1.47227958       3.02021898       0.00000000 NULL       0.23492820       0.13251062      -0.23621868
P        6.34778222       3.07868111       1.34575348       0.00000000 NULL      -0.23492820      -0.23051974       0.14219345
P       12.64075503       2.60785690       0.99858382       0.00000000 NULL       0.10659880      -0.14722336       0.15261619
P       17.12126935       1.10588184       2.56419824       0.00000000 NULL      -0.10659881       0.14637900      -0.15342624
P       17.12126935       2.60785690       0.99858382       0.00000000 NULL      -0.10659880      -0.14722336       0.15261619
P       12.64075503       1.10588184       2.56419824       0.00000000 NULL       0.10659881       0.14637900      -0.15342624
P       12.33291502       2.80661940       9.18985550       0.00000000 NULL       0.04464546       0.19872357       0.05750023
P       17.42910936       9.29834915       2.42306821       0.00000000 NULL      -0.04464546       0.06569253       0.19616785
P       17.42910936       2.80661940       9.18985550       0.00000000 NULL      -0.04464546       0.19872357       0.05750023
P       12.33291502       9.29834915       2.42306821       0.00000000 NULL       0.04464546       0.06569253       0.19616785
P       21.12972030       3.10886029       4.54067440       0.00000000 NULL       0.38499742       0.15759301       0.04467679
P        8.63230408       4.66570322       2.91786733       0.00000000 NULL      -0.38499742       0.05117429       0.15560451
P        8.63230408       3.10886029       4.54067440       0.00000000 NULL      -0.38499742       0.15759301       0.04467678
P       21.12972030       4.66570322       2.91786733       0.00000000 NULL       0.38499742       0.05117429       0.15560451
P       19.29204846       8.97359965       3.65772736       0.00000000 NULL       0.16538183       0.18534050       0.14977496
P       25.35098811       4.02674772       8.81417966       0.00000000 NULL      -0.16538183       0.15733283       0.17896932
P       25.35098811       8.97359965       3.65772736       0.00000000 NULL      -0.16538183       0.18534050       0.14977496
P       19.29204846       4.02674772       8.81417966       0.00000000 NULL       0.16538183       0.15733283       0.17896932
P       17.47436854       6.21870134       4.32039522       0.00000000 NULL      -0.04851696      -0.12171215      -0.19890705
P       12.28765584       4.57458987       6.03416844       0.00000000 NULL       0.04851696      -0.20378375      -0.11335804
P       12.28765584       6.21870134       4.32039522       0.00000000 NULL       0.04851696      -0.12171215      -0.19890705
P       17.47436854       4.57458987       6.03416844       0.00000000 NULL      -0.04851696      -0.20378375      -0.11335804
48
Lattice="15.101668388410946 -1.3599681075772644e-16 -9.078444710298537e-16 7.550834194205473 9.519008453884805 -1.4772334142105767 7.550834194205473 -1.0811748710305873 9.572084485807816" Properties=species:S:1:pos:R:3:initial_magmoms:R:1:castep_labels:S:1:forces:R:3 n_minim_iter=5 energy=-252.42116365187533 stress="0.0005400184640497434 7.883058261895988e-13 -3.2546070081058723e-13 7.883058261895988e-13 -0.0003359491197939422 0.0012687845290892898 -3.2546070081058723e-13 0.0012687845290892898 -0.000441281858150258" free_energy=-252.42116365187533 pbc="T T T"
P       20.21199892       2.36138361       7.56263682       0.00000000 NULL      -0.27471924       0.03946634      -0.08871667
P        9.99133785       7.65406500       2.04570212       0.00000000 NULL       0.27471924      -0.08700353       0.04311179
P        9.99133785       2.36138361       7.56263682       0.00000000 NULL       0.27471924       0.03946634      -0.08871667
P       20.21199892       7.65406500       2.04570212       0.00000000 NULL      -0.27471924      -0.08700353       0.04311179
P       19.09159328       7.57986394       5.38112732       0.00000000 NULL       0.06732461       0.07703763      -0.07285752
P       26.21341187       5.69086163       7.35016751       0.00000000 NULL      -0.06732461      -0.06959981       0.07999301
P       26.21341187       7.57986394       5.38112732       0.00000000 NULL      -0.06732461       0.07703763      -0.07285753
P       19.09159328       5.69086163       7.35016751       0.00000000 NULL       0.06732461      -0.06959981       0.07999301
P       27.85261378       6.97675281       8.25510426       0.00000000 NULL      -0.17127114       0.02122134       0.07912704
P       17.45239138       8.53735262       6.62838114       0.00000000 NULL       0.17127114       0.07993908       0.01792140
P       17.45239138       6.97675281       8.25510426       0.00000000 NULL       0.17127114       0.02122134       0.07912704
P       27.85261378       8.53735262       6.62838114       0.00000000 NULL      -0.17127114       0.07993908       0.01792140
P       11.13798951       0.94448379       8.95719735       0.00000000 NULL       0.06445627      -0.07693434      -0.11425391
P       19.06534726       8.98866172       0.57218395       0.00000000 NULL      -0.06445627      -0.11734635      -0.07212962
P       19.06534726       0.94448379       8.95719735       0.00000000 NULL      -0.06445627      -0.07693434      -0.11425391
P       11.13798951       8.98866172       0.57218395       0.00000000 NULL       0.06445627      -0.11734635      -0.07212962
P       13.48182730       2.57729355       7.21299879       0.00000000 NULL      -0.12413936      -0.00997564       0.12724564
P       16.72150947       7.31368236       2.27592703       0.00000000 NULL       0.12413936       0.12672243      -0.01524439
P       16.72150947       2.57729355       7.21299879       0.00000000 NULL       0.12413937      -0.00997564       0.12724564
P       13.48182730       7.31368236       2.27592703       0.00000000 NULL      -0.12413937       0.12672243      -0.01524439
P       11.63714205       6.08149757       2.30059256       0.00000000 NULL      -0.26559533       0.12838599      -0.15923492