15
Lattice="7.1928655894798315 -1.5087614039491714e-14 -1.5420034824013748e-43 -3.596432794739901 6.22920432649647 -2.131018155011698e-41 -3.5611683180442837e-43 3.406455494994335e-41 7.8842493136474205" Properties=species:S:1:pos:R:3:initial_magmoms:R:1:castep_labels:S:1:forces:R:3 n_minim_iter=5 energy=-79.97954126086167 stress="-6.323349530596303e-06 1.016890710425137e-12 -2.8435544541096818e-12 1.016890710425137e-12 -6.323337981104618e-06 -5.831854500510029e-12 -2.8435544541096818e-12 -5.831854500510029e-12 -9.104330778578488e-06" free_energy=-79.97954126086167 pbc="T T T"
P        5.62612570       2.77310439       6.92009568       0.00000000 NULL       0.00027900       0.00328157      -0.00010702
P        1.97822389       3.48581559       6.92009568       0.00000000 NULL      -0.00298142      -0.00139917      -0.00010702
P        3.18494879      -0.02971565       6.92009568       0.00000000 NULL       0.00270243      -0.00188240      -0.00010702
P        0.16380365       2.85678677       3.95015842       0.00000000 NULL       0.00376777       0.00474054      -0.00330015
P        1.04048106       4.94266907       3.95015842       0.00000000 NULL      -0.00598931       0.00089271      -0.00330015
P       -1.20428471       4.65895282       3.95015842       0.00000000 NULL       0.00222155      -0.00563325      -0.00330015
P        3.74986582       3.31379483       2.63944366       0.00000000 NULL       0.00222526      -0.00237880      -0.00087125
P        2.44810217       1.59058165       2.63944366       0.00000000 NULL       0.00094747       0.00311653      -0.00087125
P        4.59133039       1.32482785       2.63944366       0.00000000 NULL      -0.00317273      -0.00073773      -0.00087125
P       -0.37692670       5.40706070       1.10833526       0.00000000 NULL       0.00101966       0.00439542      -0.00281766
P       -0.89775578       3.19924588       1.10833526       0.00000000 NULL      -0.00431637      -0.00131466      -0.00281766
P        1.27468248       3.85210208       1.10833526       0.00000000 NULL       0.00329671      -0.00308076      -0.00281766
P        5.16124858      -0.71639270       6.04744616       0.00000000 NULL       0.00075470      -0.00082081       0.00709608
P        5.23265558       4.82796874       6.04744616       0.00000000 NULL       0.00033350       0.00106400       0.00709608
P        0.39539422       2.11762830       6.04744616       0.00000000 NULL      -0.00108819      -0.00024318       0.00709608
