12
Lattice="4.765030988972072 -1.793661402093926 2.128302049842736 -2.799567215460045 7.26015467627347 -2.658042296170918 0.47404671401977944 -2.905868582857807 9.333988346434404" Properties=species:S:1:pos:R:3:initial_magmoms:R:1:castep_labels:S:1:forces:R:3 n_minim_iter=18 energy=-66.25324191475312 stress="-0.00011351389558863668 -3.53490409294743e-05 -6.45493395483409e-05 -3.53490409294743e-05 1.335639386586721e-05 0.00013919314095581356 -6.45493395483409e-05 0.00013919314095581356 0.0002896577290620435" free_energy=-66.25324191475312 pbc="T T T"
P        1.43605307      -0.52051550       6.11064396       0.00000000 NULL      -0.00036233       0.00748589       0.00183688
P        1.00345742       3.08114020       2.69360414       0.00000000 NULL       0.00036233      -0.00748589      -0.00183688
P       -1.57886366       2.03514748      -1.08669311       0.00000000 NULL       0.00170249      -0.00618304      -0.00211123
P        4.01837415       0.52547721       9.89094121       0.00000000 NULL      -0.00170249       0.00618304       0.00211123
P        1.86417792       3.37745210       6.10822316       0.00000000 NULL      -0.00000894      -0.00101310       0.00154636
P        0.57533257      -0.81682741       2.69602494       0.00000000 NULL       0.00000894       0.00101310      -0.00154636
P       -0.82340881       3.80886421       1.59254574       0.00000000 NULL       0.00071571      -0.00208949      -0.00246185
P        3.26291930      -1.24823952       7.21170236       0.00000000 NULL      -0.00071571       0.00208949       0.00246185
P        3.03271198      -3.48731543       7.30253586       0.00000000 NULL      -0.00510996       0.00014388      -0.00168240
P       -0.59320149       6.04794012       1.50171224       0.00000000 NULL       0.00510996      -0.00014388       0.00168240
P        0.39401983       0.70565845       8.83735206       0.00000000 NULL       0.00566370       0.00089726       0.00620635
P        2.04549066       1.85496624      -0.03310396       0.00000000 NULL      -0.00566370      -0.00089726      -0.00620635
