18
Lattice="6.281583058837381 3.105476478419506e-06 1.2261004928041239e-15 -3.1407946658793806 6.344254621380404 0.05373177149334339 1.4758974236387147e-06 -2.9853622547589076 8.472741622480195" Properties=species:S:1:pos:R:3:initial_magmoms:R:1:castep_labels:S:1:forces:R:3 n_minim_iter=16 energy=-95.89427079847631 stress="-9.803867541750702e-06 -1.0267073599566281e-10 -2.1328440771295518e-11 -1.0267073599566281e-10 0.00020613769402952676 3.217599157659516e-05 -2.1328440771295518e-11 3.217599157659516e-05 -1.1856321661953181e-05" free_energy=-95.89427079847631 pbc="T T T"
P       -1.63184395       3.27698697       3.74489178       0.00000000 NULL      -0.00140031       0.00573489       0.00348108
P        1.50894916       0.08190689       4.78158162       0.00000000 NULL      -0.00140030      -0.00573489      -0.00348108
P        2.43452299       0.70676321       8.26278483       0.00000000 NULL       0.00433875      -0.00434492      -0.00133798
P       -0.70626950       2.65213156       0.26368857       0.00000000 NULL       0.00433875       0.00434493       0.00133798
P        2.38205000       3.25843875       7.36587915       0.00000000 NULL      -0.00173057      -0.00130705      -0.00690759
P        5.52284309       0.10045907       1.16059425       0.00000000 NULL      -0.00173057       0.00130705       0.00690759
P       -1.13632076       5.29639049       2.81851240       0.00000000 NULL      -0.00799564      -0.00514322       0.00138575
P        2.00447435      -1.93749614       5.70796099       0.00000000 NULL      -0.00799564       0.00514322      -0.00138575
P       -0.63113016       1.89346155       8.82522533       0.00000000 NULL       0.00135035      -0.00000745       0.00264798
P        2.50966158       1.46543330      -0.29875193       0.00000000 NULL       0.00135035       0.00000745      -0.00264798
P        1.04235728       4.65522499       3.18646523       0.00000000 NULL      -0.00041891      -0.00434298       0.00574795
P        4.18315176      -1.29632850       5.34000817       0.00000000 NULL      -0.00041891       0.00434298      -0.00574795
P        0.82111558       1.65605355       7.07505622       0.00000000 NULL       0.00369777      -0.00385695      -0.00229976
P        3.96190708       1.70284273       1.45141718       0.00000000 NULL       0.00369776       0.00385695       0.00229976
P        0.49955175       2.51235387       3.59773189       0.00000000 NULL       0.00463545       0.00336723       0.00633543
P        3.64034410       0.84654210       4.92874151       0.00000000 NULL       0.00463545      -0.00336723      -0.00633544
P       -2.26443808       1.68003855       7.07054042       0.00000000 NULL      -0.00247688      -0.00214696       0.00489024
P        0.87635345       1.67885467       1.45593298       0.00000000 NULL      -0.00247689       0.00214696      -0.00489024
