36
Lattice="6.16492231192062 3.0857394688435513e-40 -3.2092933191963534e-55 -3.0857394688435497e-40 6.164922311920619 -1.5985405850918747e-17 7.116721122780438e-55 -5.73812022334798e-16 18.61693705176964" Properties=species:S:1:pos:R:3:initial_magmoms:R:1:castep_labels:S:1:forces:R:3 n_minim_iter=8 energy=-191.78587589483746 stress="1.296800452881334e-05 1.677368174482589e-12 -4.837077679509237e-12 1.677368174482589e-12 1.2968001297489458e-05 1.1236142349179005e-11 -4.837077679509237e-12 1.1236142349179005e-11 9.54548657206668e-06" free_energy=-191.78587589483746 pbc="T T T"
P        3.30456269       3.47071291       1.62698832       0.00000000 NULL      -0.00112633      -0.00539156      -0.00274541
P        2.86035962       2.69420940      10.93545685       0.00000000 NULL       0.00112633       0.00539157      -0.00274541
P        2.69420940       3.30456269       6.28122258       0.00000000 NULL       0.00539157      -0.00112633      -0.00274541
P        3.47071291       2.86035962      15.58969111       0.00000000 NULL      -0.00539157       0.00112633      -0.00274541
P        1.02429772       5.49918865       3.34696552       0.00000000 NULL      -0.00343785      -0.00328052      -0.00505514
P        5.14062459       0.66573366      12.65543404       0.00000000 NULL       0.00343785       0.00328052      -0.00505514
P        0.66573366       1.02429772       8.00119978       0.00000000 NULL       0.00328052      -0.00343785      -0.00505514
P        5.49918865       5.14062459      17.30966831       0.00000000 NULL      -0.00328052       0.00343786      -0.00505514
P        5.32785536       4.96111823       9.95481614       0.00000000 NULL       0.00406910      -0.00043713       0.00361195
P        0.83706695       1.20380408       0.64634762       0.00000000 NULL      -0.00406910       0.00043713       0.00361195
P        1.20380408       5.32785536      14.60905041       0.00000000 NULL       0.00043713       0.00406910       0.00361195
P        4.96111823       0.83706695       5.30058188       0.00000000 NULL      -0.00043713      -0.00406910       0.00361195
P        4.67624781       4.02521747      14.17910004       0.00000000 NULL       0.00186599      -0.00048443      -0.00262906
P        1.48867451       2.13970484       4.87063152       0.00000000 NULL      -0.00186599       0.00048443      -0.00262906
P        2.13970484       4.67624781       0.21639725       0.00000000 NULL       0.00048443       0.00186599      -0.00262906
P        4.02521747       1.48867451       9.52486578       0.00000000 NULL      -0.00048443      -0.00186599      -0.00262906
P        3.40736036       4.56602299      16.99724301       0.00000000 NULL       0.00369732      -0.00128723       0.00493732
P        2.75756195       1.59889932       7.68877448       0.00000000 NULL      -0.00369732       0.00128723       0.00493732
P        1.59889932       3.40736036       3.03454022       0.00000000 NULL       0.00128723       0.00369732       0.00493732
P        4.56602299       2.75756195      12.34300875       0.00000000 NULL      -0.00128723      -0.00369732       0.00493732
P        3.47726752       6.02934081      14.09527383       0.00000000 NULL       0.00248569       0.00315743       0.00039636
P        2.68765479       0.13558150       4.78680530       0.00000000 NULL      -0.00248569      -0.00315743       0.00039636
P        0.13558150       3.47726752       0.13257104       0.00000000 NULL      -0.00315743       0.00248568       0.00039636
P        6.02934081       2.68765479       9.44103956       0.00000000 NULL       0.00315743      -0.00248569       0.00039636
P       -0.27804894       4.99405523       5.10298974       0.00000000 NULL      -0.00158293      -0.00367184       0.00436838
P        6.44297125       1.17086709      14.41145827       0.00000000 NULL       0.00158293       0.00367184       0.00436838
P        1.17086709      -0.27804894       9.75722400       0.00000000 NULL       0.00367184      -0.00158293       0.00436838
P        4.99405523       6.44297125       0.44875548       0.00000000 NULL      -0.00367184       0.00158293       0.00436838
P        1.05542325       4.87271918       6.89062603       0.00000000 NULL      -0.00092278       0.00221255      -0.00238147
P        5.10949906       1.29220314      16.19909456       0.00000000 NULL       0.00092278      -0.00221254      -0.00238147
P        1.29220314       1.05542325      11.54486029       0.00000000 NULL      -0.00221254      -0.00092278      -0.00238147
P        4.87271918       5.10949906       2.23639177       0.00000000 NULL       0.00221254       0.00092278      -0.00238147
P        2.09540258       5.36815879      12.49502486       0.00000000 NULL       0.00047494       0.00082317      -0.00050293
P        4.06951974       0.79676352       3.18655633       0.00000000 NULL      -0.00047494      -0.00082317      -0.00050293
P        0.79676352       2.09540258      17.14925912       0.00000000 NULL      -0.00082317       0.00047494      -0.00050293
P        5.36815879       4.06951974       7.84079060       0.00000000 NULL       0.00082317      -0.00047494      -0.00050293
