5
Lattice="3.4330855772331006 0.3917217297009354 -0.22690694379500242 0.030548675060919593 3.525103019872367 0.5035153475845767 -1.2705110834111497 0.682618470689951 10.458130792899537" Properties=species:S:1:pos:R:3:initial_magmoms:R:1:castep_labels:S:1:forces:R:3 n_minim_iter=16 energy=-25.802848888551672 stress="8.672009117228021e-05 -1.3150873161730923e-05 4.317584669064338e-06 -1.3150873161730923e-05 -5.0124136215185864e-06 1.3576651424303532e-05 4.317584669064338e-06 1.3576651424303532e-05 0.00010233091478119405" free_energy=-25.802848888551672 pbc="T T T"
P        0.16247025       1.22062599       1.99838775       0.00000000 NULL      -0.00176162       0.00002536      -0.00223985
P        1.40391468       3.00421221       9.68478476       0.00000000 NULL      -0.00120981      -0.00133882      -0.00253316
P        1.95290532       1.57063920       3.15024619       0.00000000 NULL       0.00045776      -0.00045397       0.00178967
P        0.46263629       2.34793017       7.82508859       0.00000000 NULL       0.00088322       0.00287188       0.00191161
P       -0.10893850       1.26299045       9.63285159       0.00000000 NULL       0.00163044      -0.00110444       0.00107173
