26
Lattice="6.430178728796592 0.02400145797953697 -0.6904472503869751 -1.4262476027808362 6.2700552094710575 -0.690447250386977 -2.032322429753224 -2.556300679858195 14.359098556756463" Properties=species:S:1:pos:R:3:initial_magmoms:R:1:castep_labels:S:1:forces:R:3 n_minim_iter=11 energy=-140.84449444316235 stress="4.2933084474364726e-06 -2.161149013990303e-07 -1.5724790419703208e-06 -2.161149013990303e-07 4.193302751081698e-06 -1.97790733812932e-06 -1.5724790419703208e-06 -1.97790733812932e-06 1.2132725974794039e-05" free_energy=-140.84449444316235 pbc="T T T"
P        1.73656510       0.35643426       2.01745382       0.00000000 NULL      -0.00159868       0.00596697       0.00078844
P       -0.04423595       1.77221525       2.01745382       0.00000000 NULL       0.00617377      -0.00021232       0.00078844
P        0.40479280      -1.24858085       9.04115706       0.00000000 NULL       0.00240999      -0.00154559      -0.00069893
P       -1.30769539       0.11288973       9.04115706       0.00000000 NULL      -0.00204912       0.00199951      -0.00069893
P        0.42326065       2.34438656      10.47185018       0.00000000 NULL      -0.00323592      -0.00196881       0.00087590
P        2.18861351       0.94088725      10.47185018       0.00000000 NULL      -0.00118862      -0.00359647       0.00087590
P        0.07045435       6.34770441       3.63110326       0.00000000 NULL      -0.00332099      -0.00338373      -0.00144174
P        6.16840977       1.49967863       3.63110326       0.00000000 NULL      -0.00254793      -0.00399833      -0.00144174
P       -1.30703988       4.56401813       5.84917530       0.00000000 NULL       0.00007092       0.00047073      -0.00407296
P        4.74118638      -0.24447173       5.84917530       0.00000000 NULL       0.00044263       0.00017522      -0.00407296
P       -1.89352466      -0.57584878      13.98667394       0.00000000 NULL      -0.00387279       0.00209817       0.00599252
P       -0.13414484      -1.97459936      13.98667394       0.00000000 NULL       0.00291724      -0.00330008       0.00599252
P        1.96280363       4.30758647       5.65825503       0.00000000 NULL      -0.00320461       0.00069188      -0.00306414
P        3.75419668       2.88338458       5.65825503       0.00000000 NULL       0.00139652      -0.00296614      -0.00306414
P        3.11088214       2.11327822       2.26972336       0.00000000 NULL       0.00199386       0.00065260      -0.00268139
P        1.35755241       3.50721884       2.26972336       0.00000000 NULL       0.00018630       0.00208966      -0.00268139
P        4.73382042      -0.24995907       3.57428410       0.00000000 NULL       0.00310005       0.00277082       0.00407734
P       -1.31072536       4.55560471       3.57428410       0.00000000 NULL       0.00200061       0.00364490       0.00407734
P        3.36828785      -1.48897000       8.55276373       0.00000000 NULL       0.00110188      -0.00369555      -0.00179922
P       -2.20999183       2.94590067       8.55276373       0.00000000 NULL      -0.00384883       0.00024038      -0.00179922
P        1.25124140      -0.23866202      14.36454671       0.00000000 NULL       0.00338415       0.00508829      -0.00012570
P       -0.51460018       1.16522583      14.36454671       0.00000000 NULL       0.00419437       0.00444414      -0.00012570
P       -0.18609735       2.06505299       8.34274747       0.00000000 NULL       0.00244539      -0.00271291       0.00099364
P        2.05384571       0.28424272       8.34274747       0.00000000 NULL      -0.00319436       0.00177084       0.00099364
P       -0.91491438       0.68753645      11.22580311       0.00000000 NULL       0.00301390      -0.00625120       0.00115625
P        0.87609691      -0.73636194      11.22580311       0.00000000 NULL      -0.00676973       0.00152703       0.00115625
