2
Lattice="2.488414972117865 -0.01138964513364328 0.039914678183622876 0.024097059104653446 4.400153041020523 -0.34245593357817605 1.1917950446472743 1.7924056226311749 4.32701476808466" Properties=species:S:1:pos:R:3:initial_magmoms:R:1:castep_labels:S:1:forces:R:3 n_minim_iter=13 energy=-10.421234343541984 stress="-4.628692856758813e-05 -6.390006834873007e-05 -2.924557383189727e-07 -6.390006834873007e-05 -6.925725077045547e-05 4.021824152532505e-05 -2.924557383189727e-07 4.021824152532505e-05 1.7793389419334927e-05" free_energy=-10.421234343541984 pbc="T T T"
P        0.44701340       2.79574268       0.76817690       0.00000000 NULL      -0.00192797       0.00305057      -0.00342182
P        1.66579954       3.49654737       2.53737950       0.00000000 NULL       0.00192797      -0.00305057       0.00342182
