64
Lattice="9.427864627406176 0.9564951383068757 0.0 -0.02574370851973651 9.901792853834342 0.0 0.0 0.0 15.299166700911172" Properties=species:S:1:pos:R:3:initial_magmoms:R:1:castep_labels:S:1:forces:R:3 n_minim_iter=12 energy=-340.1710416568644 stress="2.1268372657341946e-05 1.2176184145877114e-05 -3.677670467754938e-12 1.2176184145877114e-05 -9.873708501428509e-06 -5.860157019431483e-13 -3.677670467754938e-12 -5.860157019431483e-13 -9.223234478305263e-06" free_energy=-340.1710416568644 pbc="T T T"
P        3.85098595       4.35393171       6.07853625       0.00000000 NULL       0.00361405      -0.00648091       0.00113427
P       10.27793914       2.03170742       6.07853625       0.00000000 NULL      -0.00361405       0.00648091       0.00113427
P        5.55113497       6.50435628       9.22063045       0.00000000 NULL      -0.00361405       0.00648091      -0.00113427
P       -0.87581822       8.82658057       9.22063045       0.00000000 NULL       0.00361405      -0.00648091      -0.00113427
P        5.33115868      10.06081054      10.41727831       0.00000000 NULL       0.00446537       0.00065375       0.00128118
P        8.77202270       6.22662145      10.41727831       0.00000000 NULL      -0.00446537      -0.00065375       0.00128118
P        4.07096224       0.79747745       4.88188839       0.00000000 NULL      -0.00446537      -0.00065375      -0.00128118
P        0.63009823       4.63166655       4.88188839       0.00000000 NULL       0.00446537       0.00065375      -0.00128118
P        9.01517418       6.83404802       3.14331195       0.00000000 NULL       0.00266641      -0.00499074       0.00507534
P        5.08800720       9.45338397       3.14331195       0.00000000 NULL      -0.00266641       0.00499074       0.00507534
P        0.38694674       4.02423997      12.15585475       0.00000000 NULL      -0.00266641       0.00499074      -0.00507534
P        4.31411372       1.40490402      12.15585475       0.00000000 NULL       0.00266641      -0.00499074      -0.00507534
P        7.45897201       2.15674319       3.48722784       0.00000000 NULL       0.00042609       0.00296611       0.00502066
P        6.66995308       4.22889594       3.48722784       0.00000000 NULL      -0.00042609      -0.00296611       0.00502066
P        1.94314891       8.70154480      11.81193886       0.00000000 NULL      -0.00042609      -0.00296611      -0.00502066
P        2.73216784       6.62939205      11.81193886       0.00000000 NULL       0.00042609       0.00296611      -0.00502066
P        5.66754377       1.58576867       2.24823334       0.00000000 NULL       0.00029623       0.00308640      -0.00383970
P        8.46138132       4.79987046       2.24823334       0.00000000 NULL      -0.00029623      -0.00308640      -0.00383970
P        3.73457715       9.27251932      13.05093337       0.00000000 NULL      -0.00029623      -0.00308640       0.00383970
P        0.94073960       6.05841753      13.05093337       0.00000000 NULL       0.00029623       0.00308640       0.00383970
P        7.22298393       1.28252060       8.07438752       0.00000000 NULL      -0.00057125       0.00260881       0.00196001
P        6.90594115       5.10311853       8.07438752       0.00000000 NULL       0.00057125      -0.00260881       0.00196001
P        2.17913699       9.57576739       7.22477918       0.00000000 NULL       0.00057125      -0.00260881      -0.00196001
P        2.49617977       5.75516946       7.22477918       0.00000000 NULL      -0.00057125       0.00260881      -0.00196001
P        2.41984658       5.64964222      14.61711439       0.00000000 NULL       0.00241942       0.00023544       0.00313933
P        2.28121388      -0.22049822      14.61711439       0.00000000 NULL      -0.00241942      -0.00023544       0.00313933
P        6.98227434       5.20864577       0.68205231       0.00000000 NULL      -0.00241942      -0.00023544      -0.00313933
P        7.12090704      11.07878622       0.68205231       0.00000000 NULL       0.00241942       0.00023544      -0.00313933
P        4.59560218       4.98772282      10.49393846       0.00000000 NULL      -0.00088658      -0.00631073       0.00674180
P        0.10545828       0.44142117      10.49393846       0.00000000 NULL       0.00088658       0.00631073       0.00674180
P        4.80651874       5.87056517       4.80522824       0.00000000 NULL       0.00088658       0.00631073      -0.00674180
P        9.29666264      10.41686682       4.80522824       0.00000000 NULL      -0.00088658      -0.00631073      -0.00674180
P        3.06331073       1.84818975      10.32666297       0.00000000 NULL       0.00011188       0.00390072       0.00071611
P        1.63774973       3.58095424      10.32666297       0.00000000 NULL      -0.00011188      -0.00390072       0.00071611
P        6.33881019       9.01009824       4.97250373       0.00000000 NULL      -0.00011188      -0.00390072      -0.00071611
P        7.76437119       7.27733375       4.97250373       0.00000000 NULL       0.00011188       0.00390072      -0.00071611
P        4.80887032       7.71167995       6.02855118       0.00000000 NULL       0.00272823      -0.00925747       0.00043874
P        9.29431105       8.57575204       6.02855118       0.00000000 NULL      -0.00272823       0.00925747       0.00043873
P        4.59325060       3.14660805       9.27061552       0.00000000 NULL      -0.00272823       0.00925747      -0.00043874
P        0.10780987       2.28253595       9.27061552       0.00000000 NULL       0.00272823      -0.00925747      -0.00043873
P        6.17341974       1.76469741      14.10284170       0.00000000 NULL       0.00335535      -0.00044231      -0.00150497
P        7.95550535       4.62094172      14.10284170       0.00000000 NULL      -0.00335535       0.00044231      -0.00150497
P        3.22870118       9.09359058       1.19632500       0.00000000 NULL      -0.00335535       0.00044231       0.00150497
P        1.44661557       6.23734627       1.19632500       0.00000000 NULL       0.00335535      -0.00044231       0.00150497
P        4.03442070       6.80752281      13.67004802       0.00000000 NULL       0.00025483      -0.00597315      -0.00079782
P        0.64089605       8.52341404      13.67004802       0.00000000 NULL      -0.00025483       0.00597315      -0.00079782
P        5.36770022       4.05076519       1.62911868       0.00000000 NULL      -0.00025483       0.00597315       0.00079782
P        8.76122487       2.33487395       1.62911868       0.00000000 NULL       0.00025483      -0.00597315       0.00079782
P        1.38893741       8.30010606       2.09263109       0.00000000 NULL      -0.00390825      -0.00171165      -0.00097760
P        3.28637934       7.03083079       2.09263109       0.00000000 NULL       0.00390825       0.00171165      -0.00097760
P        8.01318351       2.55818193      13.20653562       0.00000000 NULL       0.00390825       0.00171165       0.00097760
P        6.11574158       3.82745720      13.20653562       0.00000000 NULL      -0.00390825      -0.00171165       0.00097760
P        5.50654497       9.72988205       8.07006420       0.00000000 NULL      -0.00131523      -0.00258094      -0.00087667
P        8.59663641       6.55754993       8.07006420       0.00000000 NULL       0.00131523       0.00258094      -0.00087667
P        3.89557595       1.12840594       7.22910250       0.00000000 NULL       0.00131523       0.00258094       0.00087667
P        0.80548451       4.30073806       7.22910250       0.00000000 NULL      -0.00131523      -0.00258094       0.00087667
P        6.42540376       2.16370368       9.98444307       0.00000000 NULL       0.00714856      -0.00125753       0.00104025
P        7.70352133       4.22193545       9.98444307       0.00000000 NULL      -0.00714856       0.00125752       0.00104025
P        2.97671716       8.69458431       5.31472363       0.00000000 NULL      -0.00714856       0.00125753      -0.00104025
P        1.69859959       6.63635254       5.31472363       0.00000000 NULL       0.00714856      -0.00125753      -0.00104025
P        7.28255551       9.24535527      11.06912469       0.00000000 NULL      -0.00217783      -0.00069871       0.00039399
P        6.82062587       7.04207672      11.06912469       0.00000000 NULL       0.00217783       0.00069871       0.00039399
P        2.11956541       1.61293273       4.23004201       0.00000000 NULL       0.00217783       0.00069871      -0.00039399
P        2.58149505       3.81621127       4.23004201       0.00000000 NULL      -0.00217783      -0.00069871      -0.00039399
