4
Lattice="4.283241640761366 -0.2706855537683236 -0.5303698316450003 0.9880739805429758 4.054577300352807 -0.4219838694576188 -0.2121580362850099 1.2277885320037936 4.0332641114865195" Properties=species:S:1:pos:R:3:initial_magmoms:R:1:castep_labels:S:1:forces:R:3 n_minim_iter=1 energy=-22.091937294004023 stress="0.00018925967339983307 -7.247116379670625e-05 -6.816942711248461e-05 -7.247116379670625e-05 4.2578744036351354e-05 -5.020499389679857e-05 -6.816942711248461e-05 -5.020499389679857e-05 0.00013591492952429065" free_energy=-22.091937294004023 pbc="T T T"
P        2.41461166       3.19203196       2.19520184       0.00000000 NULL      -0.00099327       0.00231623      -0.00520138
P        3.75553685       1.32914009       2.07428963       0.00000000 NULL      -0.00195528       0.00426929      -0.00838517
P        0.84609132       2.16148790       0.97721661       0.00000000 NULL       0.00195528      -0.00426929       0.00838517
P        2.18701651       0.29859602       0.85630440       0.00000000 NULL       0.00099327      -0.00231623       0.00520138
