14
Lattice="4.5472964699178595 0.8225493820678187 0.10938311262555166 2.834012185124652 6.363547231153646 -1.886331962953362 0.37536636098937004 -2.548089229243743 11.925341620579035" Properties=species:S:1:pos:R:3:initial_magmoms:R:1:castep_labels:S:1:forces:R:3 n_minim_iter=17 energy=-74.29921104923099 stress="-6.794345558124826e-06 1.2933628860739181e-05 -8.498985359275232e-06 1.2933628860739181e-05 -1.4555002954116137e-05 1.6645439525103048e-05 -8.498985359275232e-06 1.6645439525103048e-05 -4.180543962303267e-05" free_energy=-74.29921104923099 pbc="T T T"
P        4.24994739       4.94421941       4.66446632       0.00000000 NULL      -0.00302983      -0.00359989       0.00246589
P        2.97766982       4.53469456      -1.06401164       0.00000000 NULL      -0.00128637       0.00396011       0.00385202
P        6.39349905       4.65847023       4.11209173       0.00000000 NULL      -0.00135469      -0.00158273       0.00257675
P        5.16907017       5.97971448       1.19875896       0.00000000 NULL       0.00090578       0.00098555      -0.00130779
P        2.41834505      -0.04419660      10.11283019       0.00000000 NULL      -0.00290258       0.00329010      -0.00102704
P        5.39158720       2.61483577       0.06585684       0.00000000 NULL      -0.00186271      -0.00185580      -0.00277316
P        4.28765241      -1.08738930      10.81672464       0.00000000 NULL       0.00360320       0.00094629       0.00076592
P        6.49453968       4.43957283       1.93581588       0.00000000 NULL       0.00375684      -0.00203837      -0.00772368
P        5.99061604       3.91010571      10.29314397       0.00000000 NULL      -0.00182907      -0.00049340      -0.00143660
P        4.91146451       2.20701426       9.19501034       0.00000000 NULL       0.00227796      -0.00211556      -0.00101433
P        1.05651663       0.23661843       4.73368167       0.00000000 NULL      -0.00035920      -0.00294806       0.00396737
P        2.68101787       0.37093675       6.27751019       0.00000000 NULL       0.00240329       0.00164064       0.00352349
P        5.11771271       4.40886087       6.73800096       0.00000000 NULL       0.00088648      -0.00029457      -0.00559460
P        3.64773285       3.04218018       7.52832507       0.00000000 NULL      -0.00120912       0.00410569       0.00372576
