56
Lattice="11.618010720494071 -1.9215992757518992e-13 8.848075602313196e-07 -2.116483245869285e-15 10.189594535922033 2.2407370395493206e-06 -5.809006187953064 -5.094799657934261 10.868234583494619" Properties=species:S:1:pos:R:3:initial_magmoms:R:1:castep_labels:S:1:forces:R:3 n_minim_iter=1 energy=-301.8109188404272 stress="-4.451305431492489e-05 -5.837880533582444e-12 -5.385890652130148e-12 -5.837880533582444e-12 -2.796768949529218e-05 3.3195794882800913e-13 -5.385890652130148e-12 3.3195794882800913e-13 -3.0067788608678653e-05" free_energy=-301.8109188404272 pbc="T T T"
P       -4.75634429      -2.22472340      11.21578736       0.00000000 NULL       0.00242724       0.00137410      -0.00100756
P       10.56534999       2.87007641      -0.34754844       0.00000000 NULL      -0.00242724       0.00137410       0.00100756
P       -1.05266161       2.87007387      11.21578877       0.00000000 NULL      -0.00242724       0.00137410      -0.00100757
P        6.86166731       7.96487368      -0.34754760       0.00000000 NULL       0.00242724       0.00137410       0.00100757
P        7.98985706       5.13953988       4.30975585       0.00000000 NULL       0.00199648       0.00389016       0.00173679
P       -2.18085136       0.04474212       6.55848407       0.00000000 NULL      -0.00199648       0.00389016      -0.00173679
P        9.43715953       0.04474261       4.30975484       0.00000000 NULL      -0.00199648       0.00389016       0.00173679
P       -3.62815383       5.13953939       6.55848508       0.00000000 NULL       0.00199648       0.00389016      -0.00173679
P        0.12223053       1.64587361       7.28126013       0.00000000 NULL       0.00199061      -0.00060411      -0.00321739
P        5.68677517       6.74067169       3.58698050       0.00000000 NULL      -0.00199061      -0.00060411       0.00321739
P        5.68677489      -3.44892366       7.28125943       0.00000000 NULL      -0.00199061      -0.00060411      -0.00321739
P        0.12223081       1.64587442       3.58697895       0.00000000 NULL       0.00199061      -0.00060411       0.00321739
P        3.05770117       2.84099223       7.72180666       0.00000000 NULL       0.00563130      -0.00374412      -0.00315441
P        2.75130453       7.93579050       3.14643449       0.00000000 NULL      -0.00563130      -0.00374412       0.00315441
P        2.75130418      -2.25380504       7.72180552       0.00000000 NULL      -0.00563130      -0.00374412      -0.00315441
P        3.05770152       2.84099324       3.14643339       0.00000000 NULL       0.00563130      -0.00374412       0.00315441
P        3.64080534       6.22252402       4.30599465       0.00000000 NULL       0.00271439       0.00148350      -0.00282079
P        2.16820036       1.12772626       6.56224574       0.00000000 NULL      -0.00271439       0.00148350       0.00282079
P        2.16820053       1.12772675       4.30599342       0.00000000 NULL      -0.00271439       0.00148350      -0.00282079
P        3.64080517       6.22252352       6.56224698       0.00000000 NULL       0.00271439       0.00148350       0.00282079
P        8.97859528       2.02708699       1.77259582       0.00000000 NULL       0.00463694       0.00028426      -0.00065187
P       -3.16958958      -3.06771189       9.09564273       0.00000000 NULL      -0.00463694       0.00028426       0.00065187
P        8.44842170       7.12188426       1.77259690       0.00000000 NULL      -0.00463693       0.00028426      -0.00065187
P       -2.63941600       2.02708538       9.09564389       0.00000000 NULL       0.00463694       0.00028426       0.00065187
P        4.10630681      -4.30261701      10.05901705       0.00000000 NULL       0.00068868      -0.00705178       0.00190892
P        1.70269889       0.79218229       0.80922096       0.00000000 NULL      -0.00068868      -0.00705178      -0.00190892
P        1.70269819       0.79218026      10.05901799       0.00000000 NULL      -0.00068868      -0.00705178       0.00190892
P        4.10630751       5.88697956       0.80922226       0.00000000 NULL       0.00068868      -0.00705178      -0.00190892
P       -1.87709288      -0.11410880       9.67214183       0.00000000 NULL      -0.00118766       0.00043530      -0.00098516
P        7.68609858       4.98069033       1.19609803       0.00000000 NULL       0.00118766       0.00043530       0.00098516
P       -3.93191279       4.98068847       9.67214279       0.00000000 NULL       0.00118766       0.00043530      -0.00098516
P        9.74091849      -0.11410694       1.19609706       0.00000000 NULL      -0.00118766       0.00043530       0.00098516
P        8.02407498       1.70709748       3.78290289       0.00000000 NULL      -0.00236304       0.00557297       0.00273723
P       -2.21506928       6.80189402       7.08533776       0.00000000 NULL       0.00236304       0.00557297      -0.00273723
P       -2.21506903       6.80189475       3.78290323       0.00000000 NULL       0.00236304       0.00557296       0.00273723
P        8.02407473       1.70709675       7.08533742       0.00000000 NULL      -0.00236304       0.00557297      -0.00273723
P        3.73376442       1.45271378       9.36025054       0.00000000 NULL       0.00502122       0.00140185      -0.00349339
P        2.07524128       6.54751278       1.50799000       0.00000000 NULL      -0.00502122       0.00140185       0.00349339
P        2.07524068      -3.64208349       9.36024930       0.00000000 NULL      -0.00502122       0.00140185      -0.00349339
P        3.73376502       1.45271551       1.50798901       0.00000000 NULL       0.00502122       0.00140185       0.00349339
P        4.85559366      -1.62765678       8.35852182       0.00000000 NULL       0.00015958      -0.00100307       0.00304622
P        0.95341204       3.46714177       2.50971737       0.00000000 NULL      -0.00015958      -0.00100307      -0.00304622
P        0.95341159       3.46714049       8.35852264       0.00000000 NULL      -0.00015958      -0.00100307       0.00304622
P        4.85559411       8.56193904       2.50971879       0.00000000 NULL       0.00015958      -0.00100307      -0.00304622
P        0.21331180      -0.07446119       8.69750784       0.00000000 NULL      -0.00013215      -0.00220136      -0.00005912
P        5.59569390       5.02033751       2.17073202       0.00000000 NULL       0.00013215      -0.00220136       0.00005911
P        5.59569341       5.02033608       8.69750938       0.00000000 NULL       0.00013215      -0.00220136      -0.00005912
P        0.21331229      -0.07445976       2.17073049       0.00000000 NULL      -0.00013215      -0.00220136       0.00005911
P       -2.18337376       3.40695848       4.34661794       0.00000000 NULL       0.00370689      -0.00180894       0.00177312
P        7.99237946      -1.68783926       6.52162122       0.00000000 NULL      -0.00370689      -0.00180894      -0.00177312
P        7.99237962       8.50175575       4.34661984       0.00000000 NULL      -0.00370689      -0.00180894       0.00177312
P       -2.18337392       3.40695801       6.52162156       0.00000000 NULL       0.00370689      -0.00180894      -0.00177312
P       -4.34589011       2.56261156      10.43925506       0.00000000 NULL       0.00413387       0.00197124       0.00383007
P       10.15489581       7.65741103       0.42898597       0.00000000 NULL      -0.00413387       0.00197124      -0.00383007
P       -1.46311568      -2.53218571      10.43925416       0.00000000 NULL      -0.00413387       0.00197124       0.00383007
P        7.27212138       2.56261376       0.42898463       0.00000000 NULL       0.00413387       0.00197124      -0.00383007
