20
Lattice="3.3419478624289534 0.08824853483821199 0.0 -0.23614412619542463 8.942713431002293 0.0 0.0 0.0 14.794828912353061" Properties=species:S:1:pos:R:3:initial_magmoms:R:1:castep_labels:S:1:forces:R:3 n_minim_iter=1 energy=-108.52654902679362 stress="3.1980310040479295e-05 -1.940556139617635e-06 -1.2903017486114486e-15 -1.940556139617635e-06 0.00010541740177449991 4.8821197508778125e-14 -1.2903017486114486e-15 4.8821197508778125e-14 -0.000259730679271673" free_energy=-108.52654902679362 pbc="T T T"
P        2.29737688       8.00827636       8.78932633       0.00000000 NULL      -0.00006045       0.00228924       0.00166672
P        0.80970063       1.02271925       8.78932633       0.00000000 NULL       0.00006045      -0.00228924       0.00166672
P        0.80970063       1.02271925       6.00550258       0.00000000 NULL       0.00006045      -0.00228924      -0.00166672
P        2.29737688       8.00827636       6.00550258       0.00000000 NULL      -0.00006045       0.00228924      -0.00166672
P        0.66852823       6.36887945       8.66763081       0.00000000 NULL      -0.00001707       0.00064656      -0.00093848
P        2.43854929       2.66211616       8.66763081       0.00000000 NULL       0.00001707      -0.00064656      -0.00093848
P        2.43854929       2.66211616       6.12719810       0.00000000 NULL       0.00001707      -0.00064656       0.00093848
P        0.66852823       6.36887945       6.12719810       0.00000000 NULL      -0.00001707       0.00064656       0.00093848
P        2.36875739       5.30511629       1.13556926       0.00000000 NULL       0.00011406      -0.00431926       0.00244736
P        0.73832013       3.72587931       1.13556926       0.00000000 NULL      -0.00011406       0.00431926       0.00244736
P        0.73832013       3.72587931      13.65925965       0.00000000 NULL      -0.00011406       0.00431926      -0.00244736
P        2.36875739       5.30511629      13.65925965       0.00000000 NULL       0.00011406      -0.00431926      -0.00244736
P        0.67279249       6.20739295       3.81372219       0.00000000 NULL      -0.00000989       0.00037466      -0.00366007
P        2.43428502       2.82360265       3.81372219       0.00000000 NULL       0.00000989      -0.00037466      -0.00366007
P        2.43428502       2.82360265      10.98110672       0.00000000 NULL       0.00000989      -0.00037466       0.00366007
P        0.67279249       6.20739295      10.98110672       0.00000000 NULL      -0.00000989       0.00037466       0.00366007
P        0.80272077       1.28704454       3.68645366       0.00000000 NULL       0.00000311      -0.00011785      -0.00095550
P        2.30435674       7.74395107       3.68645366       0.00000000 NULL      -0.00000311       0.00011785      -0.00095550
P        2.30435674       7.74395107      11.10837525       0.00000000 NULL      -0.00000311       0.00011785       0.00095550
P        0.80272077       1.28704454      11.10837525       0.00000000 NULL       0.00000311      -0.00011785       0.00095550
