15
Lattice="5.067517134959998 -0.4592050903154372 1.4192605388242903 -1.6528550711420849 7.5675174105148155 -0.11219202110062328 1.3791092448347604 -1.0102570949915237 8.248609760674153" Properties=species:S:1:pos:R:3:initial_magmoms:R:1:castep_labels:S:1:forces:R:3 n_minim_iter=6 energy=-80.44835704428753 stress="9.921840469805242e-05 -7.976731636713737e-06 -5.2243293510989494e-05 -7.976731636713737e-06 -3.0946213994950684e-05 5.2239518071007324e-05 -5.2243293510989494e-05 5.2239518071007324e-05 -5.871514699836076e-05" free_energy=-80.44835704428753 pbc="T T T"
P        4.05916582       5.48706594       6.36709185       0.00000000 NULL      -0.00157345      -0.00175344      -0.00550727
P        2.05722440       4.63763916       5.78026172       0.00000000 NULL       0.00293969      -0.00080085       0.00271024
P        1.86716277       4.86190104       3.53751992       0.00000000 NULL       0.00083409      -0.00302398      -0.00263161
P        5.07204407      -1.11510649       3.55732175       0.00000000 NULL      -0.00619031       0.00178335       0.00473862
P        1.71326742      -1.10230629       8.23605201       0.00000000 NULL      -0.00279753       0.00459828      -0.00017607
P        1.51841309       7.65838521       6.09616363       0.00000000 NULL       0.00398071       0.00004638       0.00283435
P        2.56234486       1.42689961       3.03660337       0.00000000 NULL      -0.00235198       0.00235158      -0.00282582
P        4.83135995       2.87829033       7.62759826       0.00000000 NULL      -0.00013496       0.00273474       0.00054989
P        1.09672666       2.50204386       7.90470633       0.00000000 NULL       0.00280360      -0.00233927      -0.00001814
P        3.49948508       3.42939350       3.10276995       0.00000000 NULL       0.00641568       0.00409429      -0.00164889
P        5.21165959       0.03206845       9.25774794       0.00000000 NULL      -0.00310815       0.00057653      -0.00249598
P        2.82199403       2.41189216       6.35532355       0.00000000 NULL      -0.00256206       0.00253824       0.00088644
P        3.78391209       4.61548042       8.43624093       0.00000000 NULL       0.00326283      -0.00581937       0.00627012
P        4.16491209       0.73581222       4.34512339       0.00000000 NULL      -0.00020110      -0.00282626      -0.00114888
P        5.26420049       0.00376217       6.91406451       0.00000000 NULL      -0.00131707      -0.00216022      -0.00153699
