20
Lattice="5.136697402921321 -1.578511961883862 -0.5665259547484617 -1.771287433103744 5.0734506060784454 -0.5665259547484469 -2.5531609971319185 -2.651427645889606 20.56353688847486" Properties=species:S:1:pos:R:3:initial_magmoms:R:1:castep_labels:S:1:forces:R:3 n_minim_iter=16 energy=-105.71493754505416 stress="-1.9877836951084734e-05 -2.715636866333288e-05 -2.978997780707164e-05 -2.715636866333288e-05 -2.192950962561728e-05 -3.0936545281408815e-05 -2.978997780707164e-05 -3.0936545281408815e-05 -4.300010696700247e-05" free_energy=-105.71493754505416 pbc="T T T"
P        1.32801087       0.29342009       3.90198419       0.00000000 NULL       0.00010740      -0.00116633      -0.00463413
P       -1.03349941       0.01242661      14.18375263       0.00000000 NULL      -0.00116955       0.00006330      -0.00463413
P        1.40424604       0.11344533       9.66612136       0.00000000 NULL       0.00732785       0.00009754       0.00678181
P       -1.21622363       0.08181375      19.94788981       0.00000000 NULL      -0.00017914       0.00732631       0.00678181
P        0.70183589       1.39353377      13.98546835       0.00000000 NULL       0.00173106       0.00330930      -0.00496870
P        2.64262811       2.07965275       3.70369991       0.00000000 NULL       0.00324160       0.00185475      -0.00496870
P        0.81514274       1.27654621       5.94260390       0.00000000 NULL       0.00046785      -0.00754941       0.00203461
P       -0.03171418      -0.46296486      16.22437235       0.00000000 NULL      -0.00756169       0.00018254       0.00203461
P        1.11291792       0.61165901      -0.02053493       0.00000000 NULL       0.00052457      -0.00206939       0.00420011
P       -0.70736795      -0.19050013      10.26123351       0.00000000 NULL      -0.00208772       0.00044608       0.00420011
P       -1.83853807       0.92490862      16.09554670       0.00000000 NULL       0.00352377      -0.00242423       0.00243713
P        2.27023121      -0.47660036       5.81377826       0.00000000 NULL      -0.00255552       0.00342975       0.00243713
P        2.83600625       1.80131792       0.75049540       0.00000000 NULL      -0.00060310      -0.00184626      -0.00893110
P        0.41639978       1.57626748      11.03226384       0.00000000 NULL      -0.00182218      -0.00067237      -0.00893110
P       -3.61954218       2.70632898      16.67517422       0.00000000 NULL      -0.00530792      -0.00377470      -0.00240445
P        4.11761142      -2.18908992       6.39340577       0.00000000 NULL      -0.00357165      -0.00544662      -0.00240445
P        1.88529196      -2.21586260      16.18469634       0.00000000 NULL       0.00164464       0.00530713       0.00044668
P       -1.00886900       3.12601754       5.90292789       0.00000000 NULL       0.00524127       0.00184380       0.00044668
P       -0.16709429       1.47684905       8.88867146       0.00000000 NULL       0.00133470      -0.00023601       0.00503803
P        0.20552346      -1.43694079      19.17043991       0.00000000 NULL      -0.00028622       0.00132484       0.00503803
