6
Lattice="3.444867535001837 -8.891528242530571e-16 3.69757848678129e-43 -1.7224337675009174 2.9833427979838705 1.7722367845282728e-42 -6.120769930415296e-45 -2.0703279879273328e-42 8.982516304604374" Properties=species:S:1:pos:R:3:initial_magmoms:R:1:castep_labels:S:1:forces:R:3 n_minim_iter=8 energy=-33.552628539846935 stress="-0.0012018058831065944 5.0071938270714505e-12 -4.116029485549287e-12 5.0071938270714505e-12 -0.0012018058737696103 4.956623911012826e-12 -4.116029485549287e-12 4.956623911012826e-12 -0.001369190866957111" free_energy=-33.552628539846935 pbc="T T T"
P        0.57190879       2.98430904       0.56410850       0.00000000 NULL       0.00664863      -0.00104655      -0.00411006
P        0.57609928       0.99590074       6.55245270       0.00000000 NULL      -0.00423065      -0.00523460      -0.00411006
P       -1.14800806       1.98647581       3.55828060       0.00000000 NULL      -0.00241797       0.00628115      -0.00411006
P        0.57428304       0.99188197       2.39686033       0.00000000 NULL       0.00119800       0.00829022       0.00411006
P        2.29428724       1.99005812       8.38520453       0.00000000 NULL       0.00658055      -0.00518261       0.00411006
P        2.29873104       0.00140271       5.39103243       0.00000000 NULL      -0.00777854      -0.00310762       0.00411006
