10
Lattice="5.314568103256468 -0.07072308447340889 -0.9030266488606594 1.0427645894289803 5.211744227210461 -0.9030266488606598 0.6879228649594185 0.5563065776623233 5.864450783105239" Properties=species:S:1:pos:R:3:initial_magmoms:R:1:castep_labels:S:1:forces:R:3 n_minim_iter=13 energy=-54.6788671789113 stress="3.5598533752916384e-05 8.782418604506975e-05 5.441818656415824e-05 8.782418604506975e-05 -1.9826415553112846e-06 4.40066718394121e-05 5.441818656415824e-05 4.40066718394121e-05 0.00010815326810435194" free_energy=-54.6788671789113 pbc="T T T"
P        5.37277549       3.17402070       1.94885532       0.00000000 NULL       0.00082198      -0.00416209      -0.00216504
P        0.70524699       1.74112903      -0.08034343       0.00000000 NULL      -0.00389800       0.00167459      -0.00216504
P        4.52557418       4.87920318       4.48003635       0.00000000 NULL      -0.00022082      -0.00095678       0.00183933
P        2.19543799       0.55591676       2.45083761       0.00000000 NULL      -0.00098180      -0.00001575       0.00183933
P        0.15691781       1.34754193       4.11171976       0.00000000 NULL       0.00045209      -0.00215545       0.00196522
P        4.18525398       2.16386735       0.27646772       0.00000000 NULL      -0.00201316       0.00089305       0.00196522
P        3.33716738       3.87136921       2.80841868       0.00000000 NULL       0.00174174      -0.00129817       0.00204855
P        0.96126877      -0.39532789       0.77921994       0.00000000 NULL      -0.00090503       0.00197480       0.00204855
P        5.17798264       5.40439968       0.46280332       0.00000000 NULL       0.00534463      -0.00149289      -0.00368806
P        3.53343178       1.64031040       4.29805536       0.00000000 NULL      -0.00034164       0.00553869      -0.00368806
