30
Lattice="5.422606247580576 0.4980818235242209 1.9715293716286406e-07 1.671023794185071 11.75377611679666 4.999396976901864e-08 0.8355115227110267 5.876888067927694 10.273126745879452" Properties=species:S:1:pos:R:3:initial_magmoms:R:1:castep_labels:S:1:forces:R:3 n_minim_iter=6 energy=-157.4386024791047 stress="-9.172151704040338e-05 -2.724042258847438e-05 -1.9621814688993034e-11 -2.724042258847438e-05 -7.593449181254731e-05 -8.995273239709794e-12 -1.9621814688993034e-11 -8.995273239709794e-12 0.00017735238299187796" free_energy=-157.4386024791047 pbc="T T T"
P        5.15900396      14.14322336       5.78549510       0.00000000 NULL       0.00053646       0.00719797       0.00061380
P        1.61218898       8.01729439       4.48763183       0.00000000 NULL       0.00053646       0.00719797      -0.00061380
P        3.05737501       3.52498677       2.33444612       0.00000000 NULL      -0.00553666      -0.00064924      -0.00219799
P        6.60418983       9.65091575       7.93868093       0.00000000 NULL      -0.00553666      -0.00064924       0.00219799
P        4.85534695       8.76095681       4.60539845       0.00000000 NULL      -0.00372390       0.00090648      -0.00418683
P        2.97955568      14.38880396       5.66772852       0.00000000 NULL      -0.00372390       0.00090648       0.00418683
P        2.46243955      13.47562536       7.64853147       0.00000000 NULL       0.00517864      -0.00072135       0.00256431
P        4.33823096       7.84777821       2.62459546       0.00000000 NULL       0.00517864      -0.00072135      -0.00256431
P        3.58993560       5.51254599       3.21222521       0.00000000 NULL       0.00298941       0.00206597       0.00373295
P        7.13675048      11.63847497       7.06090188       0.00000000 NULL       0.00298941       0.00206597      -0.00373295
P        6.26806135      14.79485327       8.89420016       0.00000000 NULL       0.00576095      -0.00086617       0.00010979
P        2.72124660       8.66892429       1.37892685       0.00000000 NULL       0.00576095      -0.00086617      -0.00010979
P        1.65066369      10.25370650       2.47444382       0.00000000 NULL       0.00269267      -0.00416171       0.00284763
P        3.52645472       4.62585936       7.79868306       0.00000000 NULL       0.00269267      -0.00416171      -0.00284763
P        5.01241743       7.08559461       6.10657707       0.00000000 NULL       0.00192491       0.00405190       0.00032870
P        3.13662627      12.71344175       4.16654992       0.00000000 NULL       0.00192490       0.00405190      -0.00032870
P        4.39751991      12.88313898       8.76731942       0.00000000 NULL      -0.00153300       0.00254138      -0.00134838
P        0.85070515       6.75721001       1.50580746       0.00000000 NULL      -0.00153300       0.00254138       0.00134839
P        4.42052693       9.83854333       7.77519596       0.00000000 NULL      -0.00600950      -0.00097875       0.00468262
P        6.29631835       4.21069617       2.49793113       0.00000000 NULL      -0.00600950      -0.00097875      -0.00468262
P        0.02293447       4.77073518       0.76750919       0.00000000 NULL      -0.00079394      -0.00260872       0.00369922
P        3.56974917      10.89666416       9.50561763       0.00000000 NULL      -0.00079394      -0.00260872      -0.00369922
P        2.05100171      10.92065956       4.75720880       0.00000000 NULL       0.00209086      -0.00208493       0.00706965
P        3.92679291       5.29281241       5.51591811       0.00000000 NULL       0.00209086      -0.00208493      -0.00706965
P        3.34653845       7.84157745       7.42501698       0.00000000 NULL      -0.00281212      -0.00225434      -0.00039625
P        6.89335364      13.96750641       2.84811008       0.00000000 NULL      -0.00281212      -0.00225434       0.00039625
P        5.00910879      12.10400448       6.73217618       0.00000000 NULL      -0.00147740      -0.00259005       0.00301713
P        1.46229388       5.97807551       3.54095075       0.00000000 NULL      -0.00147740      -0.00259005      -0.00301713
P        3.45559542       6.41350054       9.05513049       0.00000000 NULL       0.00071263       0.00015156      -0.00046921
P        1.57980448      12.04134768       1.21799638       0.00000000 NULL       0.00071263       0.00015156       0.00046921
