8
Lattice="3.406023273140856 -1.8400509032921215e-17 -0.31199081371016424 -1.2552401960689168e-17 4.905958360350543 1.141102331364156e-16 -2.7456344805527966 -1.3057473226658652e-16 7.539001430796496" Properties=species:S:1:pos:R:3:initial_magmoms:R:1:castep_labels:S:1:forces:R:3 n_minim_iter=15 energy=-44.70171766707655 stress="-3.723499434125763e-05 -3.0191765582618986e-12 -0.0001842845971471508 -3.0191765582618986e-12 -7.769890086951995e-06 -2.7388984296642222e-11 -0.0001842845971471508 -2.7388984296642222e-11 4.8630784062031636e-05" free_energy=-44.70171766707655 pbc="T T T"
P       -0.54073821       2.45276524       5.53771843       0.00000000 NULL       0.00027858       0.00045757      -0.00004975
P        2.53509067       2.45319312       1.61222231       0.00000000 NULL       0.00027858      -0.00045757      -0.00004975
P       -0.84339989       4.90590806       2.23067942       0.00000000 NULL       0.00049604       0.00095208      -0.00068470
P       -0.51320549       0.00005030       5.84418473       0.00000000 NULL       0.00049604      -0.00095208      -0.00068470
P        0.69478713       2.45300756       0.26750326       0.00000000 NULL      -0.00090228       0.00018659       0.00155274
P        1.02498153       2.45295080       3.88100857       0.00000000 NULL      -0.00090228      -0.00018659       0.00155274
P        0.99706464       4.90659413       3.57527530       0.00000000 NULL       0.00012767      -0.00152698      -0.00081829
P       -2.07876424      -0.00063577       7.50077142       0.00000000 NULL       0.00012767       0.00152698      -0.00081829
