32
Lattice="8.586495850527612 1.6112439756066042 1.0812721371629028 6.997507417483009 10.890826017389623 -0.006000352586553435 6.997507417483019 4.121854728730243 10.080696451164759" Properties=species:S:1:pos:R:3:initial_magmoms:R:1:castep_labels:S:1:forces:R:3 n_minim_iter=4 energy=-172.0726097512072 stress="-9.991144218426467e-06 -2.6656183581921807e-05 -1.7888404661085425e-05 -2.6656183581921807e-05 -6.030532168537399e-05 3.9977641574421045e-05 -1.7888404661085425e-05 3.9977641574421045e-05 -9.304934941839603e-05" free_energy=-172.0726097512072 pbc="T T T"
P       13.95584806      11.70153563       4.45796948       0.00000000 NULL      -0.00655342      -0.00274496      -0.00462428
P       13.95584806       8.56007664       9.13917479       0.00000000 NULL      -0.00655342      -0.00531962      -0.00078769
P        6.73593873       8.42690692       3.91090058       0.00000000 NULL       0.00162879      -0.00534260       0.00347122
P        6.73593873       6.81279700       6.31614603       0.00000000 NULL       0.00162879       0.00118754      -0.00625959
P       12.14452213       5.43263396       9.00172019       0.00000000 NULL      -0.00095405       0.00307971       0.00079487
P       12.14452213      10.38909562       1.61591166       0.00000000 NULL      -0.00095405       0.00190273       0.00254874
P        6.10750818       4.78361012       5.51202622       0.00000000 NULL      -0.00133933       0.00282233      -0.00396262
P        6.10750818       6.91374895       2.33782683       0.00000000 NULL      -0.00133933      -0.00259742       0.00411356
P        9.37891157       7.26981405       3.06233296       0.00000000 NULL       0.00680632      -0.00265609      -0.00247770
P        9.37891157       5.58901318       5.56695708       0.00000000 NULL       0.00680632      -0.00329948      -0.00151896
P       13.97373128      14.78789112       7.39833401       0.00000000 NULL      -0.00305114      -0.00311346      -0.00043402
P       13.97373128      12.45077167      10.88096295       0.00000000 NULL      -0.00305114      -0.00158158      -0.00271672
P       11.68645599      10.96775106       8.71228930       0.00000000 NULL      -0.00033299      -0.00113459       0.00087672
P       11.68645599      12.21895470       6.84782405       0.00000000 NULL      -0.00033299       0.00038133      -0.00138221
P       11.29051622       4.51546990       5.97398567       0.00000000 NULL       0.00404879       0.00538056      -0.00637501
P       11.29051622       7.23962860       1.91461510       0.00000000 NULL       0.00404879      -0.00386034       0.00739520
P        8.32180489       9.10837139       2.43953664       0.00000000 NULL      -0.00146177      -0.00088087       0.00136110
P        8.32180489       5.70945133       7.50439431       0.00000000 NULL      -0.00146177       0.00092573      -0.00133099
P        8.03672637       4.38109358       4.29669288       0.00000000 NULL       0.00233035       0.00003953       0.00277232
P        8.03672637       5.63652787       2.42592338       0.00000000 NULL       0.00233035       0.00258049      -0.00101408
P       10.43278630      11.78550615       2.00277167       0.00000000 NULL      -0.00219729       0.00127963       0.00157230
P       10.43278630       6.31984802      10.14735289       0.00000000 NULL      -0.00219729       0.00193996       0.00058830
P       11.09530293       8.63430171       0.19456395       0.00000000 NULL      -0.00021368       0.00735663      -0.00184788
P       11.09530293       3.45227985       7.91648818       0.00000000 NULL      -0.00021368       0.00107798       0.00750817
P       14.05270708       6.43557493       9.88446399       0.00000000 NULL       0.00091911      -0.00602964       0.00436490
P       14.05270708      11.58608572       2.20949559       0.00000000 NULL       0.00091911       0.00175419      -0.00723407
P       11.40952963      12.86508684       3.68032961       0.00000000 NULL      -0.00044672       0.00067002       0.00113897
P       11.40952963       8.28140786      10.51064076       0.00000000 NULL      -0.00044672       0.00130794       0.00018839
P       12.19733576       6.35064127       6.98105341       0.00000000 NULL       0.00011380       0.00244102      -0.00048820
P       12.19733576       8.86706751       3.23123272       0.00000000 NULL       0.00011380       0.00047331       0.00244395
P       11.89121952      11.00489057       4.94694280       0.00000000 NULL       0.00070322       0.00084542       0.00085822
P       11.89121952       8.74856019       8.30918492       0.00000000 NULL       0.00070322       0.00111460       0.00045710
