26
Lattice="7.112278708419875 -0.4648605187876666 -0.4179035863362929 2.9905448009072164 6.46971757667497 -0.41790358633629177 1.1748839481438007 0.6983206389477639 10.81673427069864" Properties=species:S:1:pos:R:3:initial_magmoms:R:1:castep_labels:S:1:forces:R:3 n_minim_iter=1 energy=-140.3467698626898 stress="1.402063359337363e-05 1.2686279527082777e-06 -9.777888405717119e-06 1.2686279527082777e-06 1.26402889476058e-05 -5.811733899006581e-06 -9.777888405717119e-06 -5.811733899006581e-06 -6.1239883102386756e-06" free_energy=-140.3467698626898 pbc="T T T"
P       10.63277819       5.78236940       2.67193699       0.00000000 NULL      -0.00559150       0.00212313       0.00349271
P        5.69667628       3.92343609       8.49820771       0.00000000 NULL      -0.00080713      -0.00592631       0.00349271
P        8.71448192       6.01923121       1.65108196       0.00000000 NULL       0.00576093      -0.00503597      -0.00631393
P        4.98800560       2.12517306       7.47735268       0.00000000 NULL      -0.00167061       0.00746715      -0.00631393
P        4.55562706       5.74240537       7.82179108       0.00000000 NULL      -0.00333941       0.00010328      -0.00371420
P        4.57302173       4.37564250       2.41342394       0.00000000 NULL      -0.00150514      -0.00298277      -0.00371420
P        7.30244180       4.34209849       7.04825491       0.00000000 NULL       0.00057507       0.00330852       0.00003771
P        1.66509536       0.98797372       2.05779137       0.00000000 NULL       0.00318109      -0.00107596       0.00003771
P        8.56361395       2.51579917       7.19505687       0.00000000 NULL      -0.00701356      -0.00256012      -0.00355542
P        0.66353981       2.96858243       2.20459333       0.00000000 NULL      -0.00560057      -0.00493739      -0.00355542
P        8.99061952       2.10186620       9.37961195       0.00000000 NULL       0.00254595       0.00197667      -0.00148073
P        7.61627339       3.07662645       3.97124481       0.00000000 NULL       0.00295303       0.00129178      -0.00148073
P        5.72780024       1.69304400       1.25143653       0.00000000 NULL      -0.00120024      -0.00670066       0.00344151
P        6.87277093       1.10419461       6.65980367       0.00000000 NULL      -0.00645957       0.00214786       0.00344151
P        3.02999976       0.56150606       9.33871866       0.00000000 NULL       0.00201563       0.00256667       0.00687943
P        6.40521455       5.04654136       3.51244794       0.00000000 NULL       0.00321786       0.00054398       0.00687943
P        5.77621491       5.89618366       5.61387702       0.00000000 NULL      -0.00225700       0.00390474       0.00106510
P        5.29141042       5.37434172       0.20550989       0.00000000 NULL       0.00235140      -0.00384863       0.00106510
P        2.60298748       1.56604338       5.22008025       0.00000000 NULL       0.00438095       0.00284430      -0.00447922
P        7.08355494       4.19138696      -0.60619047       0.00000000 NULL       0.00459210       0.00248905      -0.00447922
P        5.17934487      -0.58300668       8.66595661       0.00000000 NULL       0.00010308       0.00525590       0.00180097
P        6.42700277       7.48151961       2.83968589       0.00000000 NULL       0.00466615      -0.00242120       0.00180097
P        4.39867107       2.95904613       5.52255029       0.00000000 NULL       0.00043824      -0.00018736       0.00673660
P       10.34021924       5.80136915      10.51301384       0.00000000 NULL       0.00004485       0.00047450       0.00673659
P        6.06392605       1.67665983       4.63216276       0.00000000 NULL      -0.00105417       0.00020077      -0.00391051
P        7.01900994       1.40728396      10.04052989       0.00000000 NULL      -0.00032742      -0.00102194      -0.00391051
