39
Lattice="8.07812829096583 4.476246021169052e-45 -5.5521321970244826e-42 -7.01509857974085e-44 12.017045404151414 2.4094910911257368e-14 2.560292852126548e-42 -6.008522702075726 10.407066598426143" Properties=species:S:1:pos:R:3:initial_magmoms:R:1:castep_labels:S:1:forces:R:3 n_minim_iter=19 energy=-204.79877616314045 stress="-2.0253310756073686e-05 8.122334720155254e-13 3.5899907618724346e-12 8.122334720155254e-13 -5.102218427356042e-05 -5.124508725722639e-13 3.5899907618724346e-12 -5.124508725722639e-13 -5.1022196193336954e-05" free_energy=-204.79877616314045 pbc="T T T"
P        1.19226527       1.35107005       9.00622169       0.00000000 NULL      -0.00148159       0.00281681      -0.00299484
P        3.88497470       1.11555905       4.73389477       0.00000000 NULL      -0.00148159      -0.00400201      -0.00094201
P        6.57768413      -2.46662909       7.07401673       0.00000000 NULL      -0.00148159       0.00118520       0.00393685
P        5.87709220       0.57133257       3.97703022       0.00000000 NULL      -0.00058035      -0.00212087       0.00160848
P        0.49167334      -2.84997978       7.92376297       0.00000000 NULL      -0.00058035       0.00245342       0.00103249
P        3.18438277       2.27864722       8.91334000       0.00000000 NULL      -0.00058035      -0.00033254      -0.00264097
P        5.34380633       3.52361514       2.55576694       0.00000000 NULL       0.00376126      -0.00107942       0.00095347
P        8.03651576       6.46007423       6.07764290       0.00000000 NULL       0.00376126       0.00136544       0.00045807
P        2.65109690       8.04187874       1.77365675       0.00000000 NULL       0.00376126      -0.00028602      -0.00141154
P        0.12583710       3.16119938       8.26283020       0.00000000 NULL       0.00635924      -0.00095900      -0.00543066
P        2.81854653      -0.43330152       3.53797253       0.00000000 NULL       0.00635924      -0.00422359       0.00354585
P        5.51125596      -2.72789785       9.01333046       0.00000000 NULL       0.00635924       0.00518259       0.00188481
P        1.51014301       8.04195978       6.32191779       0.00000000 NULL      -0.00785684      -0.00446542       0.00278965
P        4.20285244       7.46248422       0.28156624       0.00000000 NULL      -0.00785684       0.00464862       0.00247234
P        6.89556188       2.52112411       3.80358257       0.00000000 NULL      -0.00785684      -0.00018320      -0.00526199
P        7.63526498      -5.85357939       8.76987297       0.00000000 NULL       0.00527585       0.00130996       0.00089608
P        2.24984612       4.51319977      11.09147857       0.00000000 NULL       0.00527585       0.00012105      -0.00158249
P        4.94255555       1.34037962       0.95278166       0.00000000 NULL       0.00527585      -0.00143100       0.00068642
P        5.32495999       9.49821590       0.15038622       0.00000000 NULL       0.00552006      -0.00208287      -0.00687793
P        8.01766942       1.38965304       2.10617723       0.00000000 NULL       0.00552006      -0.00491503       0.00524278
P        2.63225056       7.13769917       8.15050315       0.00000000 NULL       0.00552006       0.00699790       0.00163515
P        5.51493085      -5.01288959       9.19274669       0.00000000 NULL      -0.00474460      -0.00110116       0.00097462
P        0.12951199       4.45907426      10.15198298       0.00000000 NULL      -0.00474460       0.00139462       0.00046632
P        2.82222142       0.55381533       1.46940352       0.00000000 NULL      -0.00474460      -0.00029346      -0.00144094
P        6.27520364      -0.11597840       1.90300269       0.00000000 NULL       0.00229906       0.00297773      -0.00698702
P        0.88978478      -4.30248483       9.55600550       0.00000000 NULL       0.00229906      -0.00753981       0.00091472
P        3.58249421       4.41846323       9.35512501       0.00000000 NULL       0.00229906       0.00456207       0.00607230
P        1.69478199       0.03630712       7.25623002       0.00000000 NULL      -0.00152504      -0.00328841      -0.00565676
P        4.38749142       0.25740328       6.74750870       0.00000000 NULL      -0.00152504      -0.00325469       0.00567622
P        7.08020085      -0.29371039       6.81039447       0.00000000 NULL      -0.00152504       0.00654310      -0.00001947
P        4.84111358       2.36744826       7.28851241       0.00000000 NULL       0.00320608       0.00080003       0.00315186
P        7.53382301      -0.88020992       4.71254005       0.00000000 NULL       0.00320608       0.00232957      -0.00226878
P        2.14840415      -1.48723833       8.81308073       0.00000000 NULL       0.00320608      -0.00312960      -0.00088308
P        6.30500668       2.23305625       8.93636037       0.00000000 NULL      -0.00566673       0.00109319       0.00398849
P        0.91958782       0.61406427       4.00500298       0.00000000 NULL      -0.00566673       0.00290754      -0.00294097
P        3.61229725      -2.84712051       7.87276985       0.00000000 NULL      -0.00566673      -0.00400073      -0.00104751
P        6.65419710       6.77490313       4.64852618       0.00000000 NULL      -0.00456640       0.00256788      -0.00347388
P        1.26877824       6.64681290       2.21556530       0.00000000 NULL      -0.00456640      -0.00429241      -0.00048691
P        3.96148767       4.60385209       3.54297512       0.00000000 NULL      -0.00456640       0.00172453       0.00396079
