24
Lattice="5.266994022171803 0.0 0.0 0.0 8.54423226160473 0.0 0.0 0.0 17.461034449078525" Properties=species:S:1:pos:R:3:initial_magmoms:R:1:castep_labels:S:1:forces:R:3 n_minim_iter=12 energy=-123.75481402155451 stress="2.1050791826044694e-05 5.85672638827666e-12 -3.628536834355468e-12 5.85672638827666e-12 6.125283398131802e-05 3.5049627520699073e-13 -3.628536834355468e-12 3.5049627520699073e-13 5.5999464555126664e-05" free_energy=-123.75481402155451 pbc="T T T"
P        3.33588892       6.57602079       3.00777847       0.00000000 NULL      -0.00373917       0.00289855      -0.00014332
P        0.70239191       6.24032760      14.45325597       0.00000000 NULL      -0.00373917      -0.00289855       0.00014332
P        4.56460211       1.96821147      11.73829570       0.00000000 NULL       0.00373917      -0.00289855      -0.00014332
P        1.93110510       2.30390466       5.72273875       0.00000000 NULL       0.00373917       0.00289855       0.00014332
P        3.02620469       7.32861042       9.37418861       0.00000000 NULL       0.00281436       0.00199245      -0.00525471
P        0.39270768       5.48773797       8.08684584       0.00000000 NULL       0.00281436      -0.00199245       0.00525471
P        4.87428635       1.21562184       0.64367139       0.00000000 NULL      -0.00281436      -0.00199245      -0.00525471
P        2.24078933       3.05649429      16.81736306       0.00000000 NULL      -0.00281436       0.00199245       0.00525471
P        4.38796770       6.04934984      16.02735997       0.00000000 NULL       0.00228712       0.00290883      -0.00664064
P        1.75447068       6.76699856       1.43367448       0.00000000 NULL       0.00228712      -0.00290883       0.00664064
P        3.51252334       2.49488243       7.29684275       0.00000000 NULL      -0.00228712      -0.00290883      -0.00664064
P        0.87902633       1.77723371      10.16419170       0.00000000 NULL      -0.00228712       0.00290883       0.00664064
P        1.54072085       7.86223316       3.34029360       0.00000000 NULL       0.00406714      -0.00213365       0.00047667
P        4.17421786       4.95411523      14.12074085       0.00000000 NULL       0.00406714       0.00213365      -0.00047667
P        1.09277616       0.68199910      12.07081083       0.00000000 NULL      -0.00406714       0.00213365       0.00047667
P        3.72627317       3.59011703       5.39022362       0.00000000 NULL      -0.00406714      -0.00213365      -0.00047667
P        3.95821819       1.40800551       5.38273789       0.00000000 NULL       0.00155839       0.00401438       0.00435239
P        1.32472118       2.86411062      12.07829656       0.00000000 NULL       0.00155839      -0.00401438      -0.00435239
P        3.94227284       7.13622675      14.11325512       0.00000000 NULL      -0.00155839      -0.00401438       0.00435239
P        1.30877583       5.68012164       3.34777933       0.00000000 NULL      -0.00155839       0.00401438      -0.00435239
P        4.66764221       7.83331620       0.86814079       0.00000000 NULL      -0.00017543      -0.00102744      -0.00368975
P        2.03414520       4.98303219      16.59289366       0.00000000 NULL      -0.00017543       0.00102744       0.00368975
P        3.23284882       0.71091606       9.59865802       0.00000000 NULL       0.00017543       0.00102744      -0.00368975
P        0.59935181       3.56120007       7.86237643       0.00000000 NULL       0.00017543      -0.00102744       0.00368975
