14
Lattice="4.939428545386789 -0.07662445265568486 -0.6945392322062528 -2.292527966594193 6.249911446120279 1.2763993675640157 -1.4733873111231626 -1.926844989357709 8.763865474045785" Properties=species:S:1:pos:R:3:initial_magmoms:R:1:castep_labels:S:1:forces:R:3 n_minim_iter=5 energy=-75.7336972414846 stress="7.468747150820582e-05 6.307209169419775e-05 -1.1963048692372143e-05 6.307209169419775e-05 6.079653233006346e-06 -2.725623926876266e-05 -1.1963048692372143e-05 -2.725623926876266e-05 -1.984550510654384e-05" free_energy=-75.7336972414846 pbc="T T T"
P        1.45877736      -0.65313298       4.77655086       0.00000000 NULL      -0.00127807      -0.00490869      -0.00040020
P       -1.57846679       0.90535815       7.86324394       0.00000000 NULL       0.00259660      -0.00133332       0.00053789
P       -1.98841770       2.38286623       6.20693229       0.00000000 NULL      -0.00491680      -0.00332704      -0.00334925
P        0.56760976       1.24384593       7.44273690       0.00000000 NULL       0.00052063       0.00295299       0.00273648
P       -0.43779980       3.74245703       1.11810867       0.00000000 NULL      -0.00357986      -0.00767954       0.00011240
P        0.83676042       0.76374777       2.15313757       0.00000000 NULL      -0.00197856       0.00115636      -0.00123210
P        0.29011713       2.44358101       5.52644995       0.00000000 NULL       0.00872011       0.00149184       0.00008760
P       -0.80415471       4.88241100       3.93056001       0.00000000 NULL      -0.00172611      -0.00008677      -0.00150467
P       -1.99495159       4.23817182       7.33827511       0.00000000 NULL       0.00057256       0.00604583       0.00524056
P       -3.66764145       3.12647776       9.24915357       0.00000000 NULL      -0.00142082      -0.00475994       0.00424528
P        2.12800758       3.82009641       3.11696929       0.00000000 NULL       0.00512921       0.00006796       0.00255922
P        2.73036365       1.90722589       2.14831379       0.00000000 NULL      -0.00456505       0.00056726      -0.00153966
P        2.43017366       6.94353937       4.75184153       0.00000000 NULL       0.00053297       0.00467907      -0.00087985
P        1.27101050       5.10246556       1.50424051       0.00000000 NULL       0.00139319       0.00513399      -0.00661369
