12
Lattice="4.9861247020801045 -4.5650362120833895e-06 5.945618949308226e-41 -2.4930590154647057 3.643258077980774 1.0202063697365722e-40 2.0648350009051212e-40 1.1251399100872275e-39 14.213086420676616" Properties=species:S:1:pos:R:3:initial_magmoms:R:1:castep_labels:S:1:forces:R:3 n_minim_iter=7 energy=-61.072477922505385 stress="4.764801309035359e-05 -6.500806527451761e-11 1.782229942490183e-11 -6.500806527451761e-11 -3.051228765570204e-05 4.123055665430874e-12 1.782229942490183e-11 4.123055665430874e-12 -9.770819324285666e-06" free_energy=-61.072477922505385 pbc="T T T"
P        1.44079941       2.93190211       8.60212297       0.00000000 NULL       0.00492411      -0.00114026      -0.00553442
P        3.93385973       0.71134805       5.61096345       0.00000000 NULL       0.00492411       0.00114025       0.00553442
P        1.44079737       0.71135033       8.60212297       0.00000000 NULL       0.00492411       0.00114025      -0.00553442
P       -1.05226294       2.93190439       5.61096345       0.00000000 NULL       0.00492411      -0.00114025       0.00553442
P       -2.06798701       3.47145234      10.32687850       0.00000000 NULL      -0.00602852       0.00443817       0.00210215
P        0.42507232       0.17180425       3.88620792       0.00000000 NULL      -0.00602853      -0.00443816      -0.00210215
P        2.91813467       0.17180197      10.32687850       0.00000000 NULL      -0.00602853      -0.00443815       0.00210215
P        0.42507534       3.47145005       3.88620792       0.00000000 NULL      -0.00602852       0.00443817      -0.00210215
P        1.62310978      -0.00736692       1.07040420       0.00000000 NULL       0.00110442       0.00152908       0.00723138
P       -0.86994922       3.65062131      13.14268222       0.00000000 NULL       0.00110441      -0.00152908      -0.00723138
P        1.62311313       3.65061903       1.07040420       0.00000000 NULL       0.00110441      -0.00152908       0.00723138
P        4.11617213      -0.00736921      13.14268222       0.00000000 NULL       0.00110442       0.00152907      -0.00723138
