2
Lattice="2.4704142334856294 0.21552715015905685 0.07977350459317041 -0.2211710464800266 2.4606297209934076 0.22234024927113152 -0.1689150278627353 -0.6366897266153656 6.556838390983399" Properties=species:S:1:pos:R:3:initial_magmoms:R:1:castep_labels:S:1:forces:R:3 n_minim_iter=11 energy=-10.665516516797624 stress="0.00045847602134952526 9.805335298414245e-05 1.0988143520338831e-05 9.805335298414245e-05 0.00013663855427828683 -9.024223558592754e-05 1.0988143520338831e-05 -9.024223558592754e-05 0.0002470423453076752" free_energy=-10.665516516797624 pbc="T T T"
P        0.00013312       0.37112667       5.02924965       0.00000000 NULL      -0.00156275      -0.00319379      -0.00053261
P        0.05479298       0.58081939       2.75854881       0.00000000 NULL       0.00156275       0.00319379       0.00053261
