28
Lattice="5.6536172416429835 -0.03648558951798954 0.0 -1.6903010274855252 10.341875999540639 0.0 0.0 0.0 12.837875594861504" Properties=species:S:1:pos:R:3:initial_magmoms:R:1:castep_labels:S:1:forces:R:3 n_minim_iter=17 energy=-149.8916119020829 stress="1.3302384897527164e-05 2.7994467918015065e-06 1.1407563806216443e-13 2.7994467918015065e-06 1.834719863902982e-05 3.2767019016839623e-12 1.1407563806216443e-13 3.2767019016839623e-12 -7.663085646459473e-07" free_energy=-149.8916119020829 pbc="T T T"
P        2.39771232       7.87919278       8.63625508       0.00000000 NULL       0.00184221      -0.00494483      -0.00079129
P        1.56560389       2.42619764       8.63625508       0.00000000 NULL      -0.00184221       0.00494483      -0.00079129
P       -0.95564021       8.41449107       3.73259847       0.00000000 NULL       0.00609894       0.00022305       0.00361206
P        4.91895642       1.89089934       3.73259847       0.00000000 NULL      -0.00609894      -0.00022305       0.00361206
P        1.24825321       9.23579532       5.41154268       0.00000000 NULL      -0.00029479       0.00023658       0.00234110
P        2.71506300       1.06959509       5.41154268       0.00000000 NULL       0.00029479      -0.00023658       0.00234110
P        4.68438837       6.87820894       0.40705276       0.00000000 NULL       0.00384586       0.00019899      -0.00133282
P       -0.72107216       3.42718147       0.40705276       0.00000000 NULL      -0.00384586      -0.00019899      -0.00133282
P        1.51534016       8.11442823       0.50645411       0.00000000 NULL       0.00185937       0.00240546      -0.00122420
P        2.44797606       2.19096219       0.50645411       0.00000000 NULL      -0.00185937      -0.00240546      -0.00122420
P        1.29630940       3.73585459      12.12650149       0.00000000 NULL      -0.00213361      -0.00300584       0.00000457
P        2.66700681       6.56953582      12.12650149       0.00000000 NULL       0.00213361       0.00300584       0.00000457
P        0.38319989       4.21120168       9.15440186       0.00000000 NULL       0.00062964       0.00337083       0.00420783
P        3.58011632       6.09418873       9.15440186       0.00000000 NULL      -0.00062964      -0.00337083       0.00420783
P        2.06483724       3.07050374       2.53728413       0.00000000 NULL       0.00081807      -0.00481635      -0.00111500
P        1.89847897       7.23488667       2.53728413       0.00000000 NULL      -0.00081807       0.00481635      -0.00111500
P        0.06416997       3.21839143       7.21082918       0.00000000 NULL       0.00726358      -0.00265888       0.00264187
P        3.89914624       7.08699899       7.21082918       0.00000000 NULL      -0.00726358       0.00265888       0.00264187
P        3.55377925       8.59692806      12.42999509       0.00000000 NULL      -0.00163603      -0.00077239       0.00454540
P        0.40953696       1.70846236      12.42999509       0.00000000 NULL       0.00163603       0.00077239       0.00454540
P        2.51534778       9.02400846       3.65490425       0.00000000 NULL       0.00417655      -0.00195069      -0.00556687
P        1.44796843       1.28138195       3.65490425       0.00000000 NULL      -0.00417655       0.00195069      -0.00556687
P        4.03148289       6.58510955       2.49173819       0.00000000 NULL       0.00403707       0.00307469       0.00200087
P       -0.06816668       3.72028086       2.49173819       0.00000000 NULL      -0.00403707      -0.00307469       0.00200087
P        4.56961603       0.32581550       2.15844510       0.00000000 NULL       0.00415670      -0.00248806      -0.00424688
P       -0.60629982       9.97957492       2.15844510       0.00000000 NULL      -0.00415670       0.00248806      -0.00424688
P       -0.58544496       2.24485557       9.08862774       0.00000000 NULL      -0.00182627       0.00191468      -0.00507662
P        4.54876118       8.06053485       9.08862774       0.00000000 NULL       0.00182627      -0.00191468      -0.00507662
