13
Lattice="5.032087329651609 -0.7163531604663527 -0.4348634097167196 -3.237979443001176 6.8791507128450045 1.0953406161561663 -1.304527805019359 -0.13654048609154243 7.902954179958221" Properties=species:S:1:pos:R:3:initial_magmoms:R:1:castep_labels:S:1:forces:R:3 n_minim_iter=4 energy=-69.17970237856802 stress="-2.873037547254917e-05 6.14426186441197e-05 5.228147054793516e-05 6.14426186441197e-05 0.00014819969022684243 0.00013705767506179075 5.228147054793516e-05 0.00013705767506179075 2.2187811284003925e-05" free_energy=-69.17970237856802 pbc="T T T"
P        3.86724049       0.28605565       3.35178406       0.00000000 NULL       0.00036239      -0.00457927      -0.00499872
P       -0.10202667       0.96651641       6.90472380       0.00000000 NULL      -0.00403758       0.00117938       0.00528398
P        1.64043758      -0.04654413       3.81285889       0.00000000 NULL       0.00234746      -0.00318700      -0.00154344
P        2.63075024       5.04870392       2.62381143       0.00000000 NULL       0.00004177       0.00520405       0.00193154
P       -0.22444176      -0.55411986       5.07524406       0.00000000 NULL       0.00296529       0.00461839       0.00555304
P        0.10177308       2.88798757       1.67187408       0.00000000 NULL      -0.00027826       0.00481948       0.00035510
P        0.68569447       6.15427931       2.43523232       0.00000000 NULL       0.00575484       0.00446931      -0.00324902
P       -1.83904378       3.64372587       6.20371847       0.00000000 NULL      -0.00093383      -0.00128796       0.00578116
P        2.02462731       2.09252614       0.97266352       0.00000000 NULL      -0.00412156      -0.00238656      -0.00053891
P       -1.54946207       4.55048854       8.18571229       0.00000000 NULL      -0.00029008      -0.00133928       0.00004131
P        1.33487703       3.99093329       8.27382766       0.00000000 NULL      -0.00149006      -0.00617908      -0.00241724
P       -2.17856430       1.59902608       6.81988827       0.00000000 NULL      -0.00266933       0.00178039      -0.00334211
P        0.70658929       4.10443934       3.39932119       0.00000000 NULL       0.00234894      -0.00311185      -0.00285669
