44
Lattice="10.527223295795144 5.660544203772647e-07 -2.1913124150949143e-16 -5.263612055767461 7.585378849338794 0.5880813241862577 1.159729833725093e-07 -2.1568129224994532 11.913333847272817" Properties=species:S:1:pos:R:3:initial_magmoms:R:1:castep_labels:S:1:forces:R:3 n_minim_iter=11 energy=-239.617096903469 stress="-2.7878708810679267e-06 4.007868570236832e-12 -3.989808727139605e-12 4.007868570236832e-12 -1.3813528988946052e-05 1.4923344020576956e-06 -3.989808727139605e-12 1.4923344020576956e-06 1.0956469465509294e-05" free_energy=-239.617096903469 pbc="T T T"
P       -1.11344508       2.20094631      10.05138828       0.00000000 NULL       0.00295735      -0.00059652      -0.00088678
P        4.15016651       3.22762006       2.45002688       0.00000000 NULL       0.00295735       0.00059652       0.00088678
P        6.37705644       3.22762018       2.45002688       0.00000000 NULL      -0.00295735       0.00059652       0.00088679
P        1.11344485       2.20094643      10.05138828       0.00000000 NULL      -0.00295735      -0.00059652      -0.00088679
P        3.67082383       2.02730100      12.22199000       0.00000000 NULL      -0.00247709       0.00146047       0.00421507
P       -1.59278789       3.40126532       0.27942516       0.00000000 NULL      -0.00247709      -0.00146047      -0.00421507
P        1.59278752       3.40126549       0.27942516       0.00000000 NULL       0.00247709      -0.00146047      -0.00421507
P        6.85639925       2.02730117      12.22199000       0.00000000 NULL       0.00247709       0.00146047       0.00421507
P        1.09996946       5.07810697       1.68154696       0.00000000 NULL       0.00608613       0.00197190      -0.00428042
P        6.36358136       0.35045965      10.81986820       0.00000000 NULL       0.00608613      -0.00197190       0.00428042
P        4.16364190       0.35045953      10.81986820       0.00000000 NULL      -0.00608613      -0.00197190       0.00428042
P       -1.09997000       5.07810685       1.68154696       0.00000000 NULL      -0.00608613       0.00197190      -0.00428042
P        3.90562264       3.76494103       9.72713664       0.00000000 NULL       0.00092433      -0.00100657      -0.00570229
P       -1.35798890       1.66362532       2.77427852       0.00000000 NULL       0.00092433       0.00100657       0.00570229
P        1.35798872       1.66362546       2.77427852       0.00000000 NULL      -0.00092433       0.00100657       0.00570229
P        6.62160025       3.76494118       9.72713664       0.00000000 NULL      -0.00092433      -0.00100657      -0.00570229
P       -1.11620240       5.54492762       8.92080255       0.00000000 NULL      -0.00694375      -0.00294645       0.00373010
P        4.14740955      -0.11636125       3.58061262       0.00000000 NULL      -0.00694375       0.00294645      -0.00373010
P        6.37981376      -0.11636113       3.58061262       0.00000000 NULL       0.00694375       0.00294645      -0.00373010
P        1.11620181       5.54492774       8.92080255       0.00000000 NULL       0.00694375      -0.00294645       0.00373010
P        3.81484557       4.29704441       7.56130084       0.00000000 NULL       0.00515173      -0.00257924      -0.00348292
P        9.07845739       1.13152250       4.94011433       0.00000000 NULL       0.00515173       0.00257924       0.00348292
P        1.44876579       1.13152208       4.94011433       0.00000000 NULL      -0.00515174       0.00257924       0.00348292
P       -3.81484603       4.29704400       7.56130084       0.00000000 NULL      -0.00515173      -0.00257924      -0.00348292
P       -4.13624081       6.49984480       7.68893627       0.00000000 NULL      -0.00291957      -0.00082396       0.00398760
P        1.12737124      -1.07127875       4.81247889       0.00000000 NULL      -0.00291956       0.00082395      -0.00398760
P        9.39985217      -1.07127831       4.81247889       0.00000000 NULL       0.00291956       0.00082395      -0.00398760
P        4.13624011       6.49984524       7.68893627       0.00000000 NULL       0.00291957      -0.00082395       0.00398760
P       -1.63185808       4.40593245       7.05904707       0.00000000 NULL       0.00553495       0.00559576      -0.00160674
P        3.63175375       1.02263387       5.44236809       0.00000000 NULL       0.00553495      -0.00559576       0.00160674
P        6.89546943       1.02263404       5.44236809       0.00000000 NULL      -0.00553495      -0.00559576       0.00160674
P        1.63185760       4.40593263       7.05904707       0.00000000 NULL      -0.00553495       0.00559576      -0.00160674
P        3.42687232       1.22022035       1.93110460       0.00000000 NULL       0.00165347      -0.00544270      -0.00017318
P       -1.83673949       4.20834595      10.57031056       0.00000000 NULL       0.00165346       0.00544270       0.00017318
P        1.83673904       4.20834615      10.57031056       0.00000000 NULL      -0.00165347       0.00544270       0.00017318
P        7.10035084       1.22022054       1.93110460       0.00000000 NULL      -0.00165346      -0.00544270      -0.00017318
P        6.40547653       1.62401287       8.96644243       0.00000000 NULL       0.00044769      -0.00006541      -0.00103742
P        1.14186476       3.80455375       3.53497274       0.00000000 NULL       0.00044769       0.00006541       0.00103742
P       -1.14186517       3.80455363       3.53497274       0.00000000 NULL      -0.00044769       0.00006541       0.00103742
P        4.12174659       1.62401275       8.96644243       0.00000000 NULL      -0.00044769      -0.00006541      -0.00103742
P       -1.10697020       2.32665364       7.62974738       0.00000000 NULL       0.00208891       0.00439975       0.00102495
P        4.15664140       3.10191273       4.87166778       0.00000000 NULL       0.00208891      -0.00439975      -0.00102495
P        6.37058156       3.10191285       4.87166778       0.00000000 NULL      -0.00208891      -0.00439975      -0.00102495
P        1.10696995       2.32665376       7.62974738       0.00000000 NULL      -0.00208891       0.00439975       0.00102495
