48
Lattice="6.527798178077667 -6.277730017063821e-43 3.847062294429299e-41 -2.7229783682171273e-44 12.70499361544168 7.388090430287452e-14 -3.952402303610985e-41 -6.352496807720905 11.002847225891557" Properties=species:S:1:pos:R:3:initial_magmoms:R:1:castep_labels:S:1:forces:R:3 n_minim_iter=16 energy=-257.2155560573526 stress="3.396126039798214e-05 -1.3915714938907832e-12 4.038892954670198e-12 -1.3915714938907832e-12 2.490718659337275e-05 -6.433947912777846e-12 4.038892954670198e-12 -6.433947912777846e-12 2.4907196657274687e-05" free_energy=-257.2155560573526 pbc="T T T"
P        3.59245316       4.66298358       7.73434388       0.00000000 NULL      -0.00030175      -0.00177420       0.00073218
P        5.76838588       3.67536417       0.17108920       0.00000000 NULL      -0.00030175       0.00025302      -0.00190260
P        1.41652043      10.71914457       3.09741304       0.00000000 NULL      -0.00030175       0.00152119       0.00117042
P        2.35557643       8.93819803       4.06636305       0.00000000 NULL      -0.00024259       0.00013953      -0.00004959
P        4.53150916       4.71432154       5.70752393       0.00000000 NULL      -0.00024259      -0.00002682       0.00014563
P        0.17964371       5.40497277       1.22895915       0.00000000 NULL      -0.00024259      -0.00011271      -0.00009604
P        5.10984960       5.12504059       9.39966806       0.00000000 NULL      -0.00304902      -0.00173911      -0.00321737
P        0.75798415      -4.35037418      10.74142744       0.00000000 NULL      -0.00304902       0.00365588       0.00010257
P        2.93391687      -0.77466451       1.86459785       0.00000000 NULL      -0.00304902      -0.00191677       0.00311480
P        1.97408119       5.29296324       9.70123927       0.00000000 NULL       0.00104001       0.00226894       0.00031251
P        4.15001392      -4.69550383      10.73606712       0.00000000 NULL       0.00104001      -0.00140512       0.00180871
P        6.32594664      -0.59745750       1.56838696       0.00000000 NULL       0.00104001      -0.00086383      -0.00212122
P        1.55635661       7.36032240       7.19840020       0.00000000 NULL      -0.00274704      -0.00316090       0.00020765
P        3.73228933       2.79083561       2.77502498       0.00000000 NULL      -0.00274704       0.00140062      -0.00284124
P        5.90822206       8.90633432       1.02942095       0.00000000 NULL      -0.00274704       0.00176028       0.00263359
P        2.82845450       3.89439083       4.55006995       0.00000000 NULL      -0.00030496       0.00018131      -0.00114088
P        5.00438723       6.81732267       1.09760532       0.00000000 NULL      -0.00030496       0.00089737       0.00072746
P        0.65252177       8.34577882       5.35517086       0.00000000 NULL      -0.00030496      -0.00107869       0.00041342
P        0.43058424       4.28947520       8.51745115       0.00000000 NULL       0.00327747       0.00006673       0.00029652
P        2.60651697      -3.16856923      10.45891504       0.00000000 NULL       0.00327747      -0.00029016      -0.00009047
P        4.78244970      -1.12090407       3.02932716       0.00000000 NULL       0.00327747       0.00022343      -0.00020605
P        3.15715691       2.51350474       7.84233252       0.00000000 NULL       0.00029531       0.00206530       0.00207478
P        5.33308964      -1.69591411       9.25843882       0.00000000 NULL       0.00029531      -0.00282946       0.00075121
P        0.98122419      -0.81758872       4.90492201       0.00000000 NULL       0.00029531       0.00076416      -0.00282599
P        6.03227521       3.09477982       5.78641214       0.00000000 NULL      -0.00001828       0.00200880       0.00268187
P        1.68040976       6.14642444      -0.21304923       0.00000000 NULL      -0.00001828      -0.00332697       0.00039873
P        3.85634248       9.81628808       5.42948322       0.00000000 NULL      -0.00001828       0.00131817      -0.00308061
P        2.44384124      10.03050233       0.19456208       0.00000000 NULL       0.00131298      -0.00325811       0.00406645
P        4.61977396       7.52124738       8.58938769       0.00000000 NULL       0.00131298      -0.00189259      -0.00485483
P        0.26790851       1.50574262       2.21889636       0.00000000 NULL       0.00131298       0.00515070       0.00078838
P        2.29276800       1.10624576       2.98673378       0.00000000 NULL       0.00065150      -0.00256270      -0.00201266
P        4.46870072       3.21278724      10.46751616       0.00000000 NULL       0.00065150       0.00302437      -0.00121303
P        0.11683527      -4.31903109       8.55144341       0.00000000 NULL       0.00065150      -0.00046167       0.00322570
P        4.91375132       9.31055834       3.02566002       0.00000000 NULL      -0.00048330      -0.00059402       0.00410106
P        0.56188586       5.42941664       6.55034894       0.00000000 NULL      -0.00048330      -0.00325462      -0.00256497
P        2.73781859       4.31751735       1.42683717       0.00000000 NULL      -0.00048330       0.00384864      -0.00153610
P        2.90381094      -0.99824150       6.09933353       0.00000000 NULL       0.00424701       0.00166379       0.00269599
P        5.07974366       1.56944040       7.08867686       0.00000000 NULL       0.00424701      -0.00316669       0.00009289
P        0.72787821      -0.57119700       8.81768295       0.00000000 NULL       0.00424701       0.00150290      -0.00278888
P        6.12273985       1.48028122       9.12764749       0.00000000 NULL      -0.00225818      -0.00019324      -0.00429942
P        1.77087440      -2.29241777       7.72098352       0.00000000 NULL      -0.00225818       0.00382003       0.00198236
P        3.94680713       0.81213846       5.15706234       0.00000000 NULL      -0.00225818      -0.00362679       0.00231706
P        2.22732489       2.09209564       5.87937005       0.00000000 NULL       0.00150943      -0.00044877       0.00332573
P        4.40325762       0.21476580       9.87496908       0.00000000 NULL       0.00150943      -0.00265578      -0.00205152
P        6.57919035      -2.30685954       6.25135423       0.00000000 NULL       0.00150943       0.00310456      -0.00127422
P        2.57067216       5.90511237       3.32882474       0.00000000 NULL      -0.00292859      -0.00093477      -0.00456573
P        4.74660489       6.86959128       3.44956385       0.00000000 NULL      -0.00292859       0.00442143       0.00147333
P        0.39473944       6.28278868       4.22445753       0.00000000 NULL      -0.00292859      -0.00348665       0.00309241
