10
Lattice="2.3490322259147334 0.3296766157632368 0.3351448947014471 0.9888532391713708 9.348205450910646 0.983773160789781 0.9888532391713818 0.8298690502667184 9.363122990954208" Properties=species:S:1:pos:R:3:initial_magmoms:R:1:castep_labels:S:1:forces:R:3 n_minim_iter=15 energy=-53.47560767195689 stress="-5.015016005225564e-05 -5.059885771615652e-05 -5.143812417109725e-05 -5.059885771615652e-05 2.8779856206549724e-05 -6.928396569722631e-05 -5.143812417109725e-05 -6.928396569722631e-05 2.6500234588362943e-05" free_energy=-53.47560767195689 pbc="T T T"
P        2.46088405       3.30722179       9.97675238       0.00000000 NULL       0.00013360      -0.00453952      -0.00138396
P        2.46088405       9.92100121       3.47088446       0.00000000 NULL       0.00013360      -0.00130910      -0.00456167
P        2.23271221       5.56302336       9.35139428       0.00000000 NULL       0.00006920      -0.00019583       0.00035793
P        2.23271221       9.25862147       5.71609416       0.00000000 NULL       0.00006920       0.00036110      -0.00018991
P        2.84266443       2.86557874       7.73698468       0.00000000 NULL      -0.00232445      -0.00064432       0.00144172
P        2.84266443       7.68880125       2.99245867       0.00000000 NULL      -0.00232445       0.00145212      -0.00062051
P        2.61389169       5.12150333       7.11222495       0.00000000 NULL       0.00215145       0.00281493      -0.00201516
P        2.61389169       7.02701777       5.23780119       0.00000000 NULL       0.00215145      -0.00206119       0.00278140
P        1.85742743       7.89750071       9.68023351       0.00000000 NULL      -0.00002980       0.00830594      -0.00404806
P        1.85742743       9.54901580       8.05566482       0.00000000 NULL      -0.00002980      -0.00418414       0.00823823
