27
Lattice="7.794368820479207 -1.6175153432197352e-16 -1.07003331649666e-43 -3.8971844102396025 6.750121405000341 -2.1547997857283207e-41 -1.3690760563668359e-43 2.45502436561364e-42 9.607586571026356" Properties=species:S:1:pos:R:3:initial_magmoms:R:1:castep_labels:S:1:forces:R:3 n_minim_iter=16 energy=-141.45725599018365 stress="-5.787187346624973e-05 3.993285044522167e-12 -5.2095988989390045e-12 3.993285044522167e-12 -5.7871887008249134e-05 3.436544485266602e-12 -5.2095988989390045e-12 3.436544485266602e-12 7.605082748760947e-05" free_energy=-141.45725599018365 pbc="T T T"
P        4.06366275       0.61351040       5.48158753       0.00000000 NULL      -0.00125745       0.00128958       0.00307421
P        2.39666784       2.92413102       5.48158753       0.00000000 NULL       0.00174553       0.00044419       0.00307421
P        5.23122146       3.21248065       5.48158753       0.00000000 NULL      -0.00048808      -0.00173377       0.00307421
P       -0.96121905       2.97718123       0.87871337       0.00000000 NULL       0.00576317       0.00293835      -0.00420044
P       -0.83826109       6.09397090       0.87871337       0.00000000 NULL      -0.00033690      -0.00646022      -0.00420044
P        1.79947896       4.42909135       0.87871337       0.00000000 NULL      -0.00542627       0.00352188      -0.00420044
P        0.03453263       2.71660605       7.94164046       0.00000000 NULL       0.00301489      -0.00147329      -0.00668968
P       -1.56180166       5.36191224       7.94164046       0.00000000 NULL      -0.00278335      -0.00187433      -0.00668968
P        1.52726785       5.42172519       7.94164046       0.00000000 NULL      -0.00023154       0.00334762      -0.00668968
P        8.34308500       1.84142615       5.99265279       0.00000000 NULL       0.00041534       0.00105455       0.00504574
P        1.32036295      -1.39591523       5.99265279       0.00000000 NULL       0.00070560      -0.00088697       0.00504574
P        2.02810410       6.30461116       5.99265279       0.00000000 NULL      -0.00112094      -0.00016758       0.00504574
P        1.99049814       4.75667699       4.42338093       0.00000000 NULL      -0.00184765       0.00140688       0.00296108
P       -0.77303116       2.64796095       4.42338093       0.00000000 NULL       0.00214222       0.00089667       0.00296108
P       -1.21746816       6.09560554       4.42338093       0.00000000 NULL      -0.00029457      -0.00230355       0.00296108
P        4.63888715       0.65760571       8.97035148       0.00000000 NULL      -0.00249661      -0.00407448      -0.00383354
P        2.14724330       2.40392443       8.97035148       0.00000000 NULL      -0.00228029       0.00419937      -0.00383354
P        4.90542160       3.68859194       8.97035148       0.00000000 NULL       0.00477691      -0.00012489      -0.00383353
P        5.65243881       2.16179648       7.46013491       0.00000000 NULL      -0.00318132      -0.00346832       0.00298599
P        2.94313489       0.77406755       7.46013491       0.00000000 NULL      -0.00141299       0.00448926       0.00298599
P        3.09597835       3.81425804       7.46013491       0.00000000 NULL       0.00459431      -0.00102094       0.00298599
P        3.98128022       5.07232694       0.92833135       0.00000000 NULL       0.00424085      -0.00036402       0.00152582
P        6.29930750       0.76606813       0.92833135       0.00000000 NULL      -0.00243567      -0.00349067       0.00152582
P        1.41096433       0.91172701       0.92833135       0.00000000 NULL      -0.00180517       0.00385469       0.00152582
P        1.04348456       2.74001970       2.19492385       0.00000000 NULL       0.00107621      -0.00452784      -0.00086920
P       -2.04600081       4.47642741       2.19492385       0.00000000 NULL      -0.00445933       0.00133189      -0.00086920
P        1.00251507       6.28379637       2.19492385       0.00000000 NULL       0.00338312       0.00319594      -0.00086920
