42
Lattice="3.257057963515717 2.1153481048791046e-41 3.75443783841004e-41 -9.169123577187728e-41 16.809226465648724 3.1248032912725703e-13 1.4806694350604074e-40 -8.404613232824632 14.557217137217357" Properties=species:S:1:pos:R:3:initial_magmoms:R:1:castep_labels:S:1:forces:R:3 n_minim_iter=4 energy=-225.1388726974647 stress="2.3882277719570493e-07 6.682178324060035e-13 -1.7467887828352106e-13 6.682178324060035e-13 -1.8626520262773215e-07 -1.2272183336811176e-11 -1.7467887828352106e-13 -1.2272183336811176e-11 -1.8627471292525936e-07" free_energy=-225.1388726974647 pbc="T T T"
P        1.49642727      10.37180709       7.63790362       0.00000000 NULL      -0.00044859       0.00066596       0.00227946
P        1.49642727       5.00870353       5.16329808       0.00000000 NULL      -0.00044859      -0.00230705      -0.00056299
P        1.49642727       9.83332657       1.75601691       0.00000000 NULL      -0.00044859       0.00164109      -0.00171647
P        3.14940905       6.33985683      11.83901309       0.00000000 NULL      -0.00288362       0.00369312       0.00222163
P        3.14940905      -5.01820210      14.12818912       0.00000000 NULL      -0.00288362      -0.00377055       0.00208752
P        3.14940905      -1.32165723       3.14723353       0.00000000 NULL      -0.00288362       0.00007743      -0.00430915
P       -0.13772787       8.11494073      -0.31723487       0.00000000 NULL       0.00621889      -0.00234637       0.00207491
P       -0.13772787      13.02648873       7.18636371       0.00000000 NULL       0.00621889      -0.00062374      -0.00306948
P       -0.13772787       4.07240774       7.68808976       0.00000000 NULL       0.00621889       0.00297011       0.00099456
P        3.13780630       8.13736269       3.60350131       0.00000000 NULL      -0.00403691       0.00126695      -0.00191546
P        3.13780630       9.61982061       5.24541361       0.00000000 NULL      -0.00403691       0.00102536       0.00205494
P        3.13780630       7.45665389       5.70830368       0.00000000 NULL      -0.00403692      -0.00229232      -0.00013948
P        3.13005531       2.60723187       2.82100951       0.00000000 NULL       0.00121034       0.00092881       0.00343896
P        3.13005531      13.06254380       0.84742574       0.00000000 NULL       0.00121034      -0.00344263      -0.00091511
P        3.13005531       9.54406152      10.88878336       0.00000000 NULL       0.00121034       0.00251382      -0.00252385
P        1.48599141      -2.76515046      10.39299966       0.00000000 NULL       0.00051767       0.00241171       0.00478612
P        1.48599141       0.78658591       6.96602822       0.00000000 NULL       0.00051767      -0.00535076      -0.00030446
P        1.48599141       1.97856205      11.75540787       0.00000000 NULL       0.00051767       0.00293905      -0.00448166
P        3.14383046       1.61058769       0.83192077       0.00000000 NULL      -0.00207203       0.00284832       0.00118566
P        3.14383046      15.28346727       0.97885092       0.00000000 NULL      -0.00207203      -0.00245097       0.00187389
P        3.14383046       8.31978224      12.74644691       0.00000000 NULL      -0.00207203      -0.00039735      -0.00305954
P        1.49138077       2.85656726       8.49043150       0.00000000 NULL      -0.00321319       0.00375558      -0.00316096
P        1.49138077       8.02801264      -1.77135448       0.00000000 NULL      -0.00321319       0.00085969       0.00483291
P        1.49138077      14.32925729       7.83814159       0.00000000 NULL      -0.00321319      -0.00461526      -0.00167194
P        3.13228257       4.62782524       1.99110309       0.00000000 NULL      -0.00432066      -0.00187858      -0.00178420
P        3.13228257      12.77096716       3.01226413       0.00000000 NULL      -0.00432067       0.00248445      -0.00073480
P        3.13228257       7.81504480       9.55385138       0.00000000 NULL      -0.00432067      -0.00060587       0.00251900
P       -0.14161530      -0.09660245       8.26642617       0.00000000 NULL       0.00038379      -0.00000003       0.00046125
P       -0.14161530       1.29397857      10.34034533       0.00000000 NULL       0.00038379      -0.00039944      -0.00023065
P       -0.14161530      -1.19737862      10.50766424       0.00000000 NULL       0.00038379       0.00039947      -0.00023059
P        1.50232015       8.17893629       8.10513227       0.00000000 NULL       0.00315489       0.00169884       0.00180916
P        1.50232015       5.70050705       3.03060193       0.00000000 NULL       0.00315489      -0.00241620       0.00056666
P        1.50232015      11.33439385       3.42148441       0.00000000 NULL       0.00315489       0.00071736      -0.00237581
P        1.52066414      -5.21100047      12.63176102       0.00000000 NULL       0.00033203      -0.00088324      -0.00003682
P        1.52066414       0.07068670       3.72847930       0.00000000 NULL       0.00033203       0.00047351      -0.00074650
P        1.52066414       5.14031126      12.75419542       0.00000000 NULL       0.00033203       0.00040974       0.00078332
P       -0.13294668       3.50551793       5.41368947       0.00000000 NULL       0.00077351      -0.00148157      -0.00014601
P       -0.13294668       1.96346083      14.88624145       0.00000000 NULL       0.00077351       0.00086724      -0.00121007
P       -0.13294668      -5.46898127       8.81450483       0.00000000 NULL       0.00077351       0.00061433       0.00135608
P        1.46852210       3.99016221      10.78819539       0.00000000 NULL       0.00438388      -0.00161706       0.00201625
P        1.46852210      -2.93331997      12.61870274       0.00000000 NULL       0.00438388      -0.00093759      -0.00240854
P        1.46852210      -1.05684475       5.70753761       0.00000000 NULL       0.00438388       0.00255465       0.00039229
