16
Lattice="5.3423168073148 -0.0423617341927984 1.184800304039314 0.3684063579036643 6.991520305550281 1.2257072140414298 4.228498762100172 3.719233386728469 10.291956861719258" Properties=species:S:1:pos:R:3:initial_magmoms:R:1:castep_labels:S:1:forces:R:3 n_minim_iter=9 energy=-85.67598390689098 stress="5.209051823206407e-05 -2.9574935674607183e-05 -7.486867226643717e-05 -2.9574935674607183e-05 -0.00012020787115457848 1.541847527941825e-05 -7.486867226643717e-05 1.541847527941825e-05 6.548275003703433e-05" free_energy=-85.67598390689098 pbc="T T T"
P        6.99505027       8.18296639       7.23823252       0.00000000 NULL       0.00222409      -0.00108342       0.00002574
P        6.04726020       3.65894884       3.75956953       0.00000000 NULL       0.00059705       0.00453129      -0.00041902
P        5.18289049       3.69917788       6.84980292       0.00000000 NULL       0.00027987      -0.00381283      -0.00147224
P        6.32974983       8.59390418      11.11185550       0.00000000 NULL       0.00119227       0.00378777      -0.00055037
P        3.89485284       4.17318150       1.95464401       0.00000000 NULL       0.00035486       0.00370487       0.00142366
P        3.73192580       6.65970804       7.73462246       0.00000000 NULL       0.00096659       0.00147323       0.00173971
P        3.59365412       6.18025987       9.89661825       0.00000000 NULL       0.00063180       0.00333594      -0.00335392
P        4.85790515       2.24902174       5.18455714       0.00000000 NULL       0.00059912       0.00133354      -0.00254604
P        6.07335974       5.26054492       5.35120208       0.00000000 NULL      -0.00638087      -0.00058882       0.00092379
P        5.91616250       6.65886727      10.11828943       0.00000000 NULL      -0.00060043       0.00465337      -0.00483668
P        6.82005142       5.06600085      11.36978368       0.00000000 NULL      -0.00078019      -0.00485914       0.00001714
P        2.65565707       2.59019786       2.97667151       0.00000000 NULL       0.00166795      -0.00134002      -0.00092802
P        6.01696798       6.36254835       7.94372116       0.00000000 NULL      -0.00236984      -0.00625615       0.00651819
P        3.13126121       4.57074277       7.13443508       0.00000000 NULL       0.00082278      -0.00424005      -0.00525846
P        4.20714004       6.41238191       4.61214931       0.00000000 NULL       0.00394596       0.00205787       0.00542433
P        2.90631592       4.75781829       4.96289399       0.00000000 NULL      -0.00315099      -0.00269747       0.00329220
