40
Lattice="12.069971032898273 -1.437009646890704e-06 -0.0055886761085340644 1.4583646753640145e-06 12.240989175345694 2.1471761679741192e-06 -6.032410736191173 -6.120494928487624 6.040194344090979" Properties=species:S:1:pos:R:3:initial_magmoms:R:1:castep_labels:S:1:forces:R:3 n_minim_iter=19 energy=-216.27391900543134 stress="8.678193073711508e-06 2.7433966877715223e-12 1.016719142130224e-06 2.7433966877715223e-12 9.122826726048155e-06 7.487229380029983e-12 1.016719142130224e-06 7.487229380029983e-12 -1.4337371412838548e-05" free_energy=-216.27391900543134 pbc="T T T"
P        0.01634332       6.67239707       3.92864794       0.00000000 NULL      -0.00262940       0.00122765       0.00296740
P        6.02121857       0.55190209       2.10596008       0.00000000 NULL       0.00262940       0.00122765      -0.00296740
P        2.11454800      -0.52466133       6.05027877       0.00000000 NULL      -0.00155976      -0.00235389       0.00159131
P        3.92301363       5.59583411      -0.01567114       0.00000000 NULL       0.00155976      -0.00235389      -0.00159131
P       -1.03261679      -3.85436461       4.89354660       0.00000000 NULL       0.00109733      -0.00361165      -0.00414364
P        7.07017763       2.26612967       1.14105987       0.00000000 NULL      -0.00109733      -0.00361165       0.00414364
P        1.14867598      -2.23808136       5.00214927       0.00000000 NULL      -0.00011714      -0.00058078       0.00120818
P        4.88888525       3.88241348       1.03245776       0.00000000 NULL       0.00011714      -0.00058078      -0.00120818
P        6.98907165      10.59096431       0.62288708       0.00000000 NULL      -0.00025415      -0.00178158      -0.00210350
P       -0.95150883       4.47046982       5.41172230       0.00000000 NULL       0.00025415      -0.00178158       0.00210350
P        5.40928335       7.79705606       0.95128949       0.00000000 NULL       0.00065005       0.00253554       0.00024439
P        0.62827880       1.67656132       5.08331891       0.00000000 NULL      -0.00065005       0.00253554      -0.00024439
P        8.10871812       2.71184348       3.10652850       0.00000000 NULL       0.00090290       0.00203053       0.00074160
P       -2.07115571       8.83233931       2.92808026       0.00000000 NULL      -0.00090290       0.00203053      -0.00074160
P        2.92388487       3.43488835       2.07063965       0.00000000 NULL       0.00133403       0.00160972       0.00086674
P        3.11367625      -2.68560660       3.96396722       0.00000000 NULL      -0.00133403       0.00160972      -0.00086674
P        7.50531283       6.01374193       2.12350059       0.00000000 NULL       0.00043269       0.00005069      -0.00067974
P       -1.46775109      -0.10675190       3.91110719       0.00000000 NULL      -0.00043269       0.00005068       0.00067974
P        3.90723309       0.13238371       1.46705391       0.00000000 NULL       0.00260540       0.00532224      -0.00480018
P        2.13032871       6.25287797       4.56755395       0.00000000 NULL      -0.00260540       0.00532224       0.00480018
P        8.97306568      -1.45608800       3.14202371       0.00000000 NULL      -0.00002947      -0.00165659       0.00335672
P       -2.93550427       4.66440805       2.89258359       0.00000000 NULL       0.00002947      -0.00165659      -0.00335672
P        2.89200182       7.60312002       2.93843138       0.00000000 NULL       0.00086328      -0.00131890      -0.00363285
P        3.14556029       1.48262538       3.09617695       0.00000000 NULL      -0.00086328      -0.00131891       0.00363285
P        5.20080257       1.50645913       3.92367414       0.00000000 NULL      -0.00015497       0.00328773       0.00122029
P        0.83675955       7.62695456       2.11093421       0.00000000 NULL       0.00015497       0.00328773      -0.00122029
P        2.10593820       4.63994771      -0.83793556       0.00000000 NULL       0.00449808       0.00370230       0.00207661
P        3.93162320      -1.48054845       6.87254286       0.00000000 NULL      -0.00449808       0.00370230      -0.00207661
P        6.32099606       9.30222699       2.24122041       0.00000000 NULL       0.00133720       0.00046839      -0.00045697
P       -0.28343354       3.18173292       3.79338853       0.00000000 NULL      -0.00133720       0.00046839       0.00045697
P       -2.24144095       2.96557257       6.32376276       0.00000000 NULL       0.00100416      -0.00236525      -0.00037508
P        8.27900341       9.08606706      -0.28915390       0.00000000 NULL      -0.00100416      -0.00236525       0.00037508
P        6.30648861       3.43068253       4.17583700       0.00000000 NULL       0.00227067      -0.00357566       0.00279834
P       -0.26892604       9.55117831       1.85877202       0.00000000 NULL      -0.00227067      -0.00357566      -0.00279834
P       -4.17777795      -3.40466468       6.30834051       0.00000000 NULL       0.00100590       0.00087442       0.00384283
P       10.21533890       2.71582935      -0.27373388       0.00000000 NULL      -0.00100590       0.00087442      -0.00384283
P        0.48003792      -1.05666845       3.25961859       0.00000000 NULL       0.00103190      -0.00077926       0.00138850
P        5.55752359       5.06382562       2.77498886       0.00000000 NULL      -0.00103190      -0.00077926      -0.00138851
P        8.81283690       1.08415232       0.47477212       0.00000000 NULL      -0.00223074      -0.00308564       0.00299879
P       -2.77527489       7.20464740       5.55983608       0.00000000 NULL       0.00223074      -0.00308564      -0.00299879
