3
Lattice="3.277066763633245 -0.1225644741397649 -0.5320595883503692 -1.4344054701585076 2.8638794158484973 0.8839763737561005 -2.087403158911589 0.4378974311572628 7.715681410582883" Properties=species:S:1:pos:R:3:initial_magmoms:R:1:castep_labels:S:1:forces:R:3 n_minim_iter=16 energy=-16.11394184314692 stress="3.18912464784367e-05 -0.00015220160306335585 1.972042020837556e-05 -0.00015220160306335585 -5.105595015026339e-05 7.592705766990014e-05 1.972042020837556e-05 7.592705766990014e-05 -2.7342785900861163e-05" free_energy=-16.11394184314692 pbc="T T T"
P        0.54710461       2.33571953       1.90700748       0.00000000 NULL       0.00457188       0.00041286       0.00155873
P        0.62076572       0.15370940       2.84984895       0.00000000 NULL      -0.00216548       0.00061613      -0.00026014
P        1.91052245       1.65427054       0.08038175       0.00000000 NULL      -0.00240640      -0.00102899      -0.00129859
