7
Lattice="3.3041229590012446 0.10622367681040591 0.3998197570581869 1.6942534166559813 5.885643827656486 -1.8388344910520338 2.4900445926480326 -0.6885111049681986 7.197520093649561" Properties=species:S:1:pos:R:3:initial_magmoms:R:1:castep_labels:S:1:forces:R:3 n_minim_iter=12 energy=-37.12407754110794 stress="2.50459209121318e-05 8.789073544402609e-07 9.53305791521778e-06 8.789073544402609e-07 1.3406084367778692e-05 -4.0637379608181925e-06 9.53305791521778e-06 -4.0637379608181925e-06 -5.51280005493973e-05" free_energy=-37.12407754110794 pbc="T T T"
P        4.12099187       5.17125487       0.48806237       0.00000000 NULL      -0.00334376      -0.00164086      -0.00859843
P        3.58443395      -0.02591875       6.11632205       0.00000000 NULL      -0.00060478      -0.00197614       0.00690235
P        2.39777936       3.07113568       1.35632294       0.00000000 NULL       0.00344144       0.00624382      -0.00173075
P        4.08511621       1.64895819       1.66647648       0.00000000 NULL      -0.00179920       0.00015203       0.00027564
P        3.78332419       2.42750331       3.82966108       0.00000000 NULL       0.00057999      -0.00740152       0.00058241
P        5.10790016       3.27496335       6.54648811       0.00000000 NULL      -0.00231197       0.00553750       0.00590195
P        5.32979098       1.28523601       5.17945767       0.00000000 NULL       0.00403828      -0.00091482      -0.00333317
