8
Lattice="7.236585632787353 -1.4258903249943398 0.3473232998076371 -5.018755175799149 4.389841375620463 -0.9489182200189248 -0.191669045007718 -2.021528737794192 6.899316201866552" Properties=species:S:1:pos:R:3:initial_magmoms:R:1:castep_labels:S:1:forces:R:3 n_minim_iter=19 energy=-43.32343115781306 stress="-3.313877676209728e-05 -5.337384268441177e-05 -3.640990339289565e-05 -5.337384268441177e-05 2.0311672687922352e-05 4.174990306336817e-05 -3.640990339289565e-05 4.174990306336817e-05 -0.00011801857566135586" free_energy=-43.32343115781306 pbc="T T T"
P       -0.86049524       3.54645864      -1.31863664       0.00000000 NULL      -0.00363142       0.00214960      -0.00405466
P        2.12682948      -1.18741246       2.59342915       0.00000000 NULL      -0.00544116      -0.00337711       0.00081169
P        5.59853458      -2.68241490       3.86853679       0.00000000 NULL       0.00538217       0.00169514       0.00433096
P       -2.21906531       0.84257009       3.76817272       0.00000000 NULL      -0.00335598       0.00047423      -0.00103166
P        1.57294770      -0.86004067       4.75814698       0.00000000 NULL       0.00092171      -0.00104804       0.00114091
P        2.19847446       0.88222757       1.60153425       0.00000000 NULL       0.00070903       0.00406672      -0.00254837
P        3.56204736      -0.77668590       5.79630372       0.00000000 NULL       0.00231304       0.00118073       0.00003194
P        1.10358549       1.29720841       4.98520019       0.00000000 NULL       0.00310260      -0.00514128       0.00131920
