40
Lattice="5.156744705964096 0.0 0.0 0.0 10.102975369293004 0.0 0.0 0.0 14.074920352634104" Properties=species:S:1:pos:R:3:initial_magmoms:R:1:castep_labels:S:1:forces:R:3 n_minim_iter=18 energy=-219.05037150700835 stress="1.8699068640503595e-05 -4.4591940485777303e-13 -2.2226110144662125e-12 -4.4591940485777303e-13 5.1601340416828775e-05 -8.90872979969288e-12 -2.2226110144662125e-12 -8.90872979969288e-12 1.7885550687298553e-05" free_energy=-219.05037150700835 pbc="T T T"
P        1.47651632       2.65042754       6.71481747       0.00000000 NULL       0.00622256      -0.00108216      -0.00251271
P        1.10185603       7.70191523       7.36010288       0.00000000 NULL      -0.00622256      -0.00108216       0.00251271
P        4.05488867       7.70191523       7.36010288       0.00000000 NULL       0.00622256      -0.00108216       0.00251271
P        3.68022839       2.65042754       6.71481747       0.00000000 NULL      -0.00622256      -0.00108216      -0.00251271
P        1.12294262       2.66220654       8.97329113       0.00000000 NULL      -0.00329196      -0.00339796      -0.00102273
P        1.45542973       7.71369423       5.10162922       0.00000000 NULL       0.00329196      -0.00339796       0.00102273
P        3.70131497       7.71369423       5.10162922       0.00000000 NULL      -0.00329196      -0.00339796       0.00102273
P        4.03380209       2.66220654       8.97329113       0.00000000 NULL       0.00329196      -0.00339796      -0.00102273
P        4.03982781       8.31888540      11.49000902       0.00000000 NULL       0.00196553      -0.00020626       0.00005903
P        3.69528925       3.26739772       2.58491133       0.00000000 NULL      -0.00196553      -0.00020626      -0.00005903
P        1.46145545       3.26739772       2.58491133       0.00000000 NULL       0.00196553      -0.00020626      -0.00005903
P        1.11691690       8.31888540      11.49000902       0.00000000 NULL      -0.00196553      -0.00020626       0.00005903
P        4.03008033       1.57013778       1.06618682       0.00000000 NULL      -0.00218516      -0.00015430       0.00132800
P        3.70503673       6.62162547      13.00873353       0.00000000 NULL       0.00218516      -0.00015430      -0.00132800
P        1.45170797       6.62162547      13.00873353       0.00000000 NULL      -0.00218516      -0.00015430      -0.00132800
P        1.12666438       1.57013778       1.06618682       0.00000000 NULL       0.00218516      -0.00015430       0.00132800
P        4.02775761       5.38994146       7.33145923       0.00000000 NULL       0.00066869       0.00277855       0.00173414
P        3.70735944      10.44142915       6.74346113       0.00000000 NULL      -0.00066869       0.00277855      -0.00173414
P        1.44938526      10.44142915       6.74346113       0.00000000 NULL       0.00066869       0.00277855      -0.00173414
P        1.12898709       5.38994146       7.33145923       0.00000000 NULL      -0.00066869       0.00277855       0.00173414
P        4.04183949       5.42000860       5.02969193       0.00000000 NULL      -0.00078974       0.00068783       0.00177005
P        3.69327757       0.36852091       9.04522842       0.00000000 NULL       0.00078974       0.00068783      -0.00177005
P        1.46346714       0.36852091       9.04522842       0.00000000 NULL      -0.00078974       0.00068783      -0.00177005
P        1.11490522       5.42000860       5.02969193       0.00000000 NULL       0.00078974       0.00068783       0.00177005
P        1.45995974       6.62836703       2.51030133       0.00000000 NULL       0.00129552      -0.00047797       0.00088077
P        1.11841261       1.57687934      11.56461902       0.00000000 NULL      -0.00129552      -0.00047797      -0.00088077
P        4.03833209       1.57687934      11.56461902       0.00000000 NULL       0.00129552      -0.00047797      -0.00088077
P        3.69678497       6.62836703       2.51030133       0.00000000 NULL      -0.00129552      -0.00047797       0.00088077
P        4.02439167       8.33255445       1.01565518       0.00000000 NULL      -0.00153335      -0.00576326       0.00164638
P        3.71072539       3.28106676      13.05926517       0.00000000 NULL       0.00153335      -0.00576326      -0.00164638
P        1.44601931       3.28106676      13.05926517       0.00000000 NULL      -0.00153335      -0.00576326      -0.00164638
P        1.13235304       8.33255445       1.01565518       0.00000000 NULL       0.00153335      -0.00576326       0.00164638
P        3.69069190      -0.13152128       2.56929913       0.00000000 NULL       0.00228157       0.00060782       0.00081454
P        4.04442516       4.91996641      11.50562122       0.00000000 NULL      -0.00228157       0.00060782      -0.00081454
P        1.11231954       4.91996641      11.50562122       0.00000000 NULL       0.00228157       0.00060782      -0.00081454
P        1.46605281      -0.13152128       2.56929913       0.00000000 NULL      -0.00228157       0.00060782       0.00081454
P        4.02468250       4.91052556       1.02870183       0.00000000 NULL       0.00117561       0.00700772       0.00257638
P        3.71043456       9.96201325      13.04621852       0.00000000 NULL      -0.00117561       0.00700772      -0.00257638
P        1.44631015       9.96201325      13.04621852       0.00000000 NULL       0.00117561       0.00700772      -0.00257638
P        1.13206220       4.91052556       1.02870183       0.00000000 NULL      -0.00117561       0.00700772       0.00257638
