6
Lattice="3.314808403044344 0.5347942841366323 -0.24332305594019335 2.725409380490493 4.379498141436855 0.16051738773722415 0.4069481934374958 1.206745297796888 7.879325050726944" Properties=species:S:1:pos:R:3:initial_magmoms:R:1:castep_labels:S:1:forces:R:3 n_minim_iter=15 energy=-33.20628294039386 stress="-0.0001961792966696952 8.69996371300341e-05 7.700587896463207e-05 8.69996371300341e-05 0.00018323600852162493 -9.767677448094817e-05 7.700587896463207e-05 -9.767677448094817e-05 -0.00012424083751874196" free_energy=-33.20628294039386 pbc="T T T"
P        4.92263478       4.11148795       5.43916795       0.00000000 NULL      -0.00084065      -0.00373323       0.00186391
P        3.36093031       2.08343736       2.98216656       0.00000000 NULL       0.00050781      -0.00282246      -0.00429163
P        3.50084268       2.30697143       5.39857997       0.00000000 NULL       0.00089364       0.00161503       0.00630306
P        2.77878906       4.28838086       0.24968295       0.00000000 NULL      -0.00126515      -0.00416897       0.00340044
P        5.06211091       4.33457676       7.85866011       0.00000000 NULL       0.00520266       0.00128485      -0.00635699
P        4.64848621       4.76745878       3.11406823       0.00000000 NULL      -0.00449831       0.00782478      -0.00091878
