24
Lattice="5.435346979943985 0.2981983796750634 0.0 -1.0557545586195909 6.243601811793088 0.0 0.0 0.0 13.011609324850111" Properties=species:S:1:pos:R:3:initial_magmoms:R:1:castep_labels:S:1:forces:R:3 n_minim_iter=18 energy=-127.67230176706114 stress="2.11919411115353e-05 1.0873848178837917e-06 -5.592256636233696e-12 1.0873848178837917e-06 2.85865655638094e-05 1.4941588758502386e-12 -5.592256636233696e-12 1.4941588758502386e-12 9.585543138353784e-05" free_energy=-127.67230176706114 pbc="T T T"
P        2.14843599       0.96948507       6.14776623       0.00000000 NULL       0.00135711      -0.00032575       0.00566502
P        2.23115643       5.57231511      12.65357089       0.00000000 NULL      -0.00135712       0.00032575       0.00566502
P        4.21057027       2.32540254       1.24282860       0.00000000 NULL      -0.00057566       0.00255976      -0.00289040
P        0.16902215       4.21639764       7.74863326       0.00000000 NULL       0.00057566      -0.00255976      -0.00289040
P        1.98044744       2.11980237       1.31587080       0.00000000 NULL       0.00082626      -0.00568052      -0.00146098
P        2.39914498       4.42199781       7.82167547       0.00000000 NULL      -0.00082626       0.00568052      -0.00146098
P        5.44034211       2.84450304       9.34922463       0.00000000 NULL       0.00007167      -0.00300805       0.00267049
P       -1.06074969       3.69729715       2.84341997       0.00000000 NULL      -0.00007167       0.00300805       0.00267049
P        0.32383293       6.62553504      13.02953399       0.00000000 NULL       0.00006772      -0.00153726       0.00309410
P        4.05575950      -0.08373485       6.52372933       0.00000000 NULL      -0.00006772       0.00153726       0.00309410
P        2.21280956       2.58034352      10.47480469       0.00000000 NULL       0.00568851       0.00068339       0.00263510
P        2.16678286       3.96145666       3.96900003       0.00000000 NULL      -0.00568851      -0.00068339       0.00263510
P        1.02621711       5.17243575       1.55707981       0.00000000 NULL       0.00073849       0.00088241      -0.00259469
P        3.35337532       1.36936444       8.06288447       0.00000000 NULL      -0.00073849      -0.00088241      -0.00259469
P        0.12845370       4.50487398       4.81599569       0.00000000 NULL       0.00083833       0.00112882      -0.00179385
P        4.25113872       2.03692621      11.32180035       0.00000000 NULL      -0.00083833      -0.00112882      -0.00179385
P       -0.46411057       2.13852139       4.41405966       0.00000000 NULL       0.00222801       0.00092216       0.00513032
P        4.84370299       4.40327880      10.91986433       0.00000000 NULL      -0.00222801      -0.00092216       0.00513032
P       -0.07539259       5.77359255       9.40271003       0.00000000 NULL       0.00412164      -0.00077135      -0.00098866
P        4.45498501       0.76820764       2.89690537       0.00000000 NULL      -0.00412164       0.00077135      -0.00098866
P        1.25188714       3.62631664      12.13668087       0.00000000 NULL      -0.00540363      -0.00414105      -0.00310989
P        3.12770529       2.91548355       5.63087621       0.00000000 NULL       0.00540363       0.00414105      -0.00310989
P        2.10520104       5.89824451       9.53153857       0.00000000 NULL       0.00017982      -0.00358633      -0.00635657
P        2.27439138       0.64355568       3.02573391       0.00000000 NULL      -0.00017982       0.00358633      -0.00635657
