24
Lattice="3.306053312697537 0.30298309995933975 0.282469888216749 1.6290456435461853 12.073491059474348 -2.4833733465280923 1.6290456435461866 -1.6322542010369685 12.217695190364253" Properties=species:S:1:pos:R:3:initial_magmoms:R:1:castep_labels:S:1:forces:R:3 n_minim_iter=17 energy=-129.26833024180112 stress="2.949981693400496e-05 -1.9710520947925422e-05 -1.8376044994947917e-05 -1.9710520947925422e-05 2.443988479540104e-05 -2.5170639531839393e-05 -1.8376044994947917e-05 -2.5170639531839393e-05 2.7971966748481026e-05" free_energy=-129.26833024180112 pbc="T T T"
P        0.71519230       6.51278476       0.35977636       0.00000000 NULL       0.00243154      -0.00011444       0.00300887
P        2.36821896       0.96621835       6.61286723       0.00000000 NULL       0.00243154       0.00299348      -0.00032475
P        3.62383719       3.24127374       8.81305643       0.00000000 NULL       0.00129686      -0.00007792      -0.00039930
P        1.97081053       8.86681050       2.47526031       0.00000000 NULL       0.00129686      -0.00040377      -0.00004978
P        3.75094414       7.52206398       2.74521849       0.00000000 NULL      -0.00134860      -0.00122187       0.00050402
P        2.09791748       3.11346739       7.17024331       0.00000000 NULL      -0.00134860       0.00041727      -0.00125415
P        4.13940803       8.85248911       9.17138661       0.00000000 NULL       0.00023905       0.00014407       0.00437275
P        5.79243469       9.91997652       8.33010527       0.00000000 NULL       0.00023905       0.00437211      -0.00016234
P        3.96655787       0.82239730       9.31876836       0.00000000 NULL      -0.00172077      -0.00295197      -0.00256925
P        2.31353122       9.20198400       0.02692076       0.00000000 NULL      -0.00172077      -0.00276956      -0.00276491
P        2.65268876       8.45037820      -2.19071286       0.00000000 NULL       0.00077552       0.00757464       0.00108800
P        4.30571542      -1.44240316       8.72421893       0.00000000 NULL       0.00077552       0.00161548       0.00747991
P        2.50383771       5.22200097       0.28649273       0.00000000 NULL      -0.00097035      -0.00553241      -0.00204807
P        0.85081105       0.49978880       5.04790815       0.00000000 NULL      -0.00097035      -0.00243027      -0.00537549
P        2.21620389       3.91368658       2.05412627       0.00000000 NULL      -0.00182787      -0.00374344       0.00045132
P        3.86923055       2.47450110       3.90155461       0.00000000 NULL      -0.00182787       0.00018820      -0.00376584
P        2.18232584       0.71016634      10.64081840       0.00000000 NULL       0.00413779       0.00075261       0.00197782
P        3.83535249      10.81591993       0.10490404       0.00000000 NULL       0.00413779       0.00202565       0.00061233
P        3.88925776       1.08811227       2.05816623       0.00000000 NULL       0.00103449       0.00045576      -0.00070612
P        2.23623110       1.97778483       0.80015692       0.00000000 NULL       0.00103449      -0.00067249       0.00050406
P        3.41635588       6.32242729       6.89122922       0.00000000 NULL      -0.00104998      -0.00401110       0.00229517
P        5.06938254       7.46833068       5.96583727       0.00000000 NULL      -0.00104998       0.00200881      -0.00416190
P        2.09808765       5.42262322       4.02128001       0.00000000 NULL      -0.00299769      -0.00139038       0.00287592
P        3.75111430       4.54244187       5.26910885       0.00000000 NULL      -0.00299769       0.00277155      -0.00158826
