16
Lattice="7.732183838443213 -1.0213077954696461 -0.1065924622178477 -1.2446998631078126 8.018863253724348 -1.3576300673929986 -2.6997031691327362 -4.23763487091831 6.495071594469253" Properties=species:S:1:pos:R:3:initial_magmoms:R:1:castep_labels:S:1:forces:R:3 n_minim_iter=16 energy=-86.52373944921872 stress="-9.258451618231317e-06 1.6599662707370634e-05 -2.3770784725220952e-05 1.6599662707370634e-05 4.17399388087224e-05 2.0216215308381202e-05 -2.3770784725220952e-05 2.0216215308381202e-05 2.232091298868027e-05" free_energy=-86.52373944921872 pbc="T T T"
P        4.81964584       1.70467362       2.27234664       0.00000000 NULL       0.00150064       0.00112390      -0.00006855
P        3.85813510      -0.37106200      -0.14923390       0.00000000 NULL       0.00178504       0.00550825      -0.00224376
P        2.44947882      -1.64770465       5.60447118       0.00000000 NULL      -0.00524669       0.00346231       0.00306072
P       -0.27905951       6.09919385      -0.73267210       0.00000000 NULL       0.00108224      -0.00169142      -0.00209652
P        2.72400655       4.56807651       0.58068388       0.00000000 NULL      -0.00030676       0.00281447       0.00600653
P        5.47435801      -0.33617223       1.74872523       0.00000000 NULL      -0.00001072      -0.00254018      -0.00073568
P        2.47054028      -0.72901995       3.55906157       0.00000000 NULL      -0.00326225       0.00165240       0.00077181
P        0.84243401       3.94716740       1.66527772       0.00000000 NULL      -0.00351538      -0.00484347       0.00285764
P       -0.14547610       0.57776125       2.52660876       0.00000000 NULL       0.00091642      -0.00646728       0.00010208
P        2.87210563      -3.81085936       5.09899109       0.00000000 NULL       0.00191788       0.00815814       0.00451371
P        0.69445421       0.30238204       0.51345747       0.00000000 NULL       0.00228390       0.00321659      -0.00047241
P        2.82794828       1.21743171       1.06997071       0.00000000 NULL      -0.00173081      -0.00851964      -0.00155688
P       -0.30743392       5.82506592       1.45469669       0.00000000 NULL      -0.00647270      -0.00139533      -0.00109635
P        2.92717176       2.56334400      -0.70959436       0.00000000 NULL       0.00330061       0.00187862      -0.00114042
P        4.48905028      -1.62400192       3.28099792       0.00000000 NULL       0.00365771      -0.00176212      -0.00715711
P        1.82967279       5.61460634      -1.26399719       0.00000000 NULL       0.00410087      -0.00059523      -0.00074481
