8
Lattice="3.2996805893412646 0.0 0.0 0.0 5.6609261347370285 0.7830916043698506 0.0 -1.1095804945677765 8.16981524799394" Properties=species:S:1:pos:R:3:initial_magmoms:R:1:castep_labels:S:1:forces:R:3 n_minim_iter=19 energy=-44.464862702584526 stress="-0.0002572895724904374 -1.0295079426475779e-11 -2.1624637454319727e-11 -1.0295079426475779e-11 -0.00023519058123540294 0.00024619553700067407 -2.1624637454319727e-11 0.00024619553700067407 -0.00017538205448626058" free_energy=-44.464862702584526 pbc="T T T"
P        0.00350910       2.23856076       5.03990951       0.00000000 NULL      -0.00583680       0.00857289      -0.00249023
P        3.29617149       2.79335100       0.95500188       0.00000000 NULL       0.00583680       0.00857289      -0.00249023
P        1.64682304       2.01924395      -0.39370505       0.00000000 NULL      -0.00157269      -0.00808512       0.00689283
P        1.65285755       1.46445370       3.69120257       0.00000000 NULL       0.00157269      -0.00808512       0.00689283
P        1.64672757       5.62517028       1.34697759       0.00000000 NULL       0.00308827       0.00065822      -0.00726713
P        1.65295302       5.07038003       5.43188521       0.00000000 NULL      -0.00308827       0.00065822      -0.00726713
P        3.29685082       3.73924926       8.16931792       0.00000000 NULL      -0.00143261      -0.00114598       0.00286453
P        0.00282977       4.29403951       4.08441030       0.00000000 NULL       0.00143261      -0.00114598       0.00286453
