27
Lattice="4.786938784494471 4.1353389983176816e-44 -1.1124763968028372e-41 7.773494184312689e-43 12.053476724207822 -2.1297859061058593e-14 2.0383703098864194e-41 -6.0267383621038935 10.438617047088426" Properties=species:S:1:pos:R:3:initial_magmoms:R:1:castep_labels:S:1:forces:R:3 n_minim_iter=6 energy=-143.7769108282517 stress="1.2573978047299951e-05 1.1628888731527327e-12 4.3998661952173366e-13 1.1628888731527327e-12 4.318859138430053e-06 -2.8163754732923732e-12 4.3998661952173366e-13 -2.8163754732923732e-12 4.31887889059934e-06" free_energy=-143.7769108282517 pbc="T T T"
P        2.54682099       2.86178975       3.94028403       0.00000000 NULL      -0.00498866      -0.00248505       0.00579728
P        2.54682099       1.18345802      10.94685661       0.00000000 NULL      -0.00498866      -0.00377806      -0.00505076
P        2.54682099      -4.04524596       5.99009241       0.00000000 NULL      -0.00498866       0.00626312      -0.00074652
P        2.49747995       2.58433571       6.10128547       0.00000000 NULL       0.00605416       0.00070846      -0.00371556
P        2.49747995      -0.54929710       9.62607365       0.00000000 NULL       0.00605416       0.00286354       0.00247132
P        2.49747995      -2.03503680       5.14987394       0.00000000 NULL       0.00605416      -0.00357200       0.00124424
P        2.04128819      -3.15576592       7.97440151       0.00000000 NULL      -0.00570058      -0.00005207      -0.00036966
P        2.04128819       0.69858764       3.71844179       0.00000000 NULL      -0.00570058       0.00034616       0.00013974
P        2.04128819       2.45718009       9.18438975       0.00000000 NULL      -0.00570058      -0.00029410       0.00022992
P        3.11487932       2.77178232       0.82923716       0.00000000 NULL      -0.00216396      -0.00383614      -0.00168119
P        3.11487932       9.94944572       1.98581428       0.00000000 NULL      -0.00216396       0.00337402      -0.00248160
P        3.11487932       5.35898886       7.62356457       0.00000000 NULL      -0.00216396       0.00046212       0.00416279
P        3.88591399      -3.13621733       9.18537011       0.00000000 NULL       0.00885869       0.00066250       0.00367787
P        3.88591399      -0.35991623       3.12988707       0.00000000 NULL       0.00885869      -0.00351638      -0.00126519
P        3.88591399       3.49613537       8.56197588       0.00000000 NULL       0.00885869       0.00285388      -0.00241268
P        0.03659084       7.65969577       0.82787666       0.00000000 NULL       0.00162337       0.00409455       0.00327264
P        0.03659084       7.50666723       6.21955175       0.00000000 NULL       0.00162337      -0.00488147       0.00190966
P        0.03659084       2.91385390       3.39118760       0.00000000 NULL       0.00162337       0.00078692      -0.00518231
P        0.51498103       1.00777435       2.11579015       0.00000000 NULL      -0.00100125      -0.00874784       0.00085780
P        0.51498103       3.69052377      10.25347912       0.00000000 NULL      -0.00100125       0.00363105      -0.00800475
P        0.51498103      -4.69829631       8.50796379       0.00000000 NULL      -0.00100125       0.00511680       0.00714696
P        1.37331673       3.92319999       0.18691226       0.00000000 NULL       0.00056974       0.00452928       0.00309045
P        1.37331673       9.93000657       3.30413368       0.00000000 NULL       0.00056974      -0.00494105       0.00237724
P        1.37331673       4.22701034       6.94757007       0.00000000 NULL       0.00056974       0.00041177      -0.00546769
P       -0.26958179       5.35430612       5.80003294       0.00000000 NULL      -0.00325150       0.00298624       0.00094531
P       -0.26958179       4.35334840       1.73694761       0.00000000 NULL      -0.00325150      -0.00231178       0.00211351
P       -0.26958179       8.37256237       2.90163546       0.00000000 NULL      -0.00325150      -0.00067446      -0.00305881
