9
Lattice="3.474119202632845 1.1915907988070575e-14 -6.477689998035441e-41 -1.7370596013164337 3.008675485255377 -1.2941062127420692e-40 -4.022946797936289e-40 -7.698302852059235e-40 12.630858731196081" Properties=species:S:1:pos:R:3:initial_magmoms:R:1:castep_labels:S:1:forces:R:3 n_minim_iter=11 energy=-50.16190116915889 stress="-0.00020968610759286094 -1.0919379567758723e-11 1.7943474532289306e-11 -1.0919379567758723e-11 -0.00020968614250655863 -1.686711417397352e-11 1.7943474532289306e-11 -1.686711417397352e-11 -0.00023424292786556678" free_energy=-50.16190116915889 pbc="T T T"
P        1.84171708       1.02367144       5.43277861       0.00000000 NULL       0.00154562       0.00119267       0.00047246
P        1.70272654       0.90186598       9.64306485       0.00000000 NULL       0.00026008      -0.00193488       0.00047246
P        1.66673518       1.08313805       1.22249236       0.00000000 NULL      -0.00180569       0.00074221       0.00047246
P       -0.00560529       0.10581290      11.03800176       0.00000000 NULL       0.00156114      -0.00019813       0.00058917
P       -1.64262029       2.96062335       2.61742927       0.00000000 NULL      -0.00095215      -0.00125292       0.00058917
P        1.64822558       2.95091470       6.82771552       0.00000000 NULL      -0.00060899       0.00145105       0.00058917
P        0.06472168       2.08647464       8.23904310       0.00000000 NULL      -0.00081849      -0.00088171      -0.00106163
P        0.03751960       1.90938755      12.44932934       0.00000000 NULL      -0.00035433       0.00114969      -0.00106163
P       -0.10224128       2.02148878       4.02875685       0.00000000 NULL       0.00117283      -0.00026798      -0.00106163
