2
Lattice="2.345000384023139 0.24551322830072347 0.3061739963342489 0.8181422322916923 4.8111592219531945 -0.9005026849818885 1.9253374634408937 -0.6653550257461815 4.247195290477145" Properties=species:S:1:pos:R:3:initial_magmoms:R:1:castep_labels:S:1:forces:R:3 n_minim_iter=18 energy=-10.64878572991787 stress="0.0005416445111467285 -7.386919341264108e-05 4.086613755121651e-05 -7.386919341264108e-05 0.00020729743064912194 0.00018994889908447498 4.086613755121651e-05 0.00018994889908447498 -0.0008120439430666436" free_energy=-10.64878572991787 pbc="T T T"
P        4.60166559       4.71109296       3.33310390       0.00000000 NULL       0.00263704       0.00003119      -0.00131337
P        2.59910588       3.93168927       0.84172978       0.00000000 NULL      -0.00263704      -0.00003119       0.00131337
