26
Lattice="10.056842379439514 0.7248906011484436 0.581163251560039 2.504287678187832 7.02724320668829 -0.9862439837833022 2.504287678187846 0.5655058127005609 7.073544193492914" Properties=species:S:1:pos:R:3:initial_magmoms:R:1:castep_labels:S:1:forces:R:3 n_minim_iter=12 energy=-142.19972438064818 stress="9.611318102607401e-06 -2.860982901295539e-06 -2.2937165767695237e-06 -2.860982901295539e-06 -6.36578173562367e-06 -4.360491372823013e-06 -2.2937165767695237e-06 -4.360491372823013e-06 -4.422811168026795e-06" free_energy=-142.19972438064818 pbc="T T T"
P       12.85055211       8.27381289       4.85796300       0.00000000 NULL      -0.00217548      -0.00030095      -0.00030036
P       12.85055211       6.54093545       7.01939795       0.00000000 NULL      -0.00217548      -0.00035862      -0.00022843
P        5.04920205       1.78018803       0.00059095       0.00000000 NULL      -0.00371537      -0.00233867       0.00074397
P        5.04920205       0.38769746       1.73745804       0.00000000 NULL      -0.00371537       0.00021760      -0.00244448
P        7.84331369       7.48631694       4.52549013       0.00000000 NULL      -0.00034249      -0.00131284      -0.00395973
P        7.84331369       6.04516966       6.32304721       0.00000000 NULL      -0.00034249      -0.00415046      -0.00042034
P        9.80214420       3.02505975       1.00312388       0.00000000 NULL      -0.00342896       0.00346832      -0.00213902
P        9.80214420       1.63694936       2.73452753       0.00000000 NULL      -0.00342896      -0.00133361       0.00385047
P        7.70220029       3.83717817       0.98198222       0.00000000 NULL      -0.00042740       0.00224931       0.00157790
P        7.70220029       1.79291735       3.53180871       0.00000000 NULL      -0.00042740       0.00202927       0.00185235
P        5.48016534       5.74781657       2.72214175       0.00000000 NULL       0.00001798       0.00377228       0.00269342
P        5.48016534       3.90692177       5.01830781       0.00000000 NULL       0.00001798       0.00344929       0.00309629
P        8.15759452       0.82781829       5.51980534       0.00000000 NULL       0.00458534      -0.00243856      -0.00369361
P        8.15759452       5.56772932      -0.39233198       0.00000000 NULL       0.00458534      -0.00413551      -0.00157699
P        5.60770903       5.86883756       6.15422121       0.00000000 NULL      -0.00011857      -0.00068417      -0.00084272
P        5.60770903       7.28318582       4.39009081       0.00000000 NULL      -0.00011857      -0.00097133      -0.00048454
P        5.32995936       2.44453644       6.70577777       0.00000000 NULL       0.00293822       0.00300730       0.00261616
P        5.32995936       7.07689277       0.92779446       0.00000000 NULL       0.00293822       0.00320752       0.00236642
P       13.24745683       6.27737348       3.58833730       0.00000000 NULL       0.00068369       0.00033133       0.00022427
P       13.24745683       4.86754624       5.34682860       0.00000000 NULL       0.00068369       0.00029095       0.00027463
P        7.92938114       3.83558904       4.47035099       0.00000000 NULL      -0.00070500       0.00226238      -0.00268330
P        7.92938114       5.19746079       2.77167505       0.00000000 NULL      -0.00070499      -0.00212711       0.00279175
P        2.74594009       3.74430855       1.52128222       0.00000000 NULL      -0.00170787      -0.00125746       0.00015106
P        2.74594009       2.29911595       3.32388507       0.00000000 NULL      -0.00170787      -0.00012600      -0.00126022
P       10.61808845       2.90269797       4.38383599       0.00000000 NULL       0.00439589       0.00028725      -0.00317597
P       10.61808845       4.91014918       1.87992249       0.00000000 NULL       0.00439589      -0.00303750       0.00097102
