56
Lattice="9.609053695806995 -0.4434621920340751 -5.246014605101913e-07 -2.5165367947610795 9.284267025741967 -5.246014610022417e-07 -3.5462576237210683 -4.4204013862474225 14.27321425704113" Properties=species:S:1:pos:R:3:initial_magmoms:R:1:castep_labels:S:1:forces:R:3 n_minim_iter=6 energy=-300.1207736480946 stress="7.540119846883834e-06 -3.8708336898364586e-06 -5.133114697017018e-12 -3.8708336898364586e-06 5.820500193790147e-06 -3.798173410481862e-13 -5.133114697017018e-12 -3.798173410481862e-13 1.6807312399051104e-06" free_energy=-300.1207736480946 pbc="T T T"
P        4.64259978      -0.47294087       1.07689120       0.00000000 NULL       0.00359110      -0.00726861       0.00199401
P       -5.01464669       0.00918530      13.19631972       0.00000000 NULL      -0.00787437       0.00192953      -0.00199401
P        1.09634203      -4.89334241      13.19631972       0.00000000 NULL       0.00359110      -0.00726862      -0.00199401
P       -1.46838894       4.42958685       1.07689120       0.00000000 NULL      -0.00787437       0.00192953       0.00199401
P        7.09520508       2.03456087       5.53361710       0.00000000 NULL      -0.00210318      -0.00370985       0.00247417
P       -3.09862855       2.94716191       8.73959318       0.00000000 NULL      -0.00316553      -0.00285758      -0.00247417
P        3.54894682      -2.38584131       8.73959318       0.00000000 NULL      -0.00210318      -0.00370985      -0.00247417
P        0.44762971       7.36756409       5.53361710       0.00000000 NULL      -0.00316553      -0.00285758       0.00247417
P       -1.21738125       4.93201064       4.49626621       0.00000000 NULL      -0.00868099       0.00228970       0.00228830
P        1.53238288      -4.53936189       9.77694461       0.00000000 NULL       0.00411761      -0.00797794      -0.00228830
P       -4.76363939       0.51160861       9.77694461       0.00000000 NULL      -0.00868099       0.00228970      -0.00228830
P        5.07864103      -0.11895985       4.49626621       0.00000000 NULL       0.00411761      -0.00797794       0.00228830
P        0.12415458       4.97240697       7.83226226       0.00000000 NULL      -0.00771341       0.00324248      -0.00035880
P       -1.23561755       6.06328110       6.44094788       0.00000000 NULL       0.00483790      -0.00682679       0.00035880
P        6.18694974       0.10854226       6.44094788       0.00000000 NULL      -0.00771341       0.00324248       0.00035880
P        4.82717778       1.19941660       7.83226226       0.00000000 NULL       0.00483790      -0.00682679      -0.00035880
P        2.60773839      -2.76221697      10.78234165       0.00000000 NULL       0.00202446       0.00093115      -0.00339113
P        0.28430035       6.36713613       3.49086879       0.00000000 NULL       0.00047002       0.00217820       0.00339113
P        6.15399642       1.65818492       3.49086879       0.00000000 NULL       0.00202446       0.00093115       0.00339113
P       -3.26195767       1.94673424      10.78234165       0.00000000 NULL       0.00047002       0.00217820      -0.00339113
P        3.73707051       2.86695722      13.13834037       0.00000000 NULL      -0.00454291      -0.00158573       0.00182027
P        5.53465618       8.69022724       1.13486913       0.00000000 NULL      -0.00056292      -0.00477868      -0.00182027
P        7.28332826       7.28735877       1.13486913       0.00000000 NULL      -0.00454291      -0.00158573      -0.00182027
P        1.98839842       4.26982569      13.13834037       0.00000000 NULL      -0.00056292      -0.00477867       0.00182027
P        3.02680882       1.19117131      10.39456084       0.00000000 NULL       0.00446857       0.00254549      -0.00051394
P        6.56929208      -1.65077913       3.87864951       0.00000000 NULL       0.00151596       0.00491421       0.00051394
P       -3.03598680       6.05503545       3.87864951       0.00000000 NULL       0.00446857       0.00254549       0.00051394
P        0.50649721       3.21308594      10.39456084       0.00000000 NULL       0.00151596       0.00491421      -0.00051394
P        2.24829532       4.54929965      10.76722309       0.00000000 NULL       0.00035804      -0.00046134      -0.00715949
P        0.40728013      -1.23913141       3.50598738       0.00000000 NULL      -0.00052800       0.00024948       0.00715949
P       -1.29796355       0.12889671       3.50598738       0.00000000 NULL       0.00035804      -0.00046134       0.00715949
P        3.95353900       3.18127153      10.76722309       0.00000000 NULL      -0.00052800       0.00024948      -0.00715949
P        1.45357566      -0.34822580       5.28416978       0.00000000 NULL       0.00037731      -0.00283784       0.00496129
P        2.89112500       5.76388446       8.98904045       0.00000000 NULL      -0.00285214      -0.00024703      -0.00496129
P        4.99983432       4.07217688       8.98904045       0.00000000 NULL       0.00037731      -0.00283784      -0.00496129
P       -0.65513366       1.34348177       5.28416978       0.00000000 NULL      -0.00285213      -0.00024703       0.00496129
P        0.21642790       3.01315199      12.66844534       0.00000000 NULL      -0.00429395       0.00385063      -0.00118218
P        6.44078826       5.28505153       1.60476454       0.00000000 NULL       0.00469011      -0.00335682       0.00118218
P        3.76268571       7.43355361       1.60476454       0.00000000 NULL      -0.00429395       0.00385063       0.00118218
P        2.89453045       0.86464991      12.66844534       0.00000000 NULL       0.00469011      -0.00335682      -0.00118218
P       -1.95948803      -0.65921980      12.34657514       0.00000000 NULL       0.00014397       0.00429344      -0.00124852
P        3.32761784       2.36459023       1.92663553       0.00000000 NULL       0.00416007       0.00107153       0.00124852
P        1.58676982       3.76118186       1.92663553       0.00000000 NULL       0.00014397       0.00429344       0.00124852
P       -0.21864001      -2.05581143      12.34657514       0.00000000 NULL       0.00416007       0.00107153      -0.00124852
P       -0.21140988      -2.03314830       9.11168781       0.00000000 NULL       0.00325848       0.00171706      -0.00298990
P        1.60732632       3.77315470       5.16152286       0.00000000 NULL       0.00096964       0.00355327       0.00298990
P        3.33484834       2.38725383       5.16152286       0.00000000 NULL       0.00325848       0.00171706       0.00298990
P       -1.93893190      -0.64724743       9.11168781       0.00000000 NULL       0.00096963       0.00355327      -0.00298990
P       -1.36241399       0.77509130      10.74581454       0.00000000 NULL       0.00476020      -0.00117599       0.00001496
P        4.59833339       3.25847425       3.52739585       0.00000000 NULL      -0.00218021       0.00439194      -0.00001496
P        2.18384405       5.19549319       3.52739585       0.00000000 NULL       0.00476020      -0.00117599      -0.00001496
P        1.05207535      -1.16192765      10.74581454       0.00000000 NULL      -0.00218021       0.00439194       0.00001496
P        6.59281176      -2.37276762      10.60824972       0.00000000 NULL       0.00745873      -0.00111371      -0.00506542
P        2.31689768       1.05757454       3.66496073       0.00000000 NULL      -0.00270456       0.00703977       0.00506542
P        0.53001611       2.49109648       3.66496073       0.00000000 NULL       0.00745873      -0.00111371       0.00506542
P       -3.74589716       5.92143965      10.60824972       0.00000000 NULL      -0.00270456       0.00703977      -0.00506542
