24
Lattice="8.853484492572647 -8.0245501776633e-16 -3.663791574253213e-16 7.199713960894297e-16 8.792541222794291 3.681265320219703e-16 -4.426742246286323 -4.396270611397146 7.2811216873855304" Properties=species:S:1:pos:R:3:initial_magmoms:R:1:castep_labels:S:1:forces:R:3 n_minim_iter=11 energy=-125.85212818657206 stress="-8.41065410096861e-06 -2.727843999411392e-13 1.3520443285166908e-13 -2.727843999411392e-13 1.3453154459300488e-06 -1.392596448483625e-12 1.3520443285166908e-13 -1.392596448483625e-12 -4.364542132486255e-05" free_energy=-125.85212818657206 pbc="T T T"
P        6.18103470       0.43772959       3.52067516       0.00000000 NULL       0.00591829      -0.00581546       0.00043144
P        1.75429246       3.95854014       3.76044798       0.00000000 NULL       0.00591829       0.00581546      -0.00043144
P       -1.75429245       4.83400021       3.76044798       0.00000000 NULL      -0.00591829      -0.00581546      -0.00043144
P        2.67244980      -0.43773047       3.52067516       0.00000000 NULL      -0.00591829       0.00581546       0.00043144
P        1.79297913       2.68203114       0.84896752       0.00000000 NULL      -0.00198904      -0.00448995      -0.00045413
P       -2.63376312       1.71423859       6.43215562       0.00000000 NULL      -0.00198904       0.00448995       0.00045413
P        2.63376313      -1.71423947       6.43215562       0.00000000 NULL       0.00198904      -0.00448995       0.00045413
P        7.06050537       6.11050920       0.84896752       0.00000000 NULL       0.00198904       0.00448995      -0.00045413
P       -0.99943232      -3.85787661       5.77959404       0.00000000 NULL      -0.00343474      -0.00438869       0.00172493
P        3.42730992       8.25414635       1.50152910       0.00000000 NULL      -0.00343474       0.00438869      -0.00172493
P        5.42617458       0.53839400       1.50152910       0.00000000 NULL       0.00343474      -0.00438868      -0.00172493
P        0.99943233       3.85787573       5.77959404       0.00000000 NULL       0.00343474       0.00438869       0.00172493
P        5.03624689       1.99021076       4.59721301       0.00000000 NULL       0.00009258       0.00121022       0.00200559
P        0.60950464       2.40605898       2.68391012       0.00000000 NULL       0.00009258      -0.00121022      -0.00200559
P       -0.60950464       6.38648137       2.68391012       0.00000000 NULL      -0.00009258       0.00121022      -0.00200559
P        3.81723761      -1.99021163       4.59721301       0.00000000 NULL      -0.00009258      -0.00121022       0.00200559
P        1.09431419       7.72736153       0.44864030       0.00000000 NULL       0.00313114      -0.00492247       0.00322949
P       -3.33242805      -3.33109180       6.83248284       0.00000000 NULL       0.00313114       0.00492247      -0.00322949
P        3.33242806       3.33109092       6.83248284       0.00000000 NULL      -0.00313115      -0.00492247      -0.00322949
P        7.75917031       1.06517882       0.44864030       0.00000000 NULL      -0.00313114       0.00492247       0.00322949
P        1.51106399       5.86792067       2.62407402       0.00000000 NULL       0.00257184       0.00273388       0.00047370
P        5.93780624      -1.47165094       4.65704912       0.00000000 NULL       0.00257184      -0.00273388      -0.00047370
P        2.91567826       1.47165006       4.65704912       0.00000000 NULL      -0.00257184       0.00273388      -0.00047370
P       -1.51106399       2.92461967       2.62407402       0.00000000 NULL      -0.00257184      -0.00273388       0.00047370
