39
Lattice="8.658121925845348 4.925150995511434e-14 -7.3523833183381e-43 -4.329060962922718 7.498153536845103 -4.615537577423294e-41 8.84063627752434e-43 1.2041372790487607e-40 10.953896959278389" Properties=species:S:1:pos:R:3:initial_magmoms:R:1:castep_labels:S:1:forces:R:3 n_minim_iter=13 energy=-210.60565842235164 stress="-0.00012874827610188323 3.5927592690067018e-12 6.998920620041775e-12 3.5927592690067018e-12 -0.00012874827877064988 6.413810847697644e-12 6.998920620041775e-12 6.413810847697644e-12 -2.337988205353091e-05" free_energy=-210.60565842235164 pbc="T T T"
P        1.25719180       3.75469643       9.16253311       0.00000000 NULL       0.00114438      -0.00448223      -0.00298029
P       -1.70599437       4.53204529       1.85993514       0.00000000 NULL      -0.00445391       0.00125005      -0.00298029
P        0.44880257       6.70956535       5.51123412       0.00000000 NULL       0.00330953       0.00323217      -0.00298029
P       -0.23454226       1.89108040       8.99853634       0.00000000 NULL      -0.00377038       0.00188839      -0.00124412
P       -2.57406616       6.75573289       1.69593837       0.00000000 NULL       0.00352058       0.00232105      -0.00124412
P        2.80860842       6.34949378       5.34723735       0.00000000 NULL       0.00024980      -0.00420943      -0.00124412
P       -2.64579545       7.28796817       7.14496621       0.00000000 NULL      -0.00008889       0.00350679       0.00251500
P        3.30540234       6.14549552      10.79626520       0.00000000 NULL       0.00308142      -0.00167641       0.00251500
P       -0.65960689       1.56284338       3.49366723       0.00000000 NULL      -0.00299253      -0.00183038       0.00251500
P        0.94320500       6.73833837       2.46103373       0.00000000 NULL       0.00280754      -0.00392327       0.00512202
P        1.03490874       3.31214486       6.11233272       0.00000000 NULL      -0.00480142      -0.00046977       0.00512202
P       -1.97811374       4.94582384       9.76363170       0.00000000 NULL       0.00199388       0.00439304       0.00512202
P        0.82903494       3.24228400       3.88070084       0.00000000 NULL      -0.00014759       0.00220459       0.00196761
P       -1.93567812       5.15904621       7.53199983       0.00000000 NULL       0.00198303      -0.00097448       0.00196761
P        1.10664318       6.59497686       0.22940186       0.00000000 NULL      -0.00183544      -0.00123011       0.00196761
P        6.38947804       2.59973918       9.49567035       0.00000000 NULL      -0.00549366      -0.00232336       0.00299518
P        3.38576212       0.66483364       2.19307238       0.00000000 NULL       0.00073474       0.00591933       0.00299518
P        3.21194273       4.23358070       5.84437136       0.00000000 NULL       0.00475892      -0.00359597       0.00299518
P        3.95362914       4.09576739       0.50504576       0.00000000 NULL       0.00262115      -0.00027321      -0.00301258
P        5.89928500       2.02632656       4.15634474       0.00000000 NULL      -0.00154718      -0.00213338      -0.00301258
P        3.13426874       1.37605958       7.80764373       0.00000000 NULL      -0.00107397       0.00240658      -0.00301259
P        5.96591237       7.08108228      10.45329391       0.00000000 NULL       0.00109461       0.00043159      -0.00251817
P        7.47850192      -1.20901928       3.15069594       0.00000000 NULL      -0.00017354      -0.00116376      -0.00251817
P       -0.45723140       1.62609053       6.80199492       0.00000000 NULL      -0.00092108       0.00073217      -0.00251817
P        2.29585979       2.74978312      10.86599173       0.00000000 NULL       0.00428370       0.00444218      -0.00001599
P        5.56251311       4.13498907       3.56339376       0.00000000 NULL       0.00170519      -0.00593089      -0.00001599
P        5.12880999       0.61338133       7.21469274       0.00000000 NULL      -0.00598890       0.00148870      -0.00001599
P        3.50327325       4.07204108       2.69816534       0.00000000 NULL      -0.00533355      -0.00038193      -0.00383113
P        6.10391536       2.42820936       6.34946433       0.00000000 NULL       0.00233602       0.00480995      -0.00383113
P        3.37999428       0.99790309      10.00076331       0.00000000 NULL       0.00299753      -0.00442803      -0.00383113
P       -1.93164387       6.99581376       5.07169124       0.00000000 NULL      -0.00208244       0.00407276       0.00428013
P        2.69531341       5.67309931       8.72299023       0.00000000 NULL       0.00456834      -0.00023293       0.00428013
P       -0.76366954       2.32739399       1.42039225       0.00000000 NULL      -0.00248590      -0.00383983       0.00428013
P        2.92480057       1.42674834       4.22657368       0.00000000 NULL      -0.00175845      -0.00006312      -0.00305817
P        4.10226098       4.25182777       7.87787266       0.00000000 NULL       0.00082456       0.00155442      -0.00305817
P        5.96012134       1.81957742       0.57527469       0.00000000 NULL       0.00093388      -0.00149130      -0.00305817
P        0.22873676       5.17315936       7.09405128       0.00000000 NULL       0.00278827      -0.00618015      -0.00021949
P        0.03665808       4.71348201      -0.20854669       0.00000000 NULL      -0.00674630       0.00067536      -0.00021949
P       -0.26539484       5.10966570       3.44275230       0.00000000 NULL       0.00395803       0.00550478      -0.00021949
