104
Lattice="14.752975 0.0 0.0 0.0 12.828814 0.0 0.0 0.0 12.8717" Properties=species:S:1:pos:R:3:forces:R:3 energy=-571.0284805254081 hash=65caec19db865b84795faa891699f15e virial="26.5960839552 0.0 0.0 0.0 -8.69836786862 0.0 0.0 0.0 9.45073549841" config_type=rss_3c pressure=0.0037420489448516097 uploaded="2020-04-10 10:56:53.323000" hash_structure=f5bb3ec5005e822dba26f0166ed6c15a filename=rss_3c/rss_3c_mbd2.xyz username=gabor stress="-0.012419582943821991 1.991577268911347e-12 -2.995916680788518e-12 1.991577268911347e-12 0.00351429262552176 1.2591376387560026e-07 -2.995916680788518e-12 1.2591376387560026e-07 -0.004761791135708099" volume=2436.138773885412 n_atoms=104 free_energy=-570.88456 modified="2020-04-10 10:56:53.323000" formula=P104 miguel_caro=T pbc="T T T"
P        5.55284000       1.54336000       4.79899000      -0.05948721       0.27730722      -0.15617519
P        3.40593000       1.92310000       4.54218000       0.05317501       0.35692403      -0.27864876
P        2.83521000      12.72241000       5.14557000      -0.61063607      -0.16291221      -0.11047227
P        0.61386000       0.19271000       4.91270000      -0.22135108      -0.40862316       0.14291464
P        6.32144000       3.56955000       4.26074000      -0.18005430      -0.28628084      -0.44764806
P        4.67563000       3.69629000       7.41183000       0.07053380       0.17600716      -0.01394477
P        2.84625000       3.29862000       6.23727000      -0.42941763      -0.37034077      -0.04225570
P        1.91349000       1.94200000       7.76613000       0.00026996       0.06934149      -0.07680819
P        0.02843000       1.52844000       6.62131000      -0.02605369       0.00611711       0.36925443
P        5.98915000       4.94149000       6.02491000      -0.01735020      -0.26706245       0.21092513
P        5.84247000       1.90315000       6.94732000       0.42302540      -0.18883801       0.31959419
P        2.80712000      12.81238000       7.35081000      -0.13559708      -0.14976206       0.24453297
P        4.90134000       0.16568000       7.93271000       0.34460433      -0.19396603       0.57397950
P        9.20015000       4.87104000       4.79899000       0.05941955      -0.27733666      -0.15620661
P       11.34706000       4.49130000       4.54218000      -0.05319952      -0.35686346      -0.27868764
P       11.91778000       6.52081000       5.14557000       0.61052478       0.16287619      -0.11049351
P       14.13912000       6.22169000       4.91270000       0.22144177       0.40869264       0.14293951
P        8.43153000       2.84485000       4.26074000       0.18012718       0.28633531      -0.44762401
P       10.07734000       2.71812000       7.41183000      -0.07034938      -0.17616188      -0.01394321
P       11.90673000       3.11579000       6.23727000       0.42938767       0.37025056      -0.04218383
P       12.83948000       4.47241000       7.76613000      -0.00010787      -0.06935116      -0.07681897
P       14.72456000       4.88597000       6.62131000       0.02585890      -0.00618645       0.36932674
P        8.76383000       1.47291000       6.02491000       0.01730531       0.26711292       0.21092829
P        8.91052000       4.51125000       6.94732000      -0.42316173       0.18896561       0.31951173
P       11.94585000       6.43084000       7.35081000       0.13572861       0.14978191       0.24449840
P        9.85164000       6.24872000       7.93271000      -0.34466714       0.19402143       0.57400363
P        5.55284000      11.28544000       1.63686000      -0.05949123      -0.27718539       0.15618204
P        3.40593000      10.90571000       1.89367000       0.05315905      -0.35693961       0.27864744
P        2.83521000       0.10640000       1.29028000      -0.61062474       0.16291734       0.11046599
P        0.61386000      12.63610000       1.52315000      -0.22134509       0.40870374      -0.14291073
P        6.32144000       9.25926000       2.17511000      -0.18003674       0.28620788       0.44765700
P        4.67563000       9.13252000      11.89572000       0.07053426      -0.17601228       0.01393893
P        2.84625000       9.53019000       0.19858000      -0.42942819       0.37033934       0.04225332
P        1.91349000      10.88681000      11.54142000       0.00026108      -0.06932196       0.07681862
P        0.02843000      11.30038000      12.68624000      -0.02604655      -0.00620759      -0.36926497
P        5.98915000       7.88732000       0.41094000      -0.01735264       0.26706047      -0.21093002
P        5.84247000      10.92566000      12.36023000       0.42302441       0.18882245      -0.31961207
P        2.80712000       0.01643000      11.95674000      -0.13559178       0.14976358      -0.24453288
P        4.90134000      12.66313000      11.37484000       0.34460321       0.19396914      -0.57396717
P        9.20015000       7.95776000       1.63686000       0.05942315       0.27746290       0.15619506
P       11.34706000       8.33751000       1.89367000      -0.05321464       0.35687049       0.27866709
P       11.91778000       6.30800000       1.29028000       0.61053558      -0.16285865       0.11048393
P       14.13912000       6.60712000       1.52315000       0.22143451      -0.40868572      -0.14294602
P        8.43153000       9.98396000       2.17511000       0.18014542      -0.28641015       0.44762004
P       10.07734000      10.11070000      11.89572000      -0.07037373       0.17605036       0.01394332
P       11.90673000       9.71303000       0.19858000       0.42938086      -0.37032244       0.04221615
P       12.83948000       8.35641000      11.54142000      -0.00012248       0.06925187       0.07684980
P       14.72456000       7.94284000      12.68624000       0.02584883       0.00619969      -0.36932875
P        8.76383000      11.35590000       0.41094000       0.01727854      -0.26708997      -0.21090603
P        8.91052000       8.31756000      12.36023000      -0.42312339      -0.18891978      -0.31951272
P       11.94585000       6.39797000      11.95674000       0.13575301      -0.14969882      -0.24451995
P        9.85164000       6.58009000      11.37484000      -0.34466433      -0.19401529      -0.57400584
P        9.20015000      11.28544000       8.07271000       0.05943156      -0.27721666       0.15620745
P       11.34706000      10.90571000       8.32952000      -0.05319036      -0.35695933       0.27867298
P       11.91778000       0.10640000       7.72613000       0.61052441       0.16293444       0.11046614
P       14.13912000      12.63610000       7.95900000       0.22144097       0.40869838      -0.14295144
P        8.43153000       9.25926000       8.61096000       0.18011039       0.28626338       0.44763752
P       10.07734000       9.13252000       5.45987000      -0.07037409      -0.17606034       0.01393707
P       11.90673000       9.53019000       6.63443000       0.42938922       0.37030045       0.04221158
P       12.83948000      10.88681000       5.10557000      -0.00011092      -0.06929856       0.07684104
P       14.72456000      11.30038000       6.25039000       0.02584858      -0.00621979      -0.36930976
P        8.76383000       7.88732000       6.84679000       0.01729776       0.26705263      -0.21089881
P        8.91052000      10.92566000       5.92438000      -0.42312638       0.18888187      -0.31955053
P       11.94585000       0.01643000       5.52089000       0.13574701       0.14975920      -0.24450725
P        9.85164000      12.66313000       4.93899000      -0.34465323       0.19397870      -0.57400082
P        5.55284000       7.95776000       8.07271000      -0.05948282       0.27743163       0.15616965
P        3.40593000       8.33751000       8.32952000       0.05318333       0.35685077       0.27864155
P        2.83521000       6.30800000       7.72613000      -0.61063591      -0.16284154       0.11048378
P        0.61386000       6.60712000       7.95900000      -0.22133863      -0.40869107      -0.14290530
P        6.32144000       9.98396000       8.61096000      -0.18007176      -0.28635465       0.44763952
P        4.67563000      10.11070000       5.45987000       0.07053391       0.17600230       0.01394518
P        2.84625000       9.71303000       6.63443000      -0.42941984      -0.37036133       0.04225789
P        1.91349000       8.35641000       5.10557000       0.00027264       0.06927528       0.07682738
P        0.02843000       7.94284000       6.25039000      -0.02604680       0.00618750      -0.36928396
P        5.98915000      11.35590000       6.84679000      -0.01733342      -0.26709781      -0.21093724
P        5.84247000       8.31756000       5.92438000       0.42302143      -0.18886036      -0.31957427
P        2.80712000       6.39797000       5.52089000      -0.13559777      -0.14970320      -0.24454558
P        4.90134000       6.58009000       4.93899000       0.34461431      -0.19400574      -0.57397219
P        9.20015000       1.54336000      11.23484000       0.05942754       0.27733849      -0.15620061
P       11.34706000       1.92310000      10.97803000      -0.05320632       0.35694376      -0.27867430
P       11.91778000      12.72241000      11.58142000       0.61053574      -0.16292932      -0.11047242
P       14.13912000       0.19271000      11.34855000       0.22144696      -0.40861781       0.14295535
P        8.43153000       3.56955000      10.69659000       0.18012795      -0.28633634      -0.44762858
P       10.07734000       3.69629000       0.97598000      -0.07037362       0.17605521      -0.01394291
P       11.90673000       3.29862000      12.67312000       0.42937866      -0.37030188      -0.04221396
P       12.83948000       1.94200000       1.33028000      -0.00011980       0.06931809      -0.07683061
P       14.72456000       1.52844000       0.18546000       0.02585572       0.00612930       0.36929923
P        8.76383000       4.94149000      12.46076000       0.01729532      -0.26705461       0.21089392
P        8.91052000       1.90315000       0.51147000      -0.42312737      -0.18889743       0.31953264
P       11.94585000      12.81238000       0.91496000       0.13575232      -0.14975768       0.24450734
P        9.85164000       0.16568000       1.49686000      -0.34465435      -0.19397559       0.57401314
P        5.55284000       4.87104000      11.23484000      -0.05947921      -0.27730539      -0.15618120
P        3.40593000       4.49130000      10.97803000       0.05316821      -0.35684374      -0.27866210
P        2.83521000       6.52081000      11.58142000      -0.61062511       0.16285908      -0.11049336
P        0.61386000       6.22169000      11.34855000      -0.22134589       0.40869800       0.14289879
P        6.32144000       2.84485000      10.69659000      -0.18005353       0.28627981      -0.44764349
P        4.67563000       2.71812000       0.97598000       0.07050956      -0.17611382      -0.01394507
P        2.84625000       3.11579000      12.67312000      -0.42942664       0.37028945      -0.04222557
P        1.91349000       4.47241000       1.33028000       0.00025803      -0.06937456      -0.07679655
P        0.02843000       4.88597000       0.18546000      -0.02605687      -0.00617426       0.36928194
P        5.98915000       1.47291000      12.46076000      -0.01736019       0.26712076       0.21095950
P        5.84247000       4.51125000       0.51147000       0.42305976       0.18890618       0.31957328
P        2.80712000       6.43084000       0.91496000      -0.13557338       0.14978629       0.24452403
P        4.90134000       6.24872000       1.49686000       0.34461712       0.19401187       0.57396998
104
Lattice="14.889483 0.0 0.0 0.0 12.391801 -1e-06 0.0 -2e-06 13.347013" Properties=species:S:1:pos:R:3:forces:R:3 energy=-570.4980469639992 hash=2a03cfe65dbe78e74669f4a756e0817d virial="26.3757318784 0.0 0.0 0.0 11.6352465281 -0.0 0.0 -0.0 5.35105200861" config_type=rss_3c pressure=0.005869352902749718 uploaded="2020-04-10 10:56:53.293000" hash_structure=389247ae759652655bed27dccf1a710e filename=rss_3c/rss_3c_mbd2.xyz username=gabor stress="-0.009503797458279799 3.756027302613134e-09 -3.167586467363142e-09 3.756027302613134e-09 -0.007010673675961157 -9.171143495345955e-08 -3.167586467363142e-09 -9.171143495345955e-08 -0.0007541518194311578" volume=2462.6241389572056 n_atoms=104 free_energy=-569.77517532 modified="2020-04-10 10:56:53.293000" formula=P104 miguel_caro=T pbc="T T T"
P       13.33855000       1.06165000      11.95313000      -0.27664313       0.22466090       0.17727582
P       11.16165000       1.34697000      11.59177000      -0.33135365       0.25357463      -0.04458821
P       10.27593000      11.89413000      12.35433000      -0.17749909       0.31377031      -0.30429884
P        8.16584000       0.09854000      11.85261000      -0.07275748      -0.07685408       0.46009075
P       13.77690000       3.12620000      11.20159000      -0.10958379       0.05330093      -0.53141388
P       12.15737000       3.40535000       0.98354000       0.10688612      -0.05845432       0.19878011
P       10.45252000       2.90202000      13.05469000      -0.08578496      -0.26857918      -0.33980432
P        9.40458000       1.86157000       1.37042000      -0.06538776      -0.12390485      -0.07344542
P        7.55619000       1.51609000       0.15572000       0.13560327      -0.02383113       0.32303294
P       13.37872000       4.56250000      12.87660000       0.02516906      -0.05564761      -0.17537599
P       13.41294000       1.59319000       0.76070000       0.57363864       0.12111185       0.12647794
P       10.24094000      12.20672000       1.19632000      -0.28960163      -0.11396992       0.15673166
P       12.35360000      12.32120000       1.74348000       0.32710252      -0.32692748       0.32172455
P        1.55096000       5.13427000      11.95313000       0.27684905      -0.22466399       0.17725405
P        3.72788000       4.84895000      11.59177000       0.33121633      -0.25349340      -0.04455814
P        4.61360000       6.69360000      12.35433000       0.17748028      -0.31386249      -0.30432801
P        6.72369000       6.09738000      11.85261000       0.07274500       0.07692727       0.46010029
P        1.11262000       3.06972000      11.20159000       0.10958941      -0.05331627      -0.53141289
P        2.73215000       2.79057000       0.98354000      -0.10679004       0.05852851       0.19875462
P        4.43701000       3.29390000      13.05469000       0.08569803       0.26858063      -0.33978724
P        5.48494000       4.33435000       1.37042000       0.06547108       0.12408062      -0.07345952
P        7.33334000       4.67984000       0.15572000      -0.13567026       0.02377689       0.32308952
P        1.51081000       1.63342000      12.87660000      -0.02525610       0.05565452      -0.17539279
P        1.47659000       4.60274000       0.76070000      -0.57366272      -0.12115281       0.12649063
P        4.64859000       6.38102000       1.19632000       0.28961683       0.11381701       0.15675261
P        2.53593000       6.26653000       1.74348000      -0.32709083       0.32693930       0.32171460
P        5.89381000       5.13427000       8.06739000      -0.27666365      -0.22464026      -0.17724450
P        3.71691000       4.84895000       8.42875000      -0.33138260      -0.25350846       0.04456114
P        2.83119000       6.69360000       7.66619000      -0.17748621      -0.31385156       0.30434876
P        0.72110000       6.09738000       8.16790000      -0.07276028       0.07695402      -0.45994766
P        6.33215000       3.06972000       8.81893000      -0.10948472      -0.05329599       0.53142103
P        4.71263000       2.79057000       5.68996000       0.10691828       0.05852150      -0.19869181
P        3.00778000       3.29390000       6.96583000      -0.08574756       0.26859482       0.33978244
P        1.95984000       4.33435000       5.30309000      -0.06537354       0.12407425       0.07343389
P        0.11145000       4.67984000       6.51779000       0.13558509       0.02375266      -0.32311834
P        5.93398000       1.63342000       7.14392000       0.02513255       0.05568380       0.17533627
P        5.96820000       4.60274000       5.91281000       0.57357467      -0.12118860      -0.12655726
P        2.79620000       6.38102000       5.47719000      -0.28970547       0.11379478      -0.15676546
P        4.90885000       6.26653000       4.93003000       0.32719137       0.32686009      -0.32176504
P        8.99570000       1.06165000       8.06739000       0.27687048       0.22469806      -0.17725316
P       11.17262000       1.34698000       8.42875000       0.33122130       0.25344008       0.04459744
P       12.05834000      11.89413000       7.66619000       0.17745334       0.31383038       0.30432317
P       14.16843000       0.09854000       8.16790000       0.07275918      -0.07684122      -0.45994266
P        8.55736000       3.12620000       8.81893000       0.10953457       0.05332925       0.53142297
P       10.17689000       3.40535000       5.68996000      -0.10675564      -0.05846507      -0.19866823
P       11.88175000       2.90202000       6.96583000       0.08566580      -0.26848750       0.33975037
P       12.92968000       1.86157000       5.30309000       0.06550640      -0.12393117       0.07340862
P       14.77808000       1.51609000       6.51779000      -0.13564230      -0.02380454      -0.32311637
P        8.95555000       4.56250000       7.14392000      -0.02520753      -0.05563430       0.17538915
P        8.92133000       1.59319000       5.91281000      -0.57370265       0.12107346      -0.12651722
P       12.09333000      12.20672000       5.47719000       0.28957954      -0.11399840      -0.15675772
P        9.98067000      12.32120000       4.93003000      -0.32709271      -0.32692093      -0.32176916
P        1.55096000      11.33017000       1.39388000       0.27684457      -0.22467445      -0.17726428
P        3.72788000      11.04485000       1.75524000       0.33121211      -0.25345063       0.04459044
P        4.61360000       0.49770000       0.99268000       0.17745502      -0.31384908       0.30434000
P        6.72369000      12.29329000       1.49440000       0.07274439       0.07684609      -0.46009309
P        1.11262000       9.26562000       2.14542000       0.10960242      -0.05327640       0.53145003
P        2.73215000       8.98647000      12.36347000      -0.10670677       0.05849663      -0.19872870
P        4.43701000       9.48980000       0.29233000       0.08572082       0.26859927       0.33966487
P        5.48494000      10.53025000      11.97659000       0.06544337       0.12405043       0.07351567
P        7.33334000      10.87574000      13.19129000      -0.13567326       0.02378316      -0.32308292
P        1.51081000       7.82933000       0.47041000      -0.02523951       0.05553793       0.17539692
P        1.47659000      10.79863000      12.58631000      -0.57365761      -0.12100682      -0.12651704
P        4.64859000       0.18512000      12.15069000       0.28962214       0.11379322      -0.15675076
P        2.53593000       0.07063000      11.60353000      -0.32710001       0.32684416      -0.32171184
P       13.33855000       7.25756000       1.39388000      -0.27665309       0.22458231      -0.17728560
P       11.16165000       7.54288000       1.75524000      -0.33136116       0.25344205       0.04462297
P       10.27593000       5.69823000       0.99268000      -0.17746985       0.31382889       0.30433650
P        8.16584000       6.29444000       1.49440000      -0.07275384      -0.07682398      -0.46009244
P       13.77690000       9.32210000       2.14542000      -0.10958591       0.05336141       0.53143367
P       12.15737000       9.60125000      12.36347000       0.10683403      -0.05847077      -0.19873599
P       10.45252000       9.09792000       0.29233000      -0.08578252      -0.26851247       0.33966385
P        9.40458000       8.05747000      11.97659000      -0.06535027      -0.12396113       0.07349410
P        7.55619000       7.71199000      13.19129000       0.13559157      -0.02388296      -0.32305446
P       13.37872000      10.75840000       0.47041000       0.02516988      -0.05561869       0.17537746
P       13.41294000       7.78909000      12.58631000       0.57363622       0.12112585      -0.12648529
P       10.24094000       6.01081000      12.15069000      -0.28961828      -0.11387750      -0.15675068
P       12.35360000       6.12530000      11.60353000       0.32709070      -0.32694856      -0.32172425
P        8.99570000       7.25755000       5.27962000       0.27686224       0.22471113       0.17735071
P       11.17262000       7.54288000       4.91827000       0.33120264       0.25343659      -0.04468999
P       12.05834000       5.69823000       5.68082000       0.17746319       0.31381374      -0.30421577
P       14.16843000       6.29444000       5.17911000       0.07277709      -0.07682855       0.46003168
P        8.55736000       9.32210000       4.52808000       0.10954000       0.05332705      -0.53141644
P       10.17689000       9.60125000       7.65705000      -0.10675420      -0.05844850       0.19870021
P       11.88175000       9.09792000       6.38118000       0.08567580      -0.26847880      -0.33972819
P       12.92968000       8.05747000       8.04392000       0.06548195      -0.12390154      -0.07334518
P       14.77808000       7.71199000       6.82923000      -0.13561955      -0.02384900       0.32304103
P        8.95555000      10.75840000       6.20309000      -0.02522758      -0.05565846      -0.17535346
P        8.92133000       7.78909000       7.43421000      -0.57371127       0.12106769       0.12641021
P       12.09333000       6.01082000       7.86983000       0.28957974      -0.11402703       0.15665459
P        9.98067000       6.12530000       8.41699000      -0.32709833      -0.32694284       0.32172788
P        5.89381000      11.33017000       5.27962000      -0.27665486      -0.22465415       0.17733943
P        3.71691000      11.04485000       4.91827000      -0.33137279      -0.25350105      -0.04465672
P        2.83119000       0.49770000       5.68082000      -0.17747194      -0.31383677      -0.30423475
P        0.72110000      12.29329000       5.17911000      -0.07278695       0.07684640       0.46002179
P        6.33215000       9.26562000       4.52808000      -0.10949132      -0.05329670      -0.53141743
P        4.71263000       8.98647000       7.65705000       0.10691333       0.05850408       0.19872352
P        3.00778000       9.48980000       6.38118000      -0.08575892       0.26859012      -0.33976016
P        1.95984000      10.53025000       8.04392000      -0.06534940       0.12406631      -0.07337831
P        0.11145000      10.87574000       6.82923000       0.13559058       0.02379048       0.32297687
P        5.93398000       7.82932000       6.20309000       0.02515339       0.05571301      -0.17530182
P        5.96820000      10.79864000       7.43421000       0.57358134      -0.12117307       0.12645279
P        2.79620000       0.18512000       7.86983000      -0.28970932       0.11380901       0.15666951
P        4.90885000       0.07063000       8.41699000       0.32719808       0.32687791       0.32172342
104
Lattice="12.943911 0.24864 -0.016578 0.24758 13.078507 -0.10008 -0.023239 -0.133746 16.279084" Properties=species:S:1:pos:R:3:forces:R:3 energy=-568.2248707162009 hash=e4724269cb8291177014383e86479694 virial="9.43688046502 -2.29643045408 -1.48755793306 -2.29643045408 17.2412984863 -0.689551531013 -1.48755793306 -0.689551531013 -1.39997563866" config_type=rss_3c pressure=0.0030588429534144515 uploaded="2020-04-10 10:56:53.299000" hash_structure=2f85a93544bd858272d2942ccbbe2898 filename=rss_3c/rss_3c_mbd2.xyz username=gabor stress="-0.002263851671228022 0.0001874238226962364 0.0003073341441318347 0.0001874238226962364 -0.004822324909381135 0.0005568577701959806 0.0003073341441318347 0.0005568577701959806 -0.00539085675421238" volume=2754.658509512892 n_atoms=104 free_energy=-568.50559371 modified="2020-04-10 10:56:53.299000" formula=P104 miguel_caro=T pbc="T T T"
P       11.56466000      11.71978000       2.43582000      -0.20492663       0.09008190      -0.52149282
P       11.51399000      10.28244000       4.11301000      -0.15815871      -0.42719598      -0.07970687
P       11.50866000      11.84246000       5.67230000      -0.10988300      -0.11865819       0.57071395
P       11.32961000      10.55544000       7.56835000      -0.21330920       0.24213788       0.14902916
P       11.36653000      10.43519000       0.54418000      -0.07499085       0.19005471      -0.17700641
P        8.41953000      10.30399000       2.34860000       0.67338859      -0.17881793       0.08992636
P        9.47892000       9.35829000       4.07124000      -0.28765206      -0.00745096       0.00621099
P        8.37528000      10.36833000       5.72777000       0.72104916      -0.23328683       0.05509413
P        9.52161000       9.27819000       7.32820000      -0.58983845      -0.35197761      -0.10219396
P        9.55102000       9.18788000       0.76564000      -0.58928383      -0.70151082       0.17843124
P        9.42757000      12.27072000       2.11207000       0.00034750       0.33773707       0.17840420
P        9.36073000      12.35953000       5.93696000      -0.07564890       0.27831241      -0.21772038
P        8.55582000      12.90350000       3.99024000      -0.51393435       0.41297828       0.04603822
P        1.67220000       1.41810000       2.34905000       0.10927832       0.12518215      -0.57647233
P        1.66806000       2.97743000       3.90906000       0.14890330       0.42148064       0.08650559
P        1.61706000       1.53883000       5.58569000       0.20403242      -0.08168485       0.52515801
P        1.81424000       2.82386000       7.47870000       0.05250266      -0.20029752       0.16360410
P        1.84999000       2.70680000       0.45327000       0.20860445      -0.23843606      -0.14239809
P        4.80419000       2.89448000       2.29303000      -0.71395892       0.22991695      -0.05021572
P        3.70225000       3.90173000       3.95210000       0.29146547       0.01080246      -0.00916655
P        4.76254000       2.95520000       5.67444000      -0.67952088       0.18228701      -0.09568173
P        3.62796000       4.07029000       7.25545000       0.60869665       0.72528780      -0.16748924
P        3.65850000       3.98484000       0.69258000       0.58529546       0.33593310       0.10689723
P        3.81996000       0.90254000       2.08223000       0.07771967      -0.28045557       0.22360860
P        3.75452000       0.98849000       5.90958000      -0.00425388      -0.33975162      -0.18506940
P        4.62487000       0.35887000       4.02936000       0.51757111      -0.42266855      -0.03750846
P       11.41600000       1.89460000      13.69041000      -0.23848446       0.34388812       0.47629139
P        9.95914000       2.00931000      12.04039000      -0.57551557       0.08394294      -0.00994588
P       11.45166000       2.02195000      10.44108000      -0.28714292       0.25571881      -0.60884316
P       10.03836000       2.21202000       8.63452000       0.43155987       0.17583679      -0.21487964
P       10.04498000       2.01667000      15.52042000       0.16916563       0.05704960       0.50654716
P        9.97948000       5.06385000      13.83963000      -0.15649141      -0.69569235       0.02517457
P        9.02188000       4.06409000      12.10844000      -0.07683737      -0.03562664       0.07079141
P        9.95475000       5.17064000      10.43283000      -0.16208834      -0.54817322      -0.06054967
P        8.74879000       4.00422000       8.89693000       0.04645008       0.63561505       0.22970404
P        8.76321000       3.83317000      15.32729000       0.03610600       0.68155573      -0.24732398
P       11.95476000       4.03374000      14.03792000       0.25922821       0.08035343      -0.11960824
P       11.94706000       4.18053000      10.21152000       0.27477880       0.04965819       0.04336503
P       12.64760000       4.88573000      12.15138000       0.46957399       0.35995015       0.05839243
P        1.70872000      11.10480000      13.86087000       0.28744872      -0.24923431       0.61889458
P        3.20044000      11.11226000      12.26045000       0.56905709      -0.10202354       0.01558238
P        1.74096000      11.23315000      10.61258000       0.23500302      -0.34686311      -0.47043080
P        3.10908000      11.10916000       8.78138000      -0.16152746      -0.05906968      -0.50694596
P        3.12012000      10.91159000      15.66957000      -0.43018391      -0.16058657       0.20112377
P        3.19611000       7.95153000      13.87593000       0.16941035       0.54699536       0.04274851
P        4.12529000       9.05142000      12.19393000       0.10105810       0.05092703      -0.08094220
P        3.16668000       8.05938000      10.45833000       0.17413812       0.69428823      -0.00953602
P        4.39014000       9.29231000       8.97700000      -0.03696504      -0.68091978       0.24791894
P        4.40873000       9.11986000      15.40567000      -0.05332865      -0.64056407      -0.23040098
P        1.20749000       8.94784000      14.09532000      -0.28953749      -0.04230514      -0.05085014
P        1.19460000       9.09534000      10.26306000      -0.26254307      -0.07261110       0.12933636
P        0.50942000       8.24536000      12.15346000      -0.47367926      -0.36721464      -0.06390953
P       10.84316000       2.22637000       2.48414000      -0.32081252       0.11323906       0.26753814
P       11.28758000       3.80122000       3.98025000       0.43294830      -0.44172620       0.08187063