2
Lattice="20.0 0.0 0.0 0.0 20.0 0.0 0.0 0.0 20.0" Properties=species:S:1:pos:R:3:forces:R:3 energy=-8.066039117779448 cutoff=-1.0 nneightol=1.2 stress="-0.002452048476010392 -0.0 -0.0 -0.0 -0.0 -0.0 -0.0 -0.0 -0.0" pbc="T T T"
P       10.85000000      10.00000000      10.00000000      11.53905957       0.00000000       0.00000000
P        9.15000000      10.00000000      10.00000000     -11.53905957       0.00000000       0.00000000
2
Lattice="20.0 0.0 0.0 0.0 20.0 0.0 0.0 0.0 20.0" Properties=species:S:1:pos:R:3:forces:R:3 energy=-8.86441809946227 cutoff=-1.0 nneightol=1.2 stress="-0.0010630719684789072 -0.0 -0.0 -0.0 -0.0 -0.0 -0.0 -0.0 -0.0" pbc="T T T"
P       10.90000000      10.00000000      10.00000000       4.72477205       0.00000000       0.00000000
P        9.10000000      10.00000000      10.00000000      -4.72477205       0.00000000       0.00000000
4
Lattice="20.0 0.0 0.0 0.0 20.0 0.0 0.0 0.0 20.0" Properties=species:S:1:pos:R:3:forces:R:3 energy=-11.592159881505319 cutoff=-1.0 nneightol=1.2 stress="-0.003936068939429801 -0.0 -0.0 -0.0 -0.003936068939429732 -1.5698553568199713e-16 -0.0 -1.5698553568199713e-16 -0.0031548753931483274" pbc="T T T"
P       11.10000000      10.00000000       9.57218260      14.31300385      -0.00000000     -14.74872180
P        8.90000000      10.00000000       9.57218260     -14.31300385      -0.00000000     -14.74872180
P       10.00000000      11.10000000      10.42781740       0.00000000      14.31300385      14.74872180
P       10.00000000       8.90000000      10.42781740       0.00000000     -14.31300385      14.74872180
4
Lattice="20.0 0.0 0.0 0.0 20.0 0.0 0.0 0.0 20.0" Properties=species:S:1:pos:R:3:forces:R:3 energy=-17.18511144149847 cutoff=-1.0 nneightol=1.2 stress="0.0005389461276469463 -0.0 -0.0 -0.0 0.0005389461276469579 -1.4210854715202004e-17 -0.0 -1.4210854715202004e-17 0.0018141721674476425" pbc="T T T"
P       11.10000000      10.00000000       8.82218260      -1.95977981      -0.00000000       3.08055177
P        8.90000000      10.00000000       8.82218260       1.95977981      -0.00000000       3.08055177
P       10.00000000      11.10000000      11.17781740       0.00000000      -1.95977981      -3.08055177
P       10.00000000       8.90000000      11.17781740      -0.00000000       1.95977981      -3.08055177
4
Lattice="20.0 0.0 0.0 0.0 20.0 0.0 0.0 0.0 20.0" Properties=species:S:1:pos:R:3:forces:R:3 energy=-16.08251694454391 cutoff=-1.0 nneightol=1.2 stress="0.0013677055458575682 -2.168404344971009e-22 -0.0 -2.168404344971009e-22 0.0013677055458576868 2.0223753227632811e-16 -0.0 2.0223753227632811e-16 -7.61436798332436e-05" pbc="T T T"
P       11.10000000      10.00000000       8.37218260      -4.97345108       0.00000000      -0.09356797
P        8.90000000      10.00000000       8.37218260       4.97345108       0.00000000      -0.09356797
P       10.00000000      11.10000000      11.62781740       0.00000000      -4.97345108       0.09356797
P       10.00000000       8.90000000      11.62781740       0.00000000       4.97345108       0.09356797
248
Lattice="19.207643 0.0 0.0 0.0 19.207643 0.0 0.0 0.0 19.207643" Properties=species:S:1:pos:R:3:forces:R:3 energy=-1310.9601878439664 hash=0a52d05be110f62b0b8ba1dd06f580af virial="0.494352900131 -7.65209813893 7.72109612803 -7.65209813893 14.1363610828 -13.2346104406 7.72109612803 -13.2346104406 19.6957855958" config_type=liq_12_03_01_liqP4 pressure=0.0016146784108647724 uploaded="2020-04-10 10:56:38.097000" hash_structure=7256de5227695c2198da4cf346617eea filename=liq_12_03_01_liqP4/liq_12_03_01_liqP4_mbd2.xyz username=gabor stress="-0.0006513610743881196 0.0007567715558877208 -0.0012503731993858784 0.0007567715558877208 -0.0009869863313985694 0.00237144799162053 -0.0012503731993858784 0.00237144799162053 -0.0023240125003912786" volume=7086.343911736328 n_atoms=248 free_energy=-1310.85738039 modified="2020-04-10 10:56:38.097000" formula=P248 miguel_caro=T pbc="T T T"
P       19.07786000       1.83802000       2.14603000       0.82064336       0.43784432      -0.09896026
P        1.84009000       2.77358000       1.36927000      -0.96024013      -1.01783220       0.79395751
P        1.74336000       0.66243000       2.09671000      -0.35763730      -0.60974674      -1.19864291
P        1.56765000       2.19952000       3.55407000      -0.33586907       0.87547286      -0.14885857
P       17.28258000      18.89348000       5.16478000      -0.12533799       1.00640386       0.76639792
P       15.20283000      18.88955000       4.58162000      -0.44485276       0.57753916      -1.73988420
P       16.13352000       1.63244000       5.24472000      -0.32239380      -0.67267228      -0.76905466
P       15.56991000       0.04130000       6.60745000       0.96070660      -0.28978980       1.37079199
P        2.46893000       6.49209000       9.63336000      -0.38504141       0.58736404       0.35413328
P        0.67446000       6.85221000      11.06187000       0.86894695       1.27079167       0.58572305
P        1.57443000       4.92107000      10.78613000       1.09153895      -2.04511750       1.77872153
P        0.45238000       5.76483000       9.27418000      -1.70958627      -0.34326339      -3.10782613
P        2.46336000      18.93916000      13.69707000      -0.34127205       0.96873374       0.11174668
P        0.72883000       0.26124000      12.17388000       1.62067817      -1.54726526       1.56145143
P        1.05738000      17.37769000      13.20124000      -0.52793328       0.72525924      -0.81373064
P        2.49231000      18.17408000      11.69484000       0.13471200      -0.51387672      -0.57275381
P        1.38800000       9.37700000       6.05427000       0.20099654      -0.35506376      -1.04588761
P        2.10276000       9.39052000       3.85828000      -1.50869485       0.17205668       1.52945116
P        1.78441000      11.24473000       4.98965000      -0.53291841      -0.22990598      -0.07121703
P       19.02665000      10.08705000       4.61127000       2.56925776      -0.48718776      -0.44325340
P       17.12988000       8.17216000       9.35508000      -1.00312098      -0.10089939      -0.69209170
P       16.12170000       6.39269000       8.45186000       0.03173951       0.32980962      -0.05669090
P       15.74389000       8.45077000       7.56637000      -0.01376814      -1.40908817       0.94863206
P       14.90429000       7.89065000       9.53083000       0.59936145      -0.11900351       0.38615479
P        3.95699000       6.81330000      12.71951000      -1.30355700       0.31191100       0.21613794
P        5.58345000       8.01383000      12.12671000       2.09132091       0.71722550       0.50068716
P        4.26220000       8.76199000      13.83772000      -0.01249914      -0.52076157      -2.14966282
P        3.67527000       8.78640000      11.58075000      -0.66915305      -0.30891670       1.10206282
P        1.01983000       8.93949000      14.88483000      -1.73245074      -0.38713779      -0.54287629
P        2.45900000       8.55236000      16.32550000       0.67949677      -1.05355305       1.62215294
P        1.53976000       6.79518000      15.20026000       0.18960313       0.93446332       0.66873649
P        0.39531000       7.81703000      16.83387000       0.60720260       0.57608289      -1.11658246
P        6.11089000      12.48537000       4.19445000       0.84855829      -2.53773928       1.48395630
P        5.05776000      13.62600000       2.84621000      -0.78202131       2.10531536      -0.76737441
P        6.35435000      14.57964000       4.48239000      -0.59506739       0.33400648      -0.40896553
P        4.35606000      13.64102000       4.95309000       0.82155605      -0.47537859      -0.77617074
P        9.90000000      12.31790000       7.53923000      -0.57928949       0.67105898       0.00900974
P        8.94634000      14.24892000       6.79370000      -0.43801199      -1.05637534       0.76452351
P        8.91260000      13.71602000       9.04242000      -1.09666784      -1.17092863      -2.63827673
P        7.66022000      12.40318000       7.32798000       1.43162785       1.62584830       1.68148758
P        2.69679000      14.27808000      15.94839000      -1.14050353      -0.45540146      -0.26109183
P        2.86109000      12.91954000      14.26064000       1.51424921      -0.10122549      -1.65306466
P        1.32900000      14.50106000      14.14683000       0.33753210      -0.28676881       0.45251078
P        1.11737000      12.66089000      15.38832000      -0.70890968       0.74525242       1.21876474
P        0.19580000      11.36124000      18.52324000      -0.80845664      -0.17564476      -1.09228424
P        0.73462000      13.00233000       0.61568000      -0.03360068      -0.13485862       0.37817484
P        1.50957000      10.97325000       0.94404000       0.94528936      -0.14872248       0.66281727
P       18.60458000      11.35195000       1.36954000       0.33459875       0.36270964      -0.29145912
P        1.19715000      17.04527000       4.98874000       0.96726695      -0.26685049       0.47900032
P       18.42777000      16.21705000       5.00572000      -0.69168114      -1.31846336       1.07497997
P        0.94096000      14.88444000       4.38589000       0.06467756       0.49288807       0.69085266
P        0.21693000      16.52856000       3.16165000      -0.04419780       0.43499652      -1.90600729
P        1.01236000       9.92171000       9.41814000      -0.44356704      -1.65059723       0.15737510
P        2.74727000      11.18371000       9.52578000      -0.04408833       0.70653815       0.56941037
P        0.64855000      11.77436000      10.43653000       1.83841753       1.00004525      -0.20106688
P        1.06560000      11.70892000       8.28212000      -0.21511937       0.93799777      -1.36754692
P        3.80117000      14.58010000       9.21055000       1.60968835       0.03454310       2.13061407
P        2.24618000      16.10580000       9.15115000      -0.23030541      -0.55011695      -1.07009704
P        3.10839000      14.84849000       7.29066000      -1.68436193       1.97959760      -0.41677599
P        4.19877000      16.60672000       8.25185000      -0.25569403      -1.19371901       0.15131193
P       18.95602000      17.58850000      16.76564000       2.38650356      -0.00539624      -0.53165361
P        0.17738000      16.52856000      18.76414000      -1.25888685       1.33280486      -1.02653447
P       17.30463000      17.17667000      17.94221000      -0.78272272      -1.41498245       1.63236719
P       18.68312000      18.71819000      18.61599000       0.68857281      -0.19928881       0.30885272
P        3.75807000       6.26861000      18.83772000      -0.58836165       0.59176255       0.45700624
P        2.61018000       7.54484000       1.11055000       0.04266081       0.50888260      -0.47911741
P        3.24836000       5.54686000       1.67318000      -0.44712826      -0.18858250      -0.34328812
P        1.62066000       5.81509000       0.21568000       0.55333031       0.15938614      -0.39630825
P        5.73652000       1.66169000       1.67546000      -0.29327611       0.90014238       0.94312230
P        6.35060000       3.33481000       0.45547000      -0.16245608       0.75155883      -2.00273765
P        7.57211000       2.81834000       2.13116000       1.50213884      -1.45620702      -0.51923238
P        5.87254000       3.90499000       2.45391000      -2.77100585       0.17484411       0.64798317
P        5.42576000       3.49020000      10.25292000       0.84484615       1.00110499       0.55131498
P        7.27570000       2.17394000      10.41615000      -1.94548511       0.03640132      -1.11671693
P        5.46932000       1.76824000       8.99459000       0.50913810      -1.16181869       0.19555088
P        5.29405000       1.57762000      11.22531000       0.05546920      -0.50622614      -0.37184974
P        3.35427000       1.64202000      17.24673000      -0.10187371       1.19952078      -0.09545904
P        3.59075000       3.92502000      16.73871000      -0.67157835      -0.91367476       0.20361104
P        2.51259000       2.49734000      15.35809000       0.22652496       0.49200289       0.24690963
P        4.70537000       2.43007000      15.66162000      -0.71222842      -1.13222482       0.99132969
P        6.00329000       7.31035000       2.68615000       0.71961193       0.25078747       0.37580307
P        5.65367000       9.45857000       3.28249000       0.37660597      -0.68332582       0.09813788
P        5.80178000       8.87166000       1.18198000      -0.24174142       0.01115459      -0.80770037
P        7.62584000       8.86331000       2.39779000      -0.79000580      -0.60913981       0.84716203
P        4.12384000       5.69345000       5.02247000      -0.26822291      -0.30326009      -0.03951166
P        2.54302000       4.19741000       5.60064000      -0.51380099       0.41996252      -0.27355040
P        3.89429000       5.02163000       7.08019000       0.48994168       0.11750477       0.87882226
P        4.63139000       3.59978000       5.52944000       0.53426596      -0.30816742       0.27781176
P        7.16902000       4.87340000      14.62399000      -0.10283810      -0.24195633      -0.75320654
P        7.99426000       2.85086000      14.67026000      -0.61079716      -0.07501536       0.99207292
P        8.00457000       3.76558000      12.78294000       0.17552065       2.01255456      -0.71612758
P        6.05554000       3.22750000      13.59782000       0.60562163       0.93535280      -0.60335328
P        5.93879000       7.92982000      16.15797000       0.79610393      -0.12389959       0.35357824
P        7.04761000       9.53081000      17.26331000       0.46255426      -0.51037471      -1.07357866
P        7.50927000       9.02606000      14.99429000       0.42494720      -1.00786557       2.28986324
P        8.04625000       7.56964000      16.84954000      -0.69197021       1.24999175      -1.42015408
P        4.94900000       8.97033000       8.68462000       0.14250099       2.91391656       3.05429511
P        4.30612000       8.13572000       6.96665000      -1.80417237      -2.23346610      -2.74621638
P        6.42211000       8.21559000       7.41553000       0.99861669       0.00583490      -1.61113899
P        5.27188000      10.02001000       6.64058000       0.81116724      -0.11865294       1.45101870
P       12.80679000      14.04805000      13.05353000       0.40370619      -1.43244178      -1.44236036
P       10.75922000      14.57376000      12.07256000       0.61368530      -1.08696178      -0.56868937
P       12.40551000      15.95804000      12.13510000       0.85138840       1.49852875      -0.69207620
P       11.41981000      15.30227000      13.95082000      -1.00749888       1.72550978       2.05240532
P        8.03025000      13.40002000      12.30374000      -1.69884665      -0.48503362       0.06318805
P        6.64961000      11.78925000      13.22450000       0.84360455       0.18249484      -1.42522593
P        7.13134000      11.85532000      10.93656000       0.77653862      -0.74264721       0.72599100
P        5.78934000      13.24394000      11.81660000      -0.16551105       1.27443121       0.60661890
P        4.09323000      13.02198000      18.91425000       0.98578825      -0.79393198      -0.80055278
P        5.98284000      11.70095000      18.94398000       0.14098113       1.35108701       0.58684209
P        5.46713000      12.80773000      17.08314000      -0.15373320       0.77180558       0.82864686
P        4.32896000      11.12687000      17.74827000      -1.80940154      -0.97426747      -0.28925681
P        5.05559000      16.96031000       4.90175000      -1.06049932       1.91029177      -1.63174617
P        5.77822000      17.89196000       2.94540000       0.37901417      -0.35312616       0.61376959
P        4.94873000      19.19351000       4.50598000      -0.01838344      -0.37557923      -0.08281228
P        3.61741000      17.96637000       3.18682000       0.97400843      -0.71171016       1.31865417
P        0.99805000       0.25706000       8.63286000       0.17373903       0.27626983      -0.40934136
P        1.84415000       2.32447000       8.51112000       0.10643206      -0.61173905      -0.37100474
P        2.82366000       0.61126000       7.39644000      -0.28880276       0.28176722       0.46868220
P        0.88468000       1.38543000       6.71146000      -0.04789737       0.15557486       0.28931450
P        5.76379000      16.61532000      12.49207000       1.67352113       0.67907615      -0.33333352
P        6.89284000      18.36218000      13.30051000       0.03188433      -0.55995830      -0.57508814
P        8.05816000      17.05147000      11.85371000      -2.41181918      -0.05076487       0.55030400
P        7.45823000      16.35327000      13.88960000      -0.31650816      -0.01593663      -0.64294593
P        5.17089000      18.70417000      18.39844000       0.05641325      -0.18652034      -0.17417202
P        4.29921000      17.60734000      16.68145000      -0.77937152       0.52334626      -0.41799544
P        3.66363000      17.11822000      18.77146000       0.40370605      -0.02475988      -0.75416510
P        5.69981000      16.61851000      17.92467000       0.12065321      -0.33637034       1.14892300
P       11.22598000       4.75562000       0.52796000      -0.80834029      -0.78806882       0.97889738
P        9.93014000       6.37344000      19.08786000       0.36735493       0.80940532       0.43598148
P       11.47311000       6.67458000       1.53461000       0.50786531       0.77871053      -0.63106180
P        9.59330000       5.70135000       1.96221000       0.23797204      -0.99572062      -0.48367842
P       13.37881000       1.11059000       9.08733000       0.60809540      -0.25984499       0.44533233
P       11.75761000       0.80025000       7.67933000      -0.31268219      -1.15346696      -0.74249700
P       12.14276000       2.75668000       8.37330000      -0.24508424       1.40559771       1.11969975
P       11.29240000       1.22808000       9.80404000      -0.07330718       0.87015217      -1.52606741
P       12.24635000       1.09512000      12.66199000      -0.84728318      -0.83683753      -0.20895383
P       11.42555000      18.95326000      14.18471000      -0.35979806      -0.22643739      -0.12649222
P       10.49367000      18.88655000      12.07665000       1.13412913       0.42429008       2.07982271
P       10.20658000       1.44516000      13.47368000       1.11374293      -1.34337934      -0.81989285
P        8.86675000       2.64612000      17.78822000       1.17147333      -1.63648522       0.43574637
P        8.52097000       0.89704000      16.51900000      -1.01584713      -1.08488821      -0.57786394
P        9.08289000       0.40184000      18.52637000       0.86662106       1.39983979       0.08934187
P       10.58322000       1.28693000      17.01063000      -0.82311799       0.41149368       1.24053690
P       11.96338000       8.97750000       5.44827000      -0.64141286       1.05749765       1.26563777
P       11.69152000       9.50398000       3.42885000      -0.52443285       0.14760840      -1.21296048
P       11.37769000      11.17190000       4.84640000      -0.27580504      -1.67883845       0.60308418
P        9.87307000       9.44157000       4.74175000       1.24309019       0.49563044      -0.25622994
P        7.55811000       3.09112000       7.15441000       0.18793408      -0.31099889      -0.85976152
P        9.65009000       3.68199000       6.76873000       0.00085927       0.00043085      -0.25215027
P        8.06466000       5.18320000       6.92929000       0.07924141       0.56981095      -0.33411719
P        8.19354000       3.92545000       5.11067000      -0.33704629      -0.03447777       1.30745335
P       10.81156000       6.90340000      10.11828000      -0.24103679       0.07695852      -1.38234110
P        9.33618000       7.97780000      11.22671000      -0.87666318       0.74395455       1.51495114
P        8.63184000       6.58352000       9.72151000      -0.31502066      -1.38693532       0.58524674
P        9.40589000       8.45430000       9.11547000       1.20522208       0.46518586      -0.39776855
P       13.15428000      10.56645000      14.22044000      -0.29750458       1.02152045       0.67059653
P       11.21571000      10.51292000      13.24626000      -0.49031556      -0.11515393       0.22281625
P       11.48807000      12.07750000      14.81499000       0.53792067      -0.66173317      -0.34848205
P       11.39912000       9.96333000      15.40614000      -0.36227889      -0.68356654      -0.27488033
P        9.55008000       9.70564000       0.50564000      -0.47732275       0.03261895      -0.96863398
P       11.43249000      10.57081000      19.07062000       0.26467848       0.47525647      -0.60584451
P       10.21666000      11.61198000       1.32834000       0.57778656       0.41154940       1.92161146
P        9.55110000      11.64830000      18.54070000      -0.21444844      -1.43553673      -1.18152856
P       12.88308000      10.26326000       8.96941000      -1.91733024      -1.26599500      -0.55570168
P       13.99480000      12.01897000       9.03791000       0.73389413       1.66299040       0.97502550
P       13.95881000      10.62830000      10.80361000      -1.44693566       1.19206318      -0.80405393
P       12.06924000      11.99888000      10.20258000       1.87647873      -1.67232234      -0.27121402
P       16.11458000      17.37923000      12.66646000       0.35035393      -0.48488089      -0.33551409
P       16.28637000      15.86478000      14.30823000       0.97815500       0.37624634      -0.30088834
P       16.92145000      18.09185000      14.61581000      -0.44742013      -1.19052661      -0.36533005
P       14.82067000      17.41593000      14.39838000      -0.89603207       1.02696475       0.52252002
P       15.10673000      12.38953000      16.69332000       0.82836340       0.91320154      -0.59736124
P       15.92314000      13.81202000      18.29684000      -1.45193151      -0.24843193      -0.89227562
P       13.82737000      12.92986000      18.28495000       0.01197197       1.05071184       0.91587240
P       14.33578000      14.52693000      16.79253000       0.72567080      -1.17231967       0.72952687
P        8.85910000      14.38026000       2.94845000      -0.13511448      -0.08166704       0.52433458
P       10.02418000      16.07734000       3.91173000      -0.28256235      -1.35743073      -2.55855265
P        9.32493000      16.02121000       1.59164000      -0.11957031       1.07720889       1.53668801
P       10.85001000      14.66000000       2.24194000       1.30401852       0.16830117       0.82833347
P        7.35910000      17.10546000       8.34280000       1.13428510      -0.46765787       0.00776497
P        8.86465000      17.63154000       6.71042000       0.36698025      -1.30458957      -0.02914097
P        8.81610000      18.82140000       8.52222000      -1.68427796       0.08741911      -0.47150368
P        7.05385000      18.75987000       6.95397000       0.01232801       1.30717715       0.69681005
P       15.89359000      10.95022000      12.93066000       1.19049423       0.59823406       0.11604633
P       17.86874000      10.90178000      11.83193000      -1.72069576      -0.87154306      -0.67437707
P       17.90694000      11.16431000      13.90770000      -0.18325669       0.34911926       1.30562984
P       17.15663000      12.81163000      12.64841000      -0.03905553      -0.34679132       0.24705988
P        9.02317000      16.54675000      17.69035000      -0.91368016      -0.99648537      -0.30089126
P       10.10480000      14.82033000      16.90386000       0.42351339      -0.56436541       0.91056727
P        8.02054000      14.93310000      16.35162000       0.26639462       0.41282663       0.98525485
P        8.52372000      14.43449000      18.50218000       0.58796625       1.07387936      -1.29900384
P        9.98052000       0.91229000       4.78868000      -0.48000970      -0.09034047      -1.12298163
P        9.76943000      19.03733000       2.71946000       1.52292484       0.87445304       1.27027788
P       11.78431000       0.93543000       3.55416000      -1.34824571      -0.53429527      -1.05006185
P        9.91124000       1.98745000       2.78328000       2.71453753      -0.45699520       1.22524892
P       16.41151000       3.71180000      11.35452000      -0.17399363      -1.06708209       0.09990640
P       16.02521000       1.47939000      11.39098000      -2.24439630      -0.23844367       1.34040650
P       17.96472000       2.11518000      11.00496000       1.20567127       1.30624400      -0.86091287
P       16.29290000       2.44114000       9.51842000       0.57838873       0.58423305      -0.53450788
P       17.78877000       1.72056000      14.44572000       0.20184369      -0.00592867      -0.24000733
P       18.37134000       1.89136000      16.57890000      -1.49132646       0.30370093      -0.11574764
P       16.38994000       2.88979000      15.70916000       1.92267910      -0.33753461       0.24305620
P       18.50470000       3.63685000      15.30711000      -0.64922800       0.36261461      -0.25276108
P       12.32407000       5.95145000      14.41021000       0.57453970       2.14635198      -1.22132118
P       11.59373000       4.69360000      15.89847000       0.23288679      -1.70615086      -0.02273881
P       13.66084000       4.34281000      14.92716000      -0.17384701      -0.25172660       0.92896991
P       11.89696000       3.91373000      13.74073000      -0.55027583       0.79460599       0.51222687
P        0.22156000       6.28063000       3.02048000      -0.42051589       0.89088042       1.37924770
P       17.67966000       6.87054000       4.55448000       1.39015865      -0.09471791      -0.82979687
P       17.40846000       5.51499000       2.84815000      -0.79818786       0.46065054      -0.68379167
P       17.81947000       7.75472000       2.49021000      -0.42080614      -1.42436336       0.08115713
P       14.09780000       3.98284000       6.20048000      -0.03739892       0.16369769       0.42590244
P       12.36285000       4.29617000       4.90383000       1.21992593       1.46118156       0.38550205
P       14.42100000       5.29084000       4.47173000      -1.85221244       0.32276916       1.26820327
P       13.09669000       5.99980000       6.41213000       0.69152961      -1.82564841      -2.37324125
P       15.72891000       8.22235000      14.34060000      -0.51140821       1.55262779      -0.42479458
P       15.03467000       6.77304000      12.76465000       0.64456477       0.99330996      -0.43614066
P       16.11610000       6.19548000      14.51760000       1.85063942      -1.85897526       0.12042100
P       17.25029000       7.45975000      12.87041000      -1.66628803      -0.89108716       0.99452231
P       15.87546000       1.93586000       0.19323000       0.49310703      -1.30769067      -0.27845144
P       16.16498000       4.02419000      18.94146000       0.26818067       0.57672875      -0.31426806
P       14.52177000       3.36155000       1.02344000      -0.63293017       0.71139160       0.41322397
P       14.46105000       2.92363000      18.07343000      -0.07424016       0.20662477       0.38590303
P       14.24185000      15.90057000       2.23156000      -0.14692308      -1.28216265       0.15377629
P       15.75255000      15.02278000       3.57084000       1.60606837      -0.12703251      -0.50903669
P       14.53652000      13.62016000       2.34641000       0.65968494       0.33255230      -1.24426375
P       13.74989000      14.61396000       4.00151000      -2.51718172       0.96272711       1.68054739
P       17.36657000      12.14807000       5.20848000      -0.31111466       0.35753607       0.04823427
P       16.67008000      11.03775000       7.02773000       0.21085478       2.28774804       0.02878989
P       15.71051000      10.68473000       5.17485000      -0.06278661       0.90696235      -0.90136602
P       15.44099000      12.86230000       5.95187000       0.47000858      -1.70459398       0.53113507
P       16.63801000      14.76949000       9.99372000       0.38576480      -0.41002658      -0.89425999
P       17.62311000      16.67805000       9.67581000      -0.14549223       1.09002717      -0.76676347
P       18.22682000      15.03718000       8.30414000      -1.46266229       0.15265015      -0.79457083
P       18.79349000      15.01723000      10.30507000       1.35491222      -0.83508305       2.32585992
P       14.25793000       8.24436000       0.29885000       0.79782203      -0.52372393       0.28899337
P       15.29435000       9.56155000      18.04078000      -0.90465403      -1.12284820      -0.39422367
P       13.39339000       8.37584000      17.54196000       0.32884777       0.66662923      -0.54743427
P       15.31600000       7.31613000      17.73457000      -0.09190086       0.30281179       0.65936405
P       12.09672000      17.65250000      19.19712000       0.92728668      -2.22915892      -0.85308038
P       13.07278000       0.20349000      18.74188000       0.65773731       1.87553466      -1.52512547
P       13.11498000      17.77546000      17.07300000      -0.76512266       0.96060552       1.97222363
P       14.42997000      17.70393000      18.86940000      -1.74730535      -0.27407343       0.45451711
P       14.12663000      16.08888000       7.23556000       1.06122846      -0.62788747       0.75897659
P       12.52932000      15.00409000       8.35433000       0.08258450       0.25654528      -1.00127874
P       12.14626000      16.78241000       6.97946000      -1.10198631       0.02566813       0.83581931
P       13.10301000      16.99928000       9.01336000       0.14313926      -0.04723557      -0.48598440
248