248
Lattice="19.207643 0.0 0.0 0.0 19.207643 0.0 0.0 0.0 19.207643" Properties=species:S:1:pos:R:3:forces:R:3 energy=-1307.746235411137 hash=0a52d05be110f62b0b8ba1dd06f580af virial="0.494352900131 -7.65209813893 7.72109612803 -7.65209813893 14.1363610828 -13.2346104406 7.72109612803 -13.2346104406 19.6957855958" config_type=liq_12_03_01_liqP4 pressure=0.0016146784108647724 uploaded="2020-04-10 10:56:38.097000" hash_structure=7256de5227695c2198da4cf346617eea filename=liq_12_03_01_liqP4/liq_12_03_01_liqP4_mbd2.xyz username=gabor stress="0.0015815391038866374 0.0007910256783778535 -0.0006939290643029364 0.0007910256783778535 -0.00020400646906308247 0.0014355837264899774 -0.0006939290643029364 0.0014355837264899774 -0.0005061354691041495" volume=7086.343911736328 n_atoms=248 free_energy=-1310.85738039 modified="2020-04-10 10:56:38.097000" formula=P248 miguel_caro=T pbc="T T T"
P       19.07786000       1.83802000       2.14603000       0.99537700       0.47387600      -0.14971000
P        1.84009000       2.77358000       1.36927000      -1.02919100      -0.89156800       1.00709200
P        1.74336000       0.66243000       2.09671000      -0.15118600      -0.36309600      -1.07658700
P        1.56765000       2.19952000       3.55407000      -0.20998300       0.56018400      -0.33059800
P       17.28258000      18.89348000       5.16478000      -0.15981200       0.81355500       0.70173100
P       15.20283000      18.88955000       4.58162000      -0.74342600       0.32683000      -1.61711700
P       16.13352000       1.63244000       5.24472000       0.03717700      -0.60661900      -0.74379800
P       15.56991000       0.04130000       6.60745000       0.75706000      -0.24254700       1.62328800
P        2.46893000       6.49209000       9.63336000      -0.51418100       0.85022500       0.46513400
P        0.67446000       6.85221000      11.06187000       0.98557000       1.04357100       0.46598000
P        1.57443000       4.92107000      10.78613000       1.04092900      -2.02822100       1.94279100
P        0.45238000       5.76483000       9.27418000      -1.56091200      -0.08002000      -2.91443000
P        2.46336000      18.93916000      13.69707000      -0.41325400       1.09860800       0.13901700
P        0.72883000       0.26124000      12.17388000       1.45502600      -1.66424700       1.48927100
P        1.05738000      17.37769000      13.20124000      -0.56142700       0.83905900      -1.02863500
P        2.49231000      18.17408000      11.69484000      -0.25849800      -0.27722300      -0.64419000
P        1.38800000       9.37700000       6.05427000       0.05086800      -0.18060400      -0.86063200
P        2.10276000       9.39052000       3.85828000      -1.60623300       0.19628500       1.32482000
P        1.78441000      11.24473000       4.98965000      -0.69921600      -0.20104800      -0.29561300
P       19.02665000      10.08705000       4.61127000       2.71059800      -0.49041600      -0.45641800
P       17.12988000       8.17216000       9.35508000      -1.13405800      -0.18479100      -0.59424800
P       16.12170000       6.39269000       8.45186000       0.07166700       0.61916900      -0.05034200
P       15.74389000       8.45077000       7.56637000       0.35273300      -1.21715500       0.85331900
P       14.90429000       7.89065000       9.53083000       0.70614500      -0.22898900       0.03306900
P        3.95699000       6.81330000      12.71951000      -1.16453700       0.44683000       0.34964800
P        5.58345000       8.01383000      12.12671000       1.75628300       0.60833500       0.50172400
P        4.26220000       8.76199000      13.83772000       0.11998200      -0.46009000      -2.17887500
P        3.67527000       8.78640000      11.58075000      -0.64513300      -0.36609000       1.25258800
P        1.01983000       8.93949000      14.88483000      -1.86077700      -0.45964900      -0.51208100
P        2.45900000       8.55236000      16.32550000       0.62264700      -1.26133100       1.41392900
P        1.53976000       6.79518000      15.20026000       0.15947100       0.97018100       0.63504900
P        0.39531000       7.81703000      16.83387000       0.72762300       0.69037400      -1.37628500
P        6.11089000      12.48537000       4.19445000       0.91829700      -2.41813900       1.62096300
P        5.05776000      13.62600000       2.84621000      -0.82025000       1.90466800      -0.95306900
P        6.35435000      14.57964000       4.48239000      -0.66069200       0.25260500      -0.19833900
P        4.35606000      13.64102000       4.95309000       0.92353700      -0.48552700      -0.56124000
P        9.90000000      12.31790000       7.53923000      -0.87302200       0.90056600       0.16123500
P        8.94634000      14.24892000       6.79370000      -0.18653800      -1.63583200       1.17702100
P        8.91260000      13.71602000       9.04242000      -0.74358700      -1.05650800      -2.60186100
P        7.66022000      12.40318000       7.32798000       1.79296400       1.70372700       1.20131400
P        2.69679000      14.27808000      15.94839000      -1.33436400      -0.48642700      -0.34288200
P        2.86109000      12.91954000      14.26064000       1.46139000      -0.12650500      -1.30732400
P        1.32900000      14.50106000      14.14683000       0.39666600      -0.62992400       0.58134100
P        1.11737000      12.66089000      15.38832000      -0.55457100       0.84636000       1.34016700
P        0.19580000      11.36124000      18.52324000      -0.77183000      -0.26071200      -1.15885600
P        0.73462000      13.00233000       0.61568000      -0.13650800      -0.00621100       0.54895000
P        1.50957000      10.97325000       0.94404000       0.79296100      -0.21984500       0.75501500
P       18.60458000      11.35195000       1.36954000       0.16172700       0.49926200      -0.15703900
P        1.19715000      17.04527000       4.98874000       0.97357100      -0.05848800       0.59845100
P       18.42777000      16.21705000       5.00572000      -0.81814500      -1.22127800       0.89043900
P        0.94096000      14.88444000       4.38589000      -0.16320700       0.59104800       0.48602900
P        0.21693000      16.52856000       3.16165000       0.00219600       0.33565400      -1.84015400
P        1.01236000       9.92171000       9.41814000      -0.36321900      -1.80597300       0.02000200
P        2.74727000      11.18371000       9.52578000       0.16346500       0.50696700       0.62947600
P        0.64855000      11.77436000      10.43653000       1.63890800       0.81305800      -0.02667800
P        1.06560000      11.70892000       8.28212000      -0.48586500       1.18335400      -1.19810500
P        3.80117000      14.58010000       9.21055000       1.36528500       0.06361700       2.02451000
P        2.24618000      16.10580000       9.15115000       0.04924100      -0.54331400      -1.22110500
P        3.10839000      14.84849000       7.29066000      -1.40975900       1.83390200      -0.46502400
P        4.19877000      16.60672000       8.25185000      -0.28357700      -1.12551200      -0.07040200
P       18.95602000      17.58850000      16.76564000       2.33992400      -0.13248600      -0.44245300
P        0.17738000      16.52856000      18.76414000      -1.45588300       1.47424600      -1.23853200
P       17.30463000      17.17667000      17.94221000      -0.79493400      -1.10696300       1.46352200
P       18.68312000      18.71819000      18.61599000       0.52684600      -0.52701200       0.41278400
P        3.75807000       6.26861000      18.83772000      -0.93620700       0.24961700       0.97250600
P        2.61018000       7.54484000       1.11055000       0.25226500       0.11548700      -0.63466800
P        3.24836000       5.54686000       1.67318000       0.06785700      -0.11223200      -0.11172200
P        1.62066000       5.81509000       0.21568000       0.58077000       0.10143700      -0.43597000
P        5.73652000       1.66169000       1.67546000      -0.08351600       1.05637200       0.83161700
P        6.35060000       3.33481000       0.45547000      -0.12254800       0.54554400      -1.83066700
P        7.57211000       2.81834000       2.13116000       1.26406800      -1.33025800      -0.24774000
P        5.87254000       3.90499000       2.45391000      -2.62547000       0.24160600       0.76401900
P        5.42576000       3.49020000      10.25292000       0.74221900       1.03505700       0.29309800
P        7.27570000       2.17394000      10.41615000      -1.62066200      -0.04369500      -0.87093700
P        5.46932000       1.76824000       8.99459000       0.66813200      -0.78204700       0.47652300
P        5.29405000       1.57762000      11.22531000      -0.15856400      -0.75282500      -0.32168000
P        3.35427000       1.64202000      17.24673000      -0.34239200       1.44453000      -0.39374300
P        3.59075000       3.92502000      16.73871000      -0.71534600      -1.01157000       0.24542900
P        2.51259000       2.49734000      15.35809000       0.44873400       0.30730900       0.39981800
P        4.70537000       2.43007000      15.66162000      -0.23051500      -1.09874700       0.62299100
P        6.00329000       7.31035000       2.68615000       0.33531800       0.51670600       0.37731200
P        5.65367000       9.45857000       3.28249000       0.13504200      -0.60387700      -0.04090400
P        5.80178000       8.87166000       1.18198000      -0.20738900      -0.00771400      -0.54230700
P        7.62584000       8.86331000       2.39779000      -0.83607100      -0.40217200       0.59015700
P        4.12384000       5.69345000       5.02247000      -0.30532500      -0.40905700      -0.36480400
P        2.54302000       4.19741000       5.60064000      -0.33471900       0.60030500      -0.20244200
P        3.89429000       5.02163000       7.08019000       0.57402000      -0.52086100       0.56097400
P        4.63139000       3.59978000       5.52944000       0.07855600       0.05733300       0.30280500
P        7.16902000       4.87340000      14.62399000       0.04073600      -0.03652500      -0.87387500
P        7.99426000       2.85086000      14.67026000      -0.86142800      -0.06632300       0.79475800
P        8.00457000       3.76558000      12.78294000       0.29665800       1.85268300      -0.81982300
P        6.05554000       3.22750000      13.59782000       0.50636700       0.55996900      -0.01548700
P        5.93879000       7.92982000      16.15797000       0.77847400       0.11269200       0.29896600
P        7.04761000       9.53081000      17.26331000       0.44377600      -0.95798100      -1.72182900
P        7.50927000       9.02606000      14.99429000       0.04145300      -0.86408900       2.59459900
P        8.04625000       7.56964000      16.84954000      -0.73618500       1.20013200      -1.41364900
P        4.94900000       8.97033000       8.68462000       0.04935400       2.61585200       2.85229300
P        4.30612000       8.13572000       6.96665000      -1.61310500      -1.67513000      -2.58085100
P        6.42211000       8.21559000       7.41553000       1.22585400      -0.24306800      -1.56302500
P        5.27188000      10.02001000       6.64058000       0.45341700      -0.12352800       1.24556300
P       12.80679000      14.04805000      13.05353000       0.68687900      -1.39566900      -1.37073700
P       10.75922000      14.57376000      12.07256000       0.61832200      -1.15594500      -0.51788300
P       12.40551000      15.95804000      12.13510000       0.72268400       1.37883000      -0.52451300
P       11.41981000      15.30227000      13.95082000      -1.17409100       1.82430500       1.98408900
P        8.03025000      13.40002000      12.30374000      -1.90648600      -1.10756800       0.00704600
P        6.64961000      11.78925000      13.22450000       0.84350800       0.38334100      -1.39647500
P        7.13134000      11.85532000      10.93656000       0.62886200      -0.84409300       1.02063700
P        5.78934000      13.24394000      11.81660000       0.06026900       1.18931700       0.59042200
P        4.09323000      13.02198000      18.91425000       1.21583000      -0.77125100      -0.95394700
P        5.98284000      11.70095000      18.94398000       0.07627800       1.32793900       0.82261700
P        5.46713000      12.80773000      17.08314000      -0.00826800       0.62120500       0.66022200
P        4.32896000      11.12687000      17.74827000      -1.57867700      -0.61025300      -0.20043800
P        5.05559000      16.96031000       4.90175000      -1.06540200       1.82631500      -1.47045600
P        5.77822000      17.89196000       2.94540000       0.46507000      -0.40493000       0.53442900
P        4.94873000      19.19351000       4.50598000      -0.35459500      -0.38680200      -0.25393800
P        3.61741000      17.96637000       3.18682000       0.96932600      -0.74064700       1.39647100
P        0.99805000       0.25706000       8.63286000       0.26389500       0.35972300      -0.44809800
P        1.84415000       2.32447000       8.51112000       0.03129200      -1.01971200      -0.56746800
P        2.82366000       0.61126000       7.39644000      -0.54508900       0.39705600       0.49549700
P        0.88468000       1.38543000       6.71146000       0.04979700       0.17351800       0.57525500
P        5.76379000      16.61532000      12.49207000       1.57430600       0.50404700      -0.47087300
P        6.89284000      18.36218000      13.30051000       0.04308200       0.10258800      -0.61418800
P        8.05816000      17.05147000      11.85371000      -2.06216500      -0.09637100       0.95286700
P        7.45823000      16.35327000      13.88960000       0.14922200      -0.12335800      -0.40970700
P        5.17089000      18.70417000      18.39844000      -0.01337300      -0.24876700      -0.06025400
P        4.29921000      17.60734000      16.68145000      -0.87615100       0.66530700      -0.29014000
P        3.66363000      17.11822000      18.77146000       0.75824300       0.04033500      -0.66995700
P        5.69981000      16.61851000      17.92467000       0.32487500      -0.56516500       1.06418100
P       11.22598000       4.75562000       0.52796000      -0.75323900      -0.42799500       0.96958100
P        9.93014000       6.37344000      19.08786000       0.45570700       0.64710800       0.56757800
P       11.47311000       6.67458000       1.53461000       0.05899500       0.66818800      -0.71370500
P        9.59330000       5.70135000       1.96221000       0.32738100      -1.03540500      -0.68926200
P       13.37881000       1.11059000       9.08733000       0.16738400      -0.17954300       0.18648500
P       11.75761000       0.80025000       7.67933000      -0.25736600      -1.01565100      -0.59794600
P       12.14276000       2.75668000       8.37330000       0.14393000       1.14046400       0.85767000
P       11.29240000       1.22808000       9.80404000       0.29051000       0.63546900      -1.14645300
P       12.24635000       1.09512000      12.66199000      -0.42471300      -0.71023900      -0.15398400
P       11.42555000      18.95326000      14.18471000      -0.52268700      -0.24673800      -0.46137600
P       10.49367000      18.88655000      12.07665000       0.93775000       0.61055500       1.61864800
P       10.20658000       1.44516000      13.47368000       0.44453300      -1.07096800      -0.68106900
P        8.86675000       2.64612000      17.78822000       0.93813200      -1.60389800       0.25074800
P        8.52097000       0.89704000      16.51900000      -0.78990300      -1.02240400      -0.65172400
P        9.08289000       0.40184000      18.52637000       0.76853900       1.45673100       0.11256700
P       10.58322000       1.28693000      17.01063000      -0.82541800       0.41951000       1.09178400
P       11.96338000       8.97750000       5.44827000      -0.51201000       0.94715200       1.12133800
P       11.69152000       9.50398000       3.42885000      -0.68218500       0.38970500      -1.24121500
P       11.37769000      11.17190000       4.84640000      -0.05498100      -1.74969900       0.28558500
P        9.87307000       9.44157000       4.74175000       1.37148100       0.56989600      -0.19185700
P        7.55811000       3.09112000       7.15441000       0.32204900      -0.07850300      -1.02548300
P        9.65009000       3.68199000       6.76873000      -0.12794700       0.00195700      -0.11220300
P        8.06466000       5.18320000       6.92929000      -0.12262000       0.66474200      -0.26000300
P        8.19354000       3.92545000       5.11067000      -0.18342500      -0.25770200       1.00038600
P       10.81156000       6.90340000      10.11828000      -0.40130800       0.20795300      -1.31517600
P        9.33618000       7.97780000      11.22671000      -0.67841800       0.67707700       1.38465600
P        8.63184000       6.58352000       9.72151000      -0.23318200      -1.38060500       0.48237800
P        9.40589000       8.45430000       9.11547000       1.36875100       0.53441600      -0.33329100
P       13.15428000      10.56645000      14.22044000      -0.60626500       0.75758200       0.53918700
P       11.21571000      10.51292000      13.24626000      -0.46257500       0.11526500       0.36543500
P       11.48807000      12.07750000      14.81499000       0.65538300      -0.91624500      -0.24378900
P       11.39912000       9.96333000      15.40614000      -0.23773100      -0.34369700      -0.17058400
P        9.55008000       9.70564000       0.50564000      -0.21052500       0.23603200      -0.70084500
P       11.43249000      10.57081000      19.07062000       0.58810700       0.21369400      -0.43417700
P       10.21666000      11.61198000       1.32834000       0.29628800       0.16039300       1.68593600
P        9.55110000      11.64830000      18.54070000      -0.07089000      -0.89186800      -1.17920400
P       12.88308000      10.26326000       8.96941000      -1.79573900      -1.10047000      -0.46324600
P       13.99480000      12.01897000       9.03791000       0.71346800       1.36262600       0.61655400
P       13.95881000      10.62830000      10.80361000      -1.16076900       1.29524000      -0.30210700
P       12.06924000      11.99888000      10.20258000       1.74299600      -1.48267900      -0.19570500
P       16.11458000      17.37923000      12.66646000       0.38585900      -0.24987600      -0.08227600
P       16.28637000      15.86478000      14.30823000       1.06748300       0.63913400      -0.19784900
P       16.92145000      18.09185000      14.61581000      -0.71620000      -1.23501000      -0.47308200
P       14.82067000      17.41593000      14.39838000      -0.99104800       0.65058500       0.33206500
P       15.10673000      12.38953000      16.69332000       0.93696600       0.91432700      -0.58468800
P       15.92314000      13.81202000      18.29684000      -1.47371900      -0.54754500      -1.08316600
P       13.82737000      12.92986000      18.28495000      -0.18765000       0.97237400       0.75654900
P       14.33578000      14.52693000      16.79253000       0.60124400      -1.19413300       0.73044100
P        8.85910000      14.38026000       2.94845000      -0.38176200      -0.10934300       0.58543600
P       10.02418000      16.07734000       3.91173000      -0.29728500      -1.22466800      -2.47583100
P        9.32493000      16.02121000       1.59164000      -0.05872800       0.89960600       1.33880900
P       10.85001000      14.66000000       2.24194000       1.17151800       0.34885700       0.59180800
P        7.35910000      17.10546000       8.34280000       0.94969900       0.16979600      -0.40041000
P        8.86465000      17.63154000       6.71042000       0.00552700      -1.12830400       0.00301200
P        8.81610000      18.82140000       8.52222000      -1.47500100      -0.00415400      -0.50079600
P        7.05385000      18.75987000       6.95397000       0.36111100       0.85580400       0.87293800
P       15.89359000      10.95022000      12.93066000       1.32916700       0.69880400       0.17113800
P       17.86874000      10.90178000      11.83193000      -1.19361000      -0.57748300      -1.12582700
P       17.90694000      11.16431000      13.90770000      -0.34232700       0.21889400       1.38522900
P       17.15663000      12.81163000      12.64841000      -0.28416000      -0.46584600       0.17784400
P        9.02317000      16.54675000      17.69035000      -0.85233800      -1.22977100      -0.49923000
P       10.10480000      14.82033000      16.90386000       0.41609100      -0.37788200       0.77502400
P        8.02054000      14.93310000      16.35162000       0.13929500       0.34229400       1.12274700
P        8.52372000      14.43449000      18.50218000       0.36097600       1.11261400      -1.16887400
P        9.98052000       0.91229000       4.78868000      -0.45094400      -0.17541400      -1.40476700
P        9.76943000      19.03733000       2.71946000       1.46118500       0.87274500       1.56106200
P       11.78431000       0.93543000       3.55416000      -1.24504000      -0.79052300      -0.88513900
P        9.91124000       1.98745000       2.78328000       1.81144800      -0.15775000       0.97870100
P       16.41151000       3.71180000      11.35452000       0.20876100      -1.13773300      -0.10551000
P       16.02521000       1.47939000      11.39098000      -1.85478200      -0.27222400       1.51273900
P       17.96472000       2.11518000      11.00496000       0.79867900       1.37518600      -1.03869000
P       16.29290000       2.44114000       9.51842000       0.85171900       0.60522700      -0.54095600
P       17.78877000       1.72056000      14.44572000       0.31085000       0.24809500       0.10993100
P       18.37134000       1.89136000      16.57890000      -1.40826000       0.26228600      -0.27273600
P       16.38994000       2.88979000      15.70916000       2.03034100      -0.51297800       0.19525000
P       18.50470000       3.63685000      15.30711000      -0.58743400       0.29748600      -0.40308200
P       12.32407000       5.95145000      14.41021000       0.46179000       2.06030500      -1.52277600
P       11.59373000       4.69360000      15.89847000       0.35526000      -1.79151300       0.08062000
P       13.66084000       4.34281000      14.92716000      -0.32030700      -0.10388000       1.01649500
P       11.89696000       3.91373000      13.74073000      -0.63630400       0.50506700       0.67505800
P        0.22156000       6.28063000       3.02048000      -0.81489000       0.80019300       1.28024100
P       17.67966000       6.87054000       4.55448000       1.26144800      -0.03142400      -1.09061700
P       17.40846000       5.51499000       2.84815000      -0.53629200       0.52314100      -0.52756400
P       17.81947000       7.75472000       2.49021000       0.05197600      -1.43208600       0.41384700
P       14.09780000       3.98284000       6.20048000      -0.03105400       0.12767800       0.38747500
P       12.36285000       4.29617000       4.90383000       1.14483800       1.47946900       0.46302900
P       14.42100000       5.29084000       4.47173000      -1.86825600       0.35338700       1.42822600
P       13.09669000       5.99980000       6.41213000       0.70195100      -1.93905000      -2.30723500
P       15.72891000       8.22235000      14.34060000      -0.42406700       1.58736100      -0.65563200
P       15.03467000       6.77304000      12.76465000       0.73547700       1.06109000      -0.37658700
P       16.11610000       6.19548000      14.51760000       1.80327300      -1.54825800      -0.03729600
P       17.25029000       7.45975000      12.87041000      -1.86867300      -1.02974400       1.23471900
P       15.87546000       1.93586000       0.19323000       0.65435700      -1.19256500      -0.13454400
P       16.16498000       4.02419000      18.94146000       0.11866000       0.44758600      -0.21081300
P       14.52177000       3.36155000       1.02344000      -0.68666400       0.65194500       0.50639600
P       14.46105000       2.92363000      18.07343000      -0.10512200       0.40580300       0.12109900
P       14.24185000      15.90057000       2.23156000      -0.10022700      -1.47540200       0.51942500
P       15.75255000      15.02278000       3.57084000       1.48195400       0.09134400      -0.54815700
P       14.53652000      13.62016000       2.34641000       0.85270100       0.29380800      -1.12103000
P       13.74989000      14.61396000       4.00151000      -2.35809900       1.05344300       1.29970100
P       17.36657000      12.14807000       5.20848000       0.20401100       0.17986300       0.05436600
P       16.67008000      11.03775000       7.02773000       0.06070600       2.09149400       0.37494300
P       15.71051000      10.68473000       5.17485000      -0.69615100       0.89926900      -0.90688900
P       15.44099000      12.86230000       5.95187000       0.31983100      -1.99922700       0.77392300
P       16.63801000      14.76949000       9.99372000       0.50064700      -0.34785900      -0.95226500
P       17.62311000      16.67805000       9.67581000      -0.12689300       1.05513400      -0.53950800
P       18.22682000      15.03718000       8.30414000      -1.57497300      -0.05485500      -0.79463600
P       18.79349000      15.01723000      10.30507000       0.96537000      -0.75493000       2.38709000
P       14.25793000       8.24436000       0.29885000       0.77853500      -0.28473700       0.13237100
P       15.29435000       9.56155000      18.04078000      -0.88933400      -1.23079300      -0.09310000
P       13.39339000       8.37584000      17.54196000       0.52598400       0.48745600      -0.51846100
P       15.31600000       7.31613000      17.73457000      -0.28033700       0.65681400       0.55354800
P       12.09672000      17.65250000      19.19712000       0.70350600      -2.01901400      -0.72125800
P       13.07278000       0.20349000      18.74188000       0.68341400       1.35184800      -1.25150300
P       13.11498000      17.77546000      17.07300000      -0.67071700       0.74848000       2.09053200
P       14.42997000      17.70393000      18.86940000      -1.22299400      -0.20774900       0.11694200
P       14.12663000      16.08888000       7.23556000       1.10158900      -0.47618000       0.67824200
P       12.52932000      15.00409000       8.35433000      -0.07493400       0.38096900      -0.77075900
P       12.14626000      16.78241000       6.97946000      -0.83444100      -0.11667600       0.82038300
P       13.10301000      16.99928000       9.01336000       0.13890000       0.16208700      -0.77697700
248
Lattice="19.577111 0.0 0.0 0.0 19.577111 0.0 0.0 0.0 19.577111" Properties=species:S:1:pos:R:3:forces:R:3 energy=-1306.852086966497 hash=4bc068354c7e0ac46aabe6d5394a67ac virial="-22.3820422846 4.77856345205 -10.971851059 4.77856345205 -12.0118786678 -7.89218357075 -10.971851059 -7.89218357075 5.6096770135" config_type=liq_12_03_01_liqP4 pressure=-0.0012787562287043448 uploaded="2020-04-10 10:56:37.921000" hash_structure=43c6885f842ce4cccfd1f4be8a6457e1 filename=liq_12_03_01_liqP4/liq_12_03_01_liqP4_mbd2.xyz username=gabor stress="0.004251619626864615 -0.0010462979650626646 0.0016889754784492883 -0.0010462979650626646 0.0028506190855281544 0.0006173855963882475 0.0016889754784492883 0.0006173855963882475 0.00019566750330835206" volume=7503.187678979971 n_atoms=248 free_energy=-1310.13427812 modified="2020-04-10 10:56:37.921000" formula=P248 miguel_caro=T pbc="T T T"
P        1.20759000       0.46672000      19.22911000       1.97857700       0.44523000      -2.04509100
P        2.95215000       1.02081000       1.16347000      -0.49892300       0.09784100      -1.20735800
P        1.70616000      18.83212000       1.32034000      -0.57723600      -0.11803400       1.03085100
P        0.80677000       1.36470000       1.46699000      -0.54290300      -0.11660800       1.87787400
P       16.32430000       1.25370000       5.41599000      -0.85925900      -0.30475200      -0.25422100
P       16.26024000      19.27944000       3.74432000      -0.50653500       0.89902600      -0.13058500
P       17.64350000      19.10984000       5.35356000       0.74678600      -1.20072000       1.63502400
P       17.94761000       1.12911000       3.99258000       0.37943800       0.58500300      -1.06380500
P        2.99970000       6.46959000      11.85654000      -1.03449000       0.75618200      -0.62096300
P        1.08490000       5.55594000      12.88266000       0.32538000       1.24156200      -1.66738300
P        3.07441000       5.04087000      13.39948000       0.97130000      -1.77138800       0.47602300
P        2.32829000       4.44737000      11.32495000      -0.26247600       0.13045800       1.32318900
P       19.31787000      19.27645000      11.73511000       1.64258000      -0.21278400       1.82089200
P        1.66981000       0.54017000      12.95568000      -1.99167800      -1.85379900      -0.56355900
P        1.44876000      17.98549000      12.15416000       0.29451500       0.44320100       0.87054100
P        0.11887000      18.61419000      13.89930000       1.39289400       0.56108000      -1.48832800
P        1.21946000       8.18785000       4.88441000      -0.35302400       0.57544500       0.00194500
P        2.56106000       9.74793000       4.12576000       0.72530200      -0.26926600      -0.58528800
P        0.56623000      10.34333000       4.65324000      -0.57392100      -0.70156700       0.16494600
P        0.86116000       9.03789000       2.87500000       0.17979200       0.11836500       0.23296200