104
Lattice="14.752975 0.0 0.0 0.0 12.828814 0.0 0.0 0.0 12.8717" Properties=species:S:1:pos:R:3:forces:R:3 energy=-567.969051974311 hash=65caec19db865b84795faa891699f15e virial="26.5960839552 0.0 0.0 0.0 -8.69836786862 0.0 0.0 0.0 9.45073549841" config_type=rss_3c pressure=0.0037420489448516097 uploaded="2020-04-10 10:56:53.323000" hash_structure=f5bb3ec5005e822dba26f0166ed6c15a filename=rss_3c/rss_3c_mbd2.xyz username=gabor stress="0.006117574318736656 0.0 -0.0 0.0 0.01396862131368902 1.1493598107033383e-07 -0.0 1.1493598107033383e-07 0.0023754434936275916" volume=2436.138773885412 n_atoms=104 free_energy=-570.88456 modified="2020-04-10 10:56:53.323000" formula=P104 miguel_caro=T pbc="T T T"
P        5.55284000       1.54336000       4.79899000       0.05748500       0.12569900      -0.00563900
P        3.40593000       1.92310000       4.54218000       0.05278900       0.26266500      -0.08772300
P        2.83521000      12.72241000       5.14557000      -0.45772300       0.01831600      -0.09276500
P        0.61386000       0.19271000       4.91270000       0.10087300      -0.37487500       0.08734500
P        6.32144000       3.56955000       4.26074000      -0.08298800      -0.27155200      -0.31684600
P        4.67563000       3.69629000       7.41183000       0.02096800       0.08218300      -0.08447300
P        2.84625000       3.29862000       6.23727000      -0.32498300      -0.29503700       0.04425700
P        1.91349000       1.94200000       7.76613000      -0.03038700       0.28007000      -0.21995500
P        0.02843000       1.52844000       6.62131000      -0.01062000       0.40543200       0.35442200
P        5.98915000       4.94149000       6.02491000      -0.08584600      -0.03999700       0.03238700
P        5.84247000       1.90315000       6.94732000       0.16950400      -0.48323700       0.50861000
P        2.80712000      12.81238000       7.35081000       0.23096700      -0.29643400       0.19627700
P        4.90134000       0.16568000       7.93271000       0.12510700      -0.01972800      -0.03487600
P        9.20015000       4.87104000       4.79899000      -0.05754600      -0.12572500      -0.00567800
P       11.34706000       4.49130000       4.54218000      -0.05281700      -0.26261400      -0.08775400
P       11.91778000       6.52081000       5.14557000       0.45762600      -0.01834600      -0.09278500
P       14.13912000       6.22169000       4.91270000      -0.10079300       0.37492200       0.08735700
P        8.43153000       2.84485000       4.26074000       0.08305300       0.27160600      -0.31682900
P       10.07734000       2.71812000       7.41183000      -0.02080500      -0.08232500      -0.08445400
P       11.90673000       3.11579000       6.23727000       0.32497000       0.29495700       0.04431800
P       12.83948000       4.47241000       7.76613000       0.03052600      -0.28008600      -0.21996100
P       14.72456000       4.88597000       6.62131000       0.01045900      -0.40548400       0.35448200
P        8.76383000       1.47291000       6.02491000       0.08581600       0.04003700       0.03239000
P        8.91052000       4.51125000       6.94732000      -0.16965700       0.48334600       0.50853600
P       11.94585000       6.43084000       7.35081000      -0.23082900       0.29646100       0.19625100
P        9.85164000       6.24872000       7.93271000      -0.12517300       0.01977700      -0.03484900
P        5.55284000      11.28544000       1.63686000       0.05748300      -0.12559700       0.00564100
P        3.40593000      10.90571000       1.89367000       0.05277000      -0.26267800       0.08772400
P        2.83521000       0.10640000       1.29028000      -0.45771000      -0.01830800       0.09276200
P        0.61386000      12.63610000       1.52315000       0.10087500       0.37494200      -0.08733900
P        6.32144000       9.25926000       2.17511000      -0.08296900       0.27148900       0.31685900
P        4.67563000       9.13252000      11.89572000       0.02096900      -0.08218600       0.08446500
P        2.84625000       9.53019000       0.19858000      -0.32499400       0.29503800      -0.04425800
P        1.91349000      10.88681000      11.54142000      -0.03039100      -0.28005900       0.21995900
P        0.02843000      11.30038000      12.68624000      -0.01061900      -0.40551700      -0.35442900
P        5.98915000       7.88732000       0.41094000      -0.08584800       0.03998800      -0.03239100
P        5.84247000      10.92566000      12.36023000       0.16950500       0.48322300      -0.50863100
P        2.80712000       0.01643000      11.95674000       0.23097300       0.29643700      -0.19627800
P        4.90134000      12.66313000      11.37484000       0.12510600       0.01973300       0.03488500
P        9.20015000       7.95776000       1.63686000      -0.05754100       0.12583400       0.00566500
P       11.34706000       8.33751000       1.89367000      -0.05283600       0.26262500       0.08773100
P       11.91778000       6.30800000       1.29028000       0.45763500       0.01835900       0.09277400
P       14.13912000       6.60712000       1.52315000      -0.10080100      -0.37491600      -0.08736200
P        8.43153000       9.98396000       2.17511000       0.08307400      -0.27167300       0.31681800
P       10.07734000      10.11070000      11.89572000      -0.02083400       0.08223300       0.08447200
P       11.90673000       9.71303000       0.19858000       0.32495800      -0.29502200      -0.04429000
P       12.83948000       8.35641000      11.54142000       0.03051000       0.27999400       0.21998700
P       14.72456000       7.94284000      12.68624000       0.01045300       0.40549900      -0.35448500
P        8.76383000      11.35590000       0.41094000       0.08579600      -0.04002100      -0.03237300
P        8.91052000       8.31756000      12.36023000      -0.16961500      -0.48329900      -0.50853200
P       11.94585000       6.39797000      11.95674000      -0.23080600      -0.29637700      -0.19626600
P        9.85164000       6.58009000      11.37484000      -0.12516900      -0.01977200       0.03484700
P        9.20015000      11.28544000       8.07271000      -0.05753700      -0.12562900       0.00566900
P       11.34706000      10.90571000       8.32952000      -0.05280800      -0.26270200       0.08774800
P       11.91778000       0.10640000       7.72613000       0.45762200      -0.01828800       0.09276400
P       14.13912000      12.63610000       7.95900000      -0.10079100       0.37492900      -0.08736900
P        8.43153000       9.25926000       8.61096000       0.08303700       0.27154400       0.31684400
P       10.07734000       9.13252000       5.45987000      -0.02083400      -0.08223800       0.08445700
P       11.90673000       9.53019000       6.63443000       0.32496800       0.29500400      -0.04429200
P       12.83948000      10.88681000       5.10557000       0.03052000      -0.28004200       0.21997500
P       14.72456000      11.30038000       6.25039000       0.01045600      -0.40551600      -0.35446800
P        8.76383000       7.88732000       6.84679000       0.08581000       0.03998400      -0.03236900
P        8.91052000      10.92566000       5.92438000      -0.16961800       0.48327000      -0.50857000
P       11.94585000       0.01643000       5.52089000      -0.23081200       0.29644100      -0.19626000
P        9.85164000      12.66313000       4.93899000      -0.12516200       0.01974600       0.03484800
P        5.55284000       7.95776000       8.07271000       0.05748700       0.12580100       0.00563700
P        3.40593000       8.33751000       8.32952000       0.05279800       0.26260200       0.08770800
P        2.83521000       6.30800000       7.72613000      -0.45772200       0.01837900       0.09277200
P        0.61386000       6.60712000       7.95900000       0.10088400      -0.37492900      -0.08733300
P        6.32144000       9.98396000       8.61096000      -0.08300700      -0.27161700       0.31683300
P        4.67563000      10.11070000       5.45987000       0.02096900       0.08218000       0.08447900
P        2.84625000       9.71303000       6.63443000      -0.32498400      -0.29505600      -0.04425600
P        1.91349000       8.35641000       5.10557000      -0.03038100       0.28001200       0.21997000
P        0.02843000       7.94284000       6.25039000      -0.01061600       0.40550000      -0.35444600
P        5.98915000      11.35590000       6.84679000      -0.08583500      -0.04002500      -0.03239500
P        5.84247000       8.31756000       5.92438000       0.16950200      -0.48325100      -0.50859200
P        2.80712000       6.39797000       5.52089000       0.23096700      -0.29637300      -0.19628500
P        4.90134000       6.58009000       4.93899000       0.12511300      -0.01975800       0.03488400
P        9.20015000       1.54336000      11.23484000      -0.05754000       0.12573100      -0.00566600
P       11.34706000       1.92310000      10.97803000      -0.05282600       0.26268900      -0.08774700
P       11.91778000      12.72241000      11.58142000       0.45763600       0.01829600      -0.09276700
P       14.13912000       0.19271000      11.34855000      -0.10078900      -0.37486200       0.08737400
P        8.43153000       3.56955000      10.69659000       0.08305600      -0.27160800      -0.31683100
P       10.07734000       3.69629000       0.97598000      -0.02083300       0.08223600      -0.08446600
P       11.90673000       3.29862000      12.67312000       0.32495600      -0.29500400       0.04429100
P       12.83948000       1.94200000       1.33028000       0.03051600       0.28005300      -0.21997100
P       14.72456000       1.52844000       0.18546000       0.01045700       0.40543100       0.35446100
P        8.76383000       4.94149000      12.46076000       0.08580800      -0.03999200       0.03236400
P        8.91052000       1.90315000       0.51147000      -0.16961800      -0.48328500       0.50855000
P       11.94585000      12.81238000       0.91496000      -0.23080600      -0.29643700       0.19625900
P        9.85164000       0.16568000       1.49686000      -0.12516300      -0.01974100      -0.03483900
P        5.55284000       4.87104000      11.23484000       0.05749200      -0.12569300      -0.00565000
P        3.40593000       4.49130000      10.97803000       0.05277900      -0.26259100      -0.08773000
P        2.83521000       6.52081000      11.58142000      -0.45771300      -0.01836600      -0.09278300
P        0.61386000       6.22169000      11.34855000       0.10087600       0.37493500       0.08732700
P        6.32144000       2.84485000      10.69659000      -0.08298500       0.27155100      -0.31684400
P        4.67563000       2.71812000       0.97598000       0.02094100      -0.08227300      -0.08446100
P        2.84625000       3.11579000      12.67312000      -0.32499600       0.29499100       0.04428400
P        1.91349000       4.47241000       1.33028000      -0.03039700      -0.28010300      -0.21994400
P        0.02843000       4.88597000       0.18546000      -0.01062200      -0.40548500       0.35444300
P        5.98915000       1.47291000      12.46076000      -0.08585400       0.04004100       0.03241300
P        5.84247000       4.51125000       0.51147000       0.16954300       0.48329900       0.50859600
P        2.80712000       6.43084000       0.91496000       0.23099000       0.29645700       0.19626900
P        4.90134000       6.24872000       1.49686000       0.12511700       0.01976400      -0.03488600
104
Lattice="14.889483 0.0 0.0 0.0 12.391801 -1e-06 0.0 -2e-06 13.347013" Properties=species:S:1:pos:R:3:forces:R:3 energy=-567.985610555321 hash=2a03cfe65dbe78e74669f4a756e0817d virial="26.3757318784 0.0 0.0 0.0 11.6352465281 -0.0 0.0 -0.0 5.35105200861" config_type=rss_3c pressure=0.005869352902749718 uploaded="2020-04-10 10:56:53.293000" hash_structure=389247ae759652655bed27dccf1a710e filename=rss_3c/rss_3c_mbd2.xyz username=gabor stress="0.0048825274672615986 1.6242835992397094e-08 -8.121417996198547e-09 1.6242835992397094e-08 0.005408827839087249 -7.71534709638862e-08 -8.121417996198547e-09 -7.71534709638862e-08 0.004999780439581715" volume=2462.6241389572056 n_atoms=104 free_energy=-569.77517532 modified="2020-04-10 10:56:53.293000" formula=P104 miguel_caro=T pbc="T T T"
P       13.33855000       1.06165000      11.95313000      -0.33963600       0.26150400       0.16695000
P       11.16165000       1.34697000      11.59177000      -0.01622400       0.21502900       0.17184700
P       10.27593000      11.89413000      12.35433000      -0.21771800       0.37226900      -0.19892700
P        8.16584000       0.09854000      11.85261000      -0.02864700      -0.19832100       0.15277800
P       13.77690000       3.12620000      11.20159000       0.21480800       0.19147300      -0.28583500
P       12.15737000       3.40535000       0.98354000       0.30753900      -0.21553400       0.01414600
P       10.45252000       2.90202000      13.05469000      -0.30592000      -0.17002200      -0.20466300
P        9.40458000       1.86157000       1.37042000       0.05508900       0.02537900      -0.35058300
P        7.55619000       1.51609000       0.15572000       0.15768300       0.25025400       0.23836300
P       13.37872000       4.56250000      12.87660000       0.10534900       0.01744300      -0.21294100
P       13.41294000       1.59319000       0.76070000       0.07584900      -0.17348600       0.34771900
P       10.24094000      12.20672000       1.19632000      -0.15897400      -0.20219800       0.12194000
P       12.35360000      12.32120000       1.74348000       0.28854700      -0.01197800      -0.30388900
P        1.55096000       5.13427000      11.95313000       0.33983900      -0.26151000       0.16693200
P        3.72788000       4.84895000      11.59177000       0.01609500      -0.21495100       0.17188800
P        4.61360000       6.69360000      12.35433000       0.21770000      -0.37237500      -0.19895800
P        6.72369000       6.09738000      11.85261000       0.02863900       0.19836600       0.15278800
P        1.11262000       3.06972000      11.20159000      -0.21480400      -0.19148200      -0.28582900
P        2.73215000       2.79057000       0.98354000      -0.30745100       0.21560700       0.01412300
P        4.43701000       3.29390000      13.05469000       0.30582500       0.17003200      -0.20465100
P        5.48494000       4.33435000       1.37042000      -0.05501600      -0.02521600      -0.35059500
P        7.33334000       4.67984000       0.15572000      -0.15774000      -0.25028700       0.23840500
P        1.51081000       1.63342000      12.87660000      -0.10543100      -0.01743400      -0.21296200
P        1.47659000       4.60274000       0.76070000      -0.07586400       0.17344400       0.34772500
P        4.64859000       6.38102000       1.19632000       0.15899100       0.20204000       0.12195600
P        2.53593000       6.26653000       1.74348000      -0.28853300       0.01199200      -0.30390000
P        5.89381000       5.13427000       8.06739000      -0.33965700      -0.26148600      -0.16692200
P        3.71691000       4.84895000       8.42875000      -0.01625500      -0.21496400      -0.17187300
P        2.83119000       6.69360000       7.66619000      -0.21770100      -0.37235700       0.19897900
P        0.72110000       6.09738000       8.16790000      -0.02864400       0.19839400      -0.15265500
P        6.33215000       3.06972000       8.81893000       0.21489000      -0.19147600       0.28584100
P        4.71263000       2.79057000       5.68996000       0.30757300       0.21560400      -0.01406500
P        3.00778000       3.29390000       6.96583000      -0.30588800       0.17003600       0.20464000
P        1.95984000       4.33435000       5.30309000       0.05510500      -0.02522200       0.35057400
P        0.11145000       4.67984000       6.51779000       0.15766800      -0.25032300      -0.23843100
P        5.93398000       1.63342000       7.14392000       0.10532000      -0.01740900       0.21290400
P        5.96820000       4.60274000       5.91281000       0.07579000       0.17341400      -0.34778700
P        2.79620000       6.38102000       5.47719000      -0.15908400       0.20202300      -0.12196300
P        4.90885000       6.26653000       4.93003000       0.28863300       0.01192900       0.30385100
P        8.99570000       1.06165000       8.06739000       0.33985500       0.26153900      -0.16692000
P       11.17262000       1.34698000       8.42875000       0.01609400       0.21490600      -0.17185600
P       12.05834000      11.89413000       7.66619000       0.21767000       0.37233900       0.19896300
P       14.16843000       0.09854000       8.16790000       0.02864700      -0.19831500      -0.15264800
P        8.55736000       3.12620000       8.81893000      -0.21485200       0.19149300       0.28583500
P       10.17689000       3.40535000       5.68996000      -0.30742200      -0.21555000      -0.01404800
P       11.88175000       2.90202000       6.96583000       0.30580100      -0.16993300       0.20461400
P       12.92968000       1.86157000       5.30309000      -0.05498100       0.02536400       0.35054700
P       14.77808000       1.51609000       6.51779000      -0.15771100       0.25028300      -0.23842300
P        8.95555000       4.56250000       7.14392000      -0.10538300       0.01744600       0.21295900
P        8.92133000       1.59319000       5.91281000      -0.07589900      -0.17351100      -0.34775500
P       12.09333000      12.20672000       5.47719000       0.15895200      -0.20222600      -0.12197300
P        9.98067000      12.32120000       4.93003000      -0.28853600      -0.01196900       0.30385400
P        1.55096000      11.33017000       1.39388000       0.33983600      -0.26151700      -0.16694300
P        3.72788000      11.04485000       1.75524000       0.01609100      -0.21491200      -0.17185800
P        4.61360000       0.49770000       0.99268000       0.21767900      -0.37236300       0.19896900
P        6.72369000      12.29329000       1.49440000       0.02863200       0.19830700      -0.15278700
P        1.11262000       9.26562000       2.14542000      -0.21479700      -0.19145000       0.28585800
P        2.73215000       8.98647000      12.36347000      -0.30738000       0.21557800      -0.01410200
P        4.43701000       9.48980000       0.29233000       0.30584300       0.17005100       0.20453000
P        5.48494000      10.53025000      11.97659000      -0.05504100      -0.02524100       0.35065300
P        7.33334000      10.87574000      13.19129000      -0.15774300      -0.25027400      -0.23839700
P        1.51081000       7.82933000       0.47041000      -0.10542100      -0.01753300       0.21296800
P        1.47659000      10.79863000      12.58631000      -0.07586300       0.17357800      -0.34774800
P        4.64859000       0.18512000      12.15069000       0.15899500       0.20201700      -0.12195000
P        2.53593000       0.07063000      11.60353000      -0.28854600       0.01190500       0.30391300
P       13.33855000       7.25756000       1.39388000      -0.33964200       0.26142400      -0.16695600
P       11.16165000       7.54288000       1.75524000      -0.01623700       0.21490500      -0.17181400
P       10.27593000       5.69823000       0.99268000      -0.21769100       0.37233300       0.19895700
P        8.16584000       6.29444000       1.49440000      -0.02864400      -0.19830000      -0.15278300
P       13.77690000       9.32210000       2.14542000       0.21481400       0.19153500       0.28585600
P       12.15737000       9.60125000      12.36347000       0.30749100      -0.21555200      -0.01410900
P       10.45252000       9.09792000       0.29233000      -0.30592000      -0.16995300       0.20452200
P        9.40458000       8.05747000      11.97659000       0.05511900       0.02531900       0.35063700
P        7.55619000       7.71199000      13.19129000       0.15768100       0.25020500      -0.23838000
P       13.37872000      10.75840000       0.47041000       0.10535200       0.01746400       0.21294300
P       13.41294000       7.78909000      12.58631000       0.07584800      -0.17346900      -0.34773300
P       10.24094000       6.01081000      12.15069000      -0.15899200      -0.20210000      -0.12194700
P       12.35360000       6.12530000      11.60353000       0.28853800      -0.01199700       0.30389500
P        8.99570000       7.25755000       5.27962000       0.33984600       0.26155300       0.16701700
P       11.17262000       7.54288000       4.91827000       0.01607500       0.21490400       0.17177000
P       12.05834000       5.69823000       5.68082000       0.21768700       0.37231800      -0.19885600
P       14.16843000       6.29444000       5.17911000       0.02865600      -0.19830800       0.15272400
P        8.55736000       9.32210000       4.52808000      -0.21484500       0.19148700      -0.28582900
P       10.17689000       9.60125000       7.65705000      -0.30742000      -0.21553600       0.01407500
P       11.88175000       9.09792000       6.38118000       0.30580900      -0.16992200      -0.20459100
P       12.92968000       8.05747000       8.04392000      -0.05499500       0.02538500      -0.35049200
P       14.77808000       7.71199000       6.82923000      -0.15769700       0.25024500       0.23836000
P        8.95555000      10.75840000       6.20309000      -0.10540200       0.01742400      -0.21293200
P        8.92133000       7.78909000       7.43421000      -0.07590500      -0.17351500       0.34765600
P       12.09333000       6.01082000       7.86983000       0.15895300      -0.20224800       0.12187000
P        9.98067000       6.12530000       8.41699000      -0.28854200      -0.01198500      -0.30389900
P        5.89381000      11.33017000       5.27962000      -0.33964800      -0.26150000       0.16701700
P        3.71691000      11.04485000       4.91827000      -0.01624300      -0.21495700       0.17178500
P        2.83119000       0.49770000       5.68082000      -0.21770000      -0.37234300      -0.19886700
P        0.72110000      12.29329000       5.17911000      -0.02865200       0.19831800       0.15272200
P        6.33215000       9.26562000       4.52808000       0.21488200      -0.19147000      -0.28583500
P        4.71263000       8.98647000       7.65705000       0.30756900       0.21559000       0.01409200
P        3.00778000       9.48980000       6.38118000      -0.30589800       0.17003100      -0.20461500
P        1.95984000      10.53025000       8.04392000       0.05512300      -0.02522300      -0.35053000
P        0.11145000      10.87574000       6.82923000       0.15767800      -0.25029000       0.23831200
P        5.93398000       7.82932000       6.20309000       0.10533900      -0.01738400      -0.21287800
P        5.96820000      10.79864000       7.43421000       0.07579500       0.17342600       0.34769000
P        2.79620000       0.18512000       7.86983000      -0.15908700       0.20203100       0.12186700
P        4.90885000       0.07063000       8.41699000       0.28863700       0.01194200      -0.30389500
104
Lattice="12.943911 0.24864 -0.016578 0.24758 13.078507 -0.10008 -0.023239 -0.133746 16.279084" Properties=species:S:1:pos:R:3:forces:R:3 energy=-563.690326235249 hash=e4724269cb8291177014383e86479694 virial="9.43688046502 -2.29643045408 -1.48755793306 -2.29643045408 17.2412984863 -0.689551531013 -1.48755793306 -0.689551531013 -1.39997563866" config_type=rss_3c pressure=0.0030588429534144515 uploaded="2020-04-10 10:56:53.299000" hash_structure=2f85a93544bd858272d2942ccbbe2898 filename=rss_3c/rss_3c_mbd2.xyz username=gabor stress="0.002741109278672519 0.00030652438299849747 0.00045330119711310663 0.00030652438299849747 0.0010523300764829098 0.0003377188122547014 0.00045330119711310663 0.0003377188122547014 0.005425863114569138" volume=2754.658509512892 n_atoms=104 free_energy=-568.50559371 modified="2020-04-10 10:56:53.299000" formula=P104 miguel_caro=T pbc="T T T"
P       11.56466000      11.71978000       2.43582000      -0.30255200       0.05744800      -0.45888300
P       11.51399000      10.28244000       4.11301000       0.00944400      -0.23835000      -0.16331800
P       11.50866000      11.84246000       5.67230000      -0.36174900      -0.10230000       0.55252300
P       11.32961000      10.55544000       7.56835000       0.42036100       0.19824100      -0.11344300
P       11.36653000      10.43519000       0.54418000       0.53551700       0.14895700       0.13303100
P        8.41953000      10.30399000       2.34860000       0.27770400      -0.32803500       0.07123500
P        9.47892000       9.35829000       4.07124000      -0.23162300       0.21759500       0.02138900
P        8.37528000      10.36833000       5.72777000       0.41447700      -0.36103700       0.05176100
P        9.52161000       9.27819000       7.32820000      -0.49647000      -0.40380100      -0.35251800
P        9.55102000       9.18788000       0.76564000      -0.49914200      -0.70806300       0.40181300
P        9.42757000      12.27072000       2.11207000      -0.14049300       0.43096200       0.48543000
P        9.36073000      12.35953000       5.93696000      -0.19573700       0.32722000      -0.45029900
P        8.55582000      12.90350000       3.99024000      -0.16547400       0.71880000       0.05638300
P        1.67220000       1.41810000       2.34905000       0.36237500       0.10717700      -0.55665500
P        1.66806000       2.97743000       3.90906000      -0.01821600       0.23407200       0.16942300
P        1.61706000       1.53883000       5.58569000       0.30408400      -0.05085500       0.46228100
P        1.81424000       2.82386000       7.47870000      -0.55201500      -0.15685700      -0.14407400
P        1.84999000       2.70680000       0.45327000      -0.42326800      -0.19221400       0.11715400
P        4.80419000       2.89448000       2.29303000      -0.40779000       0.35812400      -0.04769200
P        3.70225000       3.90173000       3.95210000       0.23469500      -0.21595300      -0.02572300
P        4.76254000       2.95520000       5.67444000      -0.28379400       0.32817100      -0.07616600
P        3.62796000       4.07029000       7.25545000       0.51187200       0.72439000      -0.39026000
P        3.65850000       3.98484000       0.69258000       0.49191900       0.39389500       0.35451700
P        3.81996000       0.90254000       2.08223000       0.19805100      -0.32838100       0.45286300
P        3.75452000       0.98849000       5.90958000       0.13747800      -0.43255400      -0.48921500
P        4.62487000       0.35887000       4.02936000       0.16822800      -0.72667100      -0.04834200
P       11.41600000       1.89460000      13.69041000      -0.11775800       0.44542500       0.47961700
P        9.95914000       2.00931000      12.04039000      -0.44319500       0.00735700       0.12248400
P       11.45166000       2.02195000      10.44108000      -0.21643500       0.40027100      -0.56495600
P       10.03836000       2.21202000       8.63452000       0.39522200      -0.39345500       0.06725500
P       10.04498000       2.01667000      15.52042000       0.18135000      -0.39862800       0.07780400
P        9.97948000       5.06385000      13.83963000      -0.30038100      -0.38775400       0.05291300
P        9.02188000       4.06409000      12.10844000       0.17058600      -0.07484900       0.05353800
P        9.95475000       5.17064000      10.43283000      -0.28816100      -0.34233700      -0.04195100
P        8.74879000       4.00422000       8.89693000      -0.14017100       0.52478100       0.41512400
P        8.76321000       3.83317000      15.32729000      -0.10665600       0.56374600      -0.42123800
P       11.95476000       4.03374000      14.03792000       0.32637400       0.16933500      -0.39150300
P       11.94706000       4.18053000      10.21152000       0.38755200       0.17434500       0.32613900
P       12.64760000       4.88573000      12.15138000       0.67967900       0.11507500       0.03304100
P        1.70872000      11.10480000      13.86087000       0.21485200      -0.39828200       0.57405100
P        3.20044000      11.11226000      12.26045000       0.43798200      -0.02065600      -0.11255100
P        1.74096000      11.23315000      10.61258000       0.11597100      -0.45088200      -0.48077800
P        3.10908000      11.10916000       8.78138000      -0.17745400       0.39882000      -0.07780600
P        3.12012000      10.91159000      15.66957000      -0.39256900       0.40836900      -0.07685800
P        3.19611000       7.95153000      13.87593000       0.29048100       0.34089900       0.02580300
P        4.12529000       9.05142000      12.19393000      -0.14811600       0.08199300      -0.06341500
P        3.16668000       8.05938000      10.45833000       0.30968300       0.38777700      -0.04018000
P        4.39014000       9.29231000       8.97700000       0.10158400      -0.56314200       0.41998400
P        4.40873000       9.11986000      15.40567000       0.13822500      -0.52979300      -0.41447100
P        1.20749000       8.94784000      14.09532000      -0.39918300      -0.16973600      -0.32835800
P        1.19460000       9.09534000      10.26306000      -0.32553200      -0.16019400       0.39531100
P        0.50942000       8.24536000      12.15346000      -0.68657700      -0.11943600      -0.03807800
P       10.84316000       2.22637000       2.48414000      -0.21583700       0.14738300       0.26543300
P       11.28758000       3.80122000       3.98025000       0.34514900      -0.28281000       0.09703700
P       10.81080000       2.29253000       5.54161000      -0.19864100       0.22838100      -0.50015500