48
Lattice="5.95595 0.0 0.0 0.0 14.272259999999994 -2.231539164024012e-15 0.0 -7.136129999999995 12.360139729416492" Properties=species:S:1:pos:R:3:initial_magmoms:R:1:castep_labels:S:1 n_minim_iter=1 pbc="T T T"
P        3.78021049       5.04329432       8.57110429       0.00000000 NULL
P        5.76552716       4.32781950       0.08206762       0.00000000 NULL
P        1.79489382      12.03727832       3.70696659       0.00000000 NULL
P        1.99678822       9.65431899       4.82649860       0.00000000 NULL
P        3.98210489       5.26523082       5.94763497       0.00000000 NULL
P        0.01147155       6.48884233       1.58600493       0.00000000 NULL
P        4.79624851       5.73954797      11.16535424       0.00000000 NULL
P        0.82561518      -5.40312369      11.74805572       0.00000000 NULL
P        2.81093184      -0.33642214       1.80686826       0.00000000 NULL
P        1.18246096       4.98651356      11.40953621       0.00000000 NULL
P        3.16777763      -5.23807427      10.97381781       0.00000000 NULL
P        5.15309429       0.25156285       2.33692421       0.00000000 NULL
P        1.58430474       8.81242692       7.55874457       0.00000000 NULL
P        3.56962141       3.31998244       3.85241206       0.00000000 NULL
P        5.55493807       9.27598278       0.94898186       0.00000000 NULL
P        2.39750454       4.59674813       4.92178045       0.00000000 NULL
P        4.38282121       7.71149975       1.52000920       0.00000000 NULL
P        0.41218787       9.10014426       5.91834885       0.00000000 NULL
P        0.08200688       5.13887065       9.68078156       0.00000000 NULL
P        2.06732355      -3.81710737      11.97014024       0.00000000 NULL
P        4.05264021      -1.32176114       3.06935642       0.00000000 NULL
P        2.67960632       2.63721964       8.46211257       0.00000000 NULL
P        4.66492299      -1.51088356      10.41298141       0.00000000 NULL
P        0.69428965      -1.12633394       5.84518424       0.00000000 NULL
P        5.35271232       4.22850741       6.99277748       0.00000000 NULL
P        1.38207899       6.10208407       0.16560486       0.00000000 NULL
P        3.36739565      11.07780066       5.20175615       0.00000000 NULL
P        3.48243860      11.53995642       1.33977364       0.00000000 NULL
P        5.46775527       7.34200450       9.32400736       0.00000000 NULL
P        1.49712193       2.52643122       1.69635749       0.00000000 NULL
P        2.18186877       1.81309867       3.69941578       0.00000000 NULL
P        4.16718544       3.02579333      12.08062011       0.00000000 NULL
P        0.19655210      -4.83888986       8.94024233       0.00000000 NULL
P        5.32880872      11.55012113       2.26032224       0.00000000 NULL
P        1.35817539       6.53970367       8.87253596       0.00000000 NULL
P        3.34349205       3.31856734       1.22728029       0.00000000 NULL
P        2.41840397      -1.99186872       6.52148535       0.00000000 NULL
P        4.40372064       2.48429309       7.37438691       0.00000000 NULL
P        0.43308730      -0.49242223      10.82440597       0.00000000 NULL
P        4.84919512       0.47577935       9.63466094       0.00000000 NULL
P        0.87856179      -1.44562009       7.95484503       0.00000000 NULL
P        2.86387845       0.96984288       7.13077226       0.00000000 NULL
P        1.36283869       2.16653335       6.42424443       0.00000000 NULL
P        3.34815536       0.48930516      11.02428920       0.00000000 NULL
P        5.33347202      -2.65583637       7.27174460       0.00000000 NULL
P        2.61137377       6.61503123       5.06282695       0.00000000 NULL
P        4.59669044       6.58020834       3.19737038       0.00000000 NULL
P        0.62605710       8.21315256       4.09994116       0.00000000 NULL
48
Lattice="5.998993521455583 1.4990587720440375e-58 5.197045796949411e-43 -1.208363139239604e-58 14.352906870113994 1.2410946664584488e-15 -7.922461040397606e-43 -7.176453435056998 12.42998196767092" Properties=species:S:1:pos:R:3:initial_magmoms:R:1:castep_labels:S:1 n_minim_iter=2 pbc="T T T"
P        3.80753576       5.07182257       8.61948531       0.00000000 NULL
P        5.80720027       4.35230306       0.08258329       0.00000000 NULL
P        1.80787125      12.10523683       3.72791213       0.00000000 NULL
P        2.01133148       9.70884904       4.85353383       0.00000000 NULL
P        4.01099599       5.29519947       5.98134176       0.00000000 NULL
P        0.01166698       6.52531394       1.59510514       0.00000000 NULL
P        4.83083480       5.77202231      11.22868499       0.00000000 NULL
P        0.83150579      -5.43388345      11.81435618       0.00000000 NULL
P        2.83117030      -0.33813670       1.81692153       0.00000000 NULL
P        1.19100529       5.01471919      11.47414784       0.00000000 NULL
P        3.19066980      -5.26780895      11.03578101       0.00000000 NULL
P        5.19033430       0.25309192       2.35003384       0.00000000 NULL
P        1.59605624       8.86214891       7.60154920       0.00000000 NULL
P        3.59572075       3.33869842       3.87407024       0.00000000 NULL
P        5.59538525       9.32851513       0.95436128       0.00000000 NULL
P        2.41438880       4.62250824       4.94957309       0.00000000 NULL
P        4.41405330       7.75519743       1.52842177       0.00000000 NULL
P        0.41472429       9.15165679       5.95198586       0.00000000 NULL
P        0.08257583       5.16760780       9.73530082       0.00000000 NULL
P        2.08224034      -3.83836757      12.03760995       0.00000000 NULL
P        4.08190484      -1.32923808       3.08705193       0.00000000 NULL
P        2.69869401       2.65222403       8.51004751       0.00000000 NULL
P        4.69835852      -1.51957519      10.47185036       0.00000000 NULL
P        0.69902950      -1.13264669       5.87806483       0.00000000 NULL
P        5.39166163       4.25252407       7.03238792       0.00000000 NULL
P        1.39233262       6.13641897       0.16659867       0.00000000 NULL
P        3.39199712      11.14041942       5.23099413       0.00000000 NULL
P        3.50736174      11.60512617       1.34723905       0.00000000 NULL
P        5.50702625       7.38360126       9.37671332       0.00000000 NULL
P        1.50769724       2.54063502       1.70602836       0.00000000 NULL
P        2.19751895       1.82318959       3.72036909       0.00000000 NULL
P        4.19718346       3.04292522      12.14872468       0.00000000 NULL
P        0.19785444      -4.86611265       8.99086893       0.00000000 NULL
P        5.36765137      11.61523752       2.27311674       0.00000000 NULL
P        1.36832236       6.57671198       8.92253115       0.00000000 NULL
P        3.36798686       3.33741296       1.23433283       0.00000000 NULL
P        2.43608354      -2.00303511       6.55858786       0.00000000 NULL
P        4.43574805       2.49806801       7.41600750       0.00000000 NULL
P        0.43641904      -0.49503074      10.88536733       0.00000000 NULL
P        4.88433428       0.47861270       9.68888503       0.00000000 NULL
P        0.88500526      -1.45367277       8.00002896       0.00000000 NULL
P        2.88466977       0.97506222       7.17104870       0.00000000 NULL
P        1.37258601       2.17888708       6.46051108       0.00000000 NULL
P        3.37225052       0.49204389      11.08669675       0.00000000 NULL
P        5.37191502      -2.67092882       7.31275486       0.00000000 NULL
P        2.63021898       6.65273575       5.09139484       0.00000000 NULL
P        4.62988348       6.61726244       3.21573950       0.00000000 NULL
P        0.63055447       8.25936427       4.12284639       0.00000000 NULL
48
Lattice="6.211198583269999 2.6176214720390765e-44 -4.257487675867922e-43 6.262796763326221e-44 14.749326471859288 1.813203247086463e-15 -3.1463463428558e-42 -7.374663235929646 12.773291413340454" Properties=species:S:1:pos:R:3:initial_magmoms:R:1:castep_labels:S:1 n_minim_iter=3 pbc="T T T"
P        3.94230195       5.21205632       8.85719001       0.00000000 NULL
P        6.01270148       4.47274750       0.08517690       0.00000000 NULL
P        1.87190242      12.43918810       3.83092323       0.00000000 NULL
P        2.08304205       9.97686579       4.98625499       0.00000000 NULL
P        4.15344157       5.44267082       6.14709045       0.00000000 NULL
P        0.01264252       6.70445531       1.63994469       0.00000000 NULL
P        5.00140169       5.93164036      11.54011817       0.00000000 NULL
P        0.86060263      -5.58519171      12.14018229       0.00000000 NULL
P        2.93100216      -0.34644645       1.86628109       0.00000000 NULL
P        1.23301407       5.15342675      11.79179740       0.00000000 NULL
P        3.30341360      -5.41404551      11.34038992       0.00000000 NULL
P        5.37381313       0.26062097       2.41439423       0.00000000 NULL
P        1.65413082       9.10653546       7.81202646       0.00000000 NULL
P        3.72453035       3.43064611       3.98047654       0.00000000 NULL
P        5.79492988       9.58681035       0.98078713       0.00000000 NULL
P        2.49738309       4.74900761       5.08621041       0.00000000 NULL
P        4.56778262       7.97003598       1.56965475       0.00000000 NULL
P        0.42698356       9.40494833       6.11742498       0.00000000 NULL
P        0.08538614       5.30866785      10.00322142       0.00000000 NULL
P        2.15578566      -3.94271382      12.36912064       0.00000000 NULL
P        4.22618519      -1.36595181       3.17423949       0.00000000 NULL
P        2.79263323       2.72601990       8.74561061       0.00000000 NULL
P        4.86303276      -1.56226693      10.76128732       0.00000000 NULL
P        0.72223370      -1.16375076       6.03968362       0.00000000 NULL
P        5.58378419       4.37066535       7.22718897       0.00000000 NULL
P        1.44298513       6.30506529       0.17151146       0.00000000 NULL
P        3.51338466      11.44826128       5.37458971       0.00000000 NULL
P        3.63013493      11.92544114       1.38387143       0.00000000 NULL
P        5.70053446       7.58813883       9.63579799       0.00000000 NULL
P        1.55973540       2.61041195       1.75362073       0.00000000 NULL
P        2.27463101       1.87274475       3.82338817       0.00000000 NULL
P        4.34503054       3.12714032      12.48344058       0.00000000 NULL
P        0.20423149      -4.99988285       9.23975280       0.00000000 NULL
P        5.55928070      11.93523415       2.33601085       0.00000000 NULL
P        1.41848164       6.75866540       9.16820928       0.00000000 NULL
P        3.48888117       3.43009237       1.26907001       0.00000000 NULL
P        2.52332816      -2.05784021       6.74111702       0.00000000 NULL
P        4.59372769       2.56560549       7.62058973       0.00000000 NULL
P        0.45292863      -0.50776307      11.18487481       0.00000000 NULL
P        5.05759999       0.49259044       9.95534974       0.00000000 NULL
P        0.91680093      -1.49321703       8.22221110       0.00000000 NULL
P        2.98720046       1.00062880       7.36902071       0.00000000 NULL
P        1.42066420       2.23966746       6.63883450       0.00000000 NULL
P        3.49106373       0.50543091      11.39348181       0.00000000 NULL
P        5.56146325      -2.74509616       7.51426524       0.00000000 NULL
P        2.72315206       6.83823150       5.23177630       0.00000000 NULL
P        4.79355159       6.79936028       3.30619277       0.00000000 NULL
P        0.65275254       8.48640014       4.23532107       0.00000000 NULL
48
Lattice="6.234322660539473 4.2273485460615925e-44 -1.4957165329828112e-42 1.008288376778209e-43 14.810409616727599 -1.6260539570939665e-15 -5.104452149171408e-42 -7.4052048083637985 12.826190968539457" Properties=species:S:1:pos:R:3:initial_magmoms:R:1:castep_labels:S:1 n_minim_iter=4 pbc="T T T"
P        3.95733712       5.23359325       8.89319326       0.00000000 NULL
P        6.03544467       4.49188244       0.08582680       0.00000000 NULL
P        1.87922957      12.49014095       3.84716963       0.00000000 NULL
P        2.09089390      10.01802985       5.00583298       0.00000000 NULL
P        4.16900145       5.46621691       6.17295057       0.00000000 NULL
P        0.01278635       6.73136989       1.64740614       0.00000000 NULL
P        5.02037831       5.95621232      11.58868379       0.00000000 NULL
P        0.86416321      -5.60899517      12.19007897       0.00000000 NULL
P        2.94227076      -0.34721492       1.87361790       0.00000000 NULL
P        1.23692271       5.17512364      11.84095377       0.00000000 NULL
P        3.31503027      -5.43692304      11.38750134       0.00000000 NULL
P        5.39313782       0.26180163       2.42392554       0.00000000 NULL
P        1.66111724       9.14406860       7.84482234       0.00000000 NULL
P        3.73922480       3.44456063       3.99658325       0.00000000 NULL
P        5.81733235       9.62698742       0.98478410       0.00000000 NULL
P        2.50523770       4.76788129       5.10741135       0.00000000 NULL
P        4.58334525       8.00332173       1.57539936       0.00000000 NULL
P        0.42713015       9.44441362       6.14337897       0.00000000 NULL
P        0.08567013       5.32940632      10.04413870       0.00000000 NULL
P        2.16377768      -3.95797688      12.41952160       0.00000000 NULL
P        4.24188523      -1.37142722       3.18872036       0.00000000 NULL
P        2.80205789       2.73761655       8.78146107       0.00000000 NULL
P        4.88016545      -1.56857109      10.80630463       0.00000000 NULL
P        0.72395034      -1.16904324       6.06461495       0.00000000 NULL
P        5.60515125       4.38929790       7.25776557       0.00000000 NULL
P        1.44893615       6.33035205       0.17235942       0.00000000 NULL
P        3.52704370      11.49596670       5.39606470       0.00000000 NULL
P        3.64305572      11.97467921       1.38919764       0.00000000 NULL
P        5.72116327       7.61999031       9.67577630       0.00000000 NULL
P        1.56494816       2.62094713       1.76121575       0.00000000 NULL
P        2.28281969       1.88019995       3.83935154       0.00000000 NULL
P        4.36092724       3.14012961      12.53481484       0.00000000 NULL
P        0.20471213      -5.02032734       9.27821428       0.00000000 NULL
P        5.58085167      11.98413535       2.34567341       0.00000000 NULL
P        1.42463656       6.78692992       9.20572767       0.00000000 NULL
P        3.50274412       3.44455138       1.27478861       0.00000000 NULL
P        2.53323380      -2.06585577       6.76999632       0.00000000 NULL
P        4.61134135       2.57514464       7.65210795       0.00000000 NULL
P        0.45512624      -0.50928665      11.23027639       0.00000000 NULL
P        5.07656883       0.49499046       9.99604988       0.00000000 NULL
P        0.92035372      -1.49912281       8.25683906       0.00000000 NULL
P        2.99846127       1.00413457       7.39949172       0.00000000 NULL
P        1.42612518       2.24933912       6.66666475       0.00000000 NULL
P        3.50423273       0.50703495      11.44084213       0.00000000 NULL
P        5.58234029      -2.75637185       7.54487377       0.00000000 NULL
P        2.73337981       6.86757448       5.25312635       0.00000000 NULL
P        4.81148737       6.82728225       3.32092950       0.00000000 NULL
P        0.65527226       8.52075992       4.25213383       0.00000000 NULL
48
Lattice="6.230795191804329 4.898036823594538e-44 -2.2628772763582015e-42 1.1659904765657522e-43 14.826008830803172 1.070043129595719e-15 -6.037285688630801e-42 -7.413004415401588 12.839700284207971" Properties=species:S:1:pos:R:3:initial_magmoms:R:1:castep_labels:S:1 n_minim_iter=5 pbc="T T T"
P        3.95555877       5.23900290       8.90172916       0.00000000 NULL
P        6.03249050       4.49738453       0.08624374       0.00000000 NULL
P        1.87862704      12.50262804       3.85172610       0.00000000 NULL
P        2.08974361      10.02840144       5.00991445       0.00000000 NULL
P        4.16667534       5.47309567       6.17989189       0.00000000 NULL
P        0.01281188       6.73751837       1.64989265       0.00000000 NULL
P        5.01806680       5.96247210      11.60169269       0.00000000 NULL
P        0.86420334      -5.61559149      12.20250497       0.00000000 NULL
P        2.94113507      -0.34687839       1.87520163       0.00000000 NULL
P        1.23534847       5.18100139      11.85373013       0.00000000 NULL
P        3.31228020      -5.44312696      11.39971276       0.00000000 NULL
P        5.38921193       0.26212779       2.42595640       0.00000000 NULL
P        1.66099603       9.15352234       7.85357602       0.00000000 NULL
P        3.73792776       3.44785205       4.00039359       0.00000000 NULL
P        5.81485949       9.63764107       0.98572939       0.00000000 NULL
P        2.50232978       4.77206356       5.11297945       0.00000000 NULL
P        4.57926151       8.01200770       1.57623726       0.00000000 NULL
P        0.42539805       9.45494421       6.15048229       0.00000000 NULL
P        0.08558808       5.33365138      10.05419269       0.00000000 NULL
P        2.16251981      -3.96100682      12.43168025       0.00000000 NULL
P        4.23945154      -1.37264234       3.19352635       0.00000000 NULL
P        2.79943917       2.74081347       8.79013656       0.00000000 NULL
P        4.87637090      -1.56988314      10.81824481       0.00000000 NULL
P        0.72250744      -1.17092810       6.07101792       0.00000000 NULL
P        5.60251138       4.39450167       7.26617630       0.00000000 NULL
P        1.44864792       6.33606547       0.17266065       0.00000000 NULL
P        3.52557965      11.50844833       5.40086205       0.00000000 NULL
P        3.64042475      11.98712813       1.39021283       0.00000000 NULL
P        5.71735648       7.62848588       9.68604978       0.00000000 NULL
P        1.56349302       2.62340145       1.76343639       0.00000000 NULL
P        2.28125791       1.88191824       3.84351033       0.00000000 NULL
P        4.35818964       3.14346845      12.54773284       0.00000000 NULL
P        0.20432618      -5.02538447       9.28815611       0.00000000 NULL
P        5.57855929      11.99619372       2.34810622       0.00000000 NULL
P        1.42469583       6.79439307       9.21495412       0.00000000 NULL
P        3.50162756       3.44842867       1.27663866       0.00000000 NULL
P        2.53231140      -2.06746140       6.77816358       0.00000000 NULL
P        4.60924313       2.57667401       7.66014312       0.00000000 NULL
P        0.45537967      -0.50921038      11.24109259       0.00000000 NULL
P        5.07379912       0.49586475      10.00605560       0.00000000 NULL
P        0.91993566      -1.50042556       8.26610267       0.00000000 NULL
P        2.99686739       1.00456303       7.40724102       0.00000000 NULL
P        1.42561720       2.25214457       6.67414361       0.00000000 NULL
P        3.50254893       0.50695495      11.45304160       0.00000000 NULL
P        5.57948066      -2.75909730       7.55221407       0.00000000 NULL
P        2.73195385       6.87584613       5.25827487       0.00000000 NULL
P        4.80888558       6.83428689       3.32551870       0.00000000 NULL
P        0.65502212       8.52888245       4.25590543       0.00000000 NULL
48
Lattice="6.220553752785101 5.29039683595117e-44 -2.872386994141603e-41 1.2568384992543288e-43 14.833596477901455 1.788490484483519e-15 -6.156036016133366e-41 -7.41679823895073 12.846271379350037" Properties=species:S:1:pos:R:3:initial_magmoms:R:1:castep_labels:S:1 n_minim_iter=6 pbc="T T T"
P        3.94964182       5.24154731       8.90522762       0.00000000 NULL
P        6.02315974       4.50067022       0.08669803       0.00000000 NULL
P        1.87612391      12.50817942       3.85434444       0.00000000 NULL
P        2.08633191      10.03330480       5.01099417       0.00000000 NULL
P        4.15984983       5.47729657       6.18359847       0.00000000 NULL
P        0.01281399       6.73979557       1.65167745       0.00000000 NULL
P        5.01051787       5.96550170      11.60862704       0.00000000 NULL
P        0.86348203      -5.61931779      12.20823259       0.00000000 NULL
P        2.93699995      -0.34618168       1.87568184       0.00000000 NULL
P        1.23219933       5.18419517      11.86017276       0.00000000 NULL
P        3.30571725      -5.44650951      11.40582843       0.00000000 NULL
P        5.37923517       0.26231656       2.42654028       0.00000000 NULL
P        1.65926114       9.15799152       7.85819870       0.00000000 NULL
P        3.73277906       3.44920176       4.00195267       0.00000000 NULL
P        5.80629697       9.64320366       0.98611873       0.00000000 NULL
P        2.49639600       4.77348812       5.11583894       0.00000000 NULL
P        4.56991392       8.01640668       1.57604122       0.00000000 NULL
P        0.42287808       9.46050215       6.15438993       0.00000000 NULL
P        0.08540678       5.33467529      10.05868566       0.00000000 NULL
P        2.15892470      -3.96161597      12.43689159       0.00000000 NULL
P        4.23244261      -1.37305709       3.19696423       0.00000000 NULL
P        2.79355108       2.74259369       8.79388065       0.00000000 NULL
P        4.86706900      -1.57022191      10.82448558       0.00000000 NULL
P        0.72003316      -1.17236956       6.07417524       0.00000000 NULL
P        5.59393797       4.39746424       7.27086615       0.00000000 NULL
P        1.44690213       6.33811030       0.17288139       0.00000000 NULL
P        3.52042005      11.51482240       5.40252256       0.00000000 NULL
P        3.63374672      11.99305550       1.39035491       0.00000000 NULL
P        5.70726464       7.63298680       9.69111199       0.00000000 NULL
P        1.56022881       2.62435464       1.76480319       0.00000000 NULL
P        2.27717779       1.88257139       3.84560899       0.00000000 NULL
P        4.35069571       3.14511821      12.55382025       0.00000000 NULL
P        0.20365988      -5.02768737       9.29311224       0.00000000 NULL
P        5.57044522      12.00163198       2.34926040       0.00000000 NULL
P        1.42340938       6.79826204       9.21908670       0.00000000 NULL
P        3.49692730       3.45050292       1.27792300       0.00000000 NULL
P        2.52879432      -2.06781989       6.78291703       0.00000000 NULL
P        4.60231223       2.57653047       7.66402702       0.00000000 NULL
P        0.45527640      -0.50870835      11.24559742       0.00000000 NULL
P        5.06557990       0.49654515      10.01052728       0.00000000 NULL
P        0.91854407      -1.50084453       8.27102717       0.00000000 NULL
P        2.99206199       1.00430160       7.41098702       0.00000000 NULL
P        1.42365664       2.25384744       6.67814912       0.00000000 NULL
P        3.49717456       0.50642847      11.45908467       0.00000000 NULL
P        5.57069247      -2.76027369       7.55530768       0.00000000 NULL
P        2.72761350       6.88061871       5.26047249       0.00000000 NULL
P        4.80113142       6.83758505       3.32855307       0.00000000 NULL
P        0.65409558       8.53219318       4.25724453       0.00000000 NULL
48
Lattice="6.060314059748159 5.765144095656992e-43 -5.550912624705745e-41 1.3701597755991381e-42 14.93863709035339 -2.1476894193089816e-15 -1.4223562835702282e-40 -7.469318545176694 12.93723921816249" Properties=species:S:1:pos:R:3:initial_magmoms:R:1:castep_labels:S:1 n_minim_iter=7 pbc="T T T"
P        3.85724550       5.27644808       8.95060325       0.00000000 NULL
P        5.87735019       4.54896401       0.09423516       0.00000000 NULL
P        1.83714082      12.58254579       3.89239952       0.00000000 NULL
P        2.03291298      10.10048872       5.02184190       0.00000000 NULL
P        4.05301767       5.53935082       6.23635758       0.00000000 NULL
P        0.01280829       6.76811834       1.67903844       0.00000000 NULL
P        4.89297166       6.00736415      11.70756872       0.00000000 NULL
P        0.85276228      -5.67341471      12.28598353       0.00000000 NULL
P        2.87286697      -0.33394720       1.88092489       0.00000000 NULL
P        1.18235044       5.22998689      11.95058168       0.00000000 NULL
P        3.20245512      -5.49518147      11.49124859       0.00000000 NULL
P        5.22255981       0.26519683       2.43264687       0.00000000 NULL
P        1.63247000       9.21927742       7.92366357       0.00000000 NULL
P        3.65257468       3.46690519       4.02229537       0.00000000 NULL
P        5.67267937       9.72177527       0.99127899       0.00000000 NULL
P        2.40306918       4.79085228       5.15610053       0.00000000 NULL
P        4.42317387       8.07789765       1.57094823       0.00000000 NULL
P        0.38296450       9.53920794       6.21018917       0.00000000 NULL
P        0.08256996       5.34402960      10.11891678       0.00000000 NULL
P        2.10267465      -3.96593450      12.50584493       0.00000000 NULL
P        4.12277933      -1.37809286       3.24971544       0.00000000 NULL
P        2.70067175       2.76811231       8.84351712       0.00000000 NULL
P        4.72077644      -1.57344734      10.91273495       0.00000000 NULL
P        0.68056706      -1.19466272       6.11822508       0.00000000 NULL
P        5.45999104       4.44026320       7.33860148       0.00000000 NULL
P        1.41978167       6.36309093       0.17607869       0.00000000 NULL
P        3.43988635      11.60460375       5.42255775       0.00000000 NULL
P        3.52888413      12.07443713       1.39048335       0.00000000 NULL
P        5.54898882       7.69722537       9.76152633       0.00000000 NULL
P        1.50877945       2.63629538       1.78522825       0.00000000 NULL
P        2.21314459       1.89078216       3.87489963       0.00000000 NULL
P        4.23324927       3.16816669      12.63725349       0.00000000 NULL
P        0.19303990      -5.05894661       9.36232402       0.00000000 NULL
P        5.44391183      12.07491310       2.36522313       0.00000000 NULL
P        1.40370246       6.85283797       9.27456864       0.00000000 NULL
P        3.42380715       3.48020680       1.29744616       0.00000000 NULL
P        2.47450512      -2.07114110       6.85225590       0.00000000 NULL
P        4.49460981       2.57066216       7.71744917       0.00000000 NULL
P        0.45440043      -0.49951882      11.30477208       0.00000000 NULL
P        4.93711413       0.50706557      10.07035684       0.00000000 NULL
P        0.89690476      -1.50539834       8.34119117       0.00000000 NULL
P        2.91700945       0.99833502       7.46292914       0.00000000 NULL
P        1.39286985       2.27915895       6.73527850       0.00000000 NULL
P        3.41297454       0.49681754      11.54340822       0.00000000 NULL
P        5.43307923      -2.77597425       7.59579042       0.00000000 NULL
P        2.65965108       6.94967238       5.28936497       0.00000000 NULL
P        4.67975576       6.88307721       3.37390905       0.00000000 NULL
P        0.63954639       8.57520829       4.27396390       0.00000000 NULL
48
Lattice="6.139726545619469 1.87289037154525e-43 -4.718604562157702e-41 4.31703669800768e-43 14.906807775677747 -7.758159555994418e-15 -8.354308889716017e-41 -7.453403887838867 12.909674223068338" Properties=species:S:1:pos:R:3:initial_magmoms:R:1:castep_labels:S:1 n_minim_iter=8 pbc="T T T"
P        3.91635349       5.26412712       8.91153241       0.00000000 NULL
P        5.96292900       4.55713151       0.10310032       0.00000000 NULL
P        1.86977797      12.53895527       3.89504021       0.00000000 NULL
P        2.05872219      10.07432002       4.98648163       0.00000000 NULL
P        4.10529770       5.55122875       6.23137496       0.00000000 NULL
P        0.01214667       6.73466514       1.69181635       0.00000000 NULL
P        4.97285393       5.99402148      11.70244759       0.00000000 NULL
P        0.87970290      -5.67822300      12.24942401       0.00000000 NULL
P        2.92627842      -0.31579624       1.86747556       0.00000000 NULL
P        1.17795802       5.22922914      11.93500581       0.00000000 NULL
P        3.22453353      -5.49722816      11.47081531       0.00000000 NULL
P        5.27110905       0.26800125       2.41352604       0.00000000 NULL
P        1.67021787       9.19623438       7.91355575       0.00000000 NULL
P        3.71679338       3.45535102       4.00739343       0.00000000 NULL
P        5.76336890       9.70862850       0.98872376       0.00000000 NULL
P        2.40821462       4.77052976       5.14931035       0.00000000 NULL
P        4.45479014       8.06211007       1.55674350       0.00000000 NULL
P        0.36163911       9.52757407       6.20361909       0.00000000 NULL
P        0.08332370       5.30182946      10.08371831       0.00000000 NULL
P        2.12989921      -3.93026632      12.45933278       0.00000000 NULL
P        4.17647473      -1.37156091       3.27629607       0.00000000 NULL
P        2.71002660       2.76572712       8.81071921       0.00000000 NULL
P        4.75660211      -1.55976558      10.89950327       0.00000000 NULL
P        0.66345108      -1.20595930       6.10912468       0.00000000 NULL
P        5.54209881       4.43964310       7.34107835       0.00000000 NULL
P        1.44894778       6.32942663       0.17430325       0.00000000 NULL
P        3.49552329      11.59114417       5.39429134       0.00000000 NULL
P        3.56153812      12.04310202       1.37273353       0.00000000 NULL