16
Lattice="5.727250646736576 0.0 0.0 0.0 7.160776153356221 1.5576297851386676 0.0 -0.5420588436408142 9.91799231402338" Properties=species:S:1:pos:R:3:initial_magmoms:R:1:castep_labels:S:1:forces:R:3 n_minim_iter=1 energy=-80.801846094916 stress="0.0001823911229443983 0.0 -0.0 0.0 0.002089565224152129 -0.00014026161619262173 -0.0 -0.00014026161619262173 -0.0012211482923016389" free_energy=-80.801846094916 pbc="T T T"
P        4.97083547       0.87673922       9.28596177       0.00000000 NULL      -0.24352000      -0.16248800       0.25740300
P        4.97083547       2.16159002       1.41084544       0.00000000 NULL      -0.24352000       0.16248800      -0.25740300
P        0.75641518       5.74197809       2.18966033       0.00000000 NULL       0.24352000       0.16248800      -0.25740300
P        0.75641518       4.45712729      10.06477666       0.00000000 NULL       0.24352000      -0.16248800       0.25740300
P        4.84283702       4.51420817       2.95558479       0.00000000 NULL      -0.02870200      -0.32421400       0.87172400
P        4.84283702       5.68489722       9.29885220       0.00000000 NULL      -0.02870200       0.32421400      -0.87172400
P        0.88441363       2.10450915       8.52003731       0.00000000 NULL       0.02870200       0.32421400      -0.87172400
P        0.88441363       0.93382009       2.17676990       0.00000000 NULL       0.02870200      -0.32421400       0.87172400
P        3.07718948       4.49741750       9.93257592       0.00000000 NULL       0.14907600      -0.36908000      -0.07082300
P        3.07718948       5.70168788       2.32186108       0.00000000 NULL       0.14907600       0.36908000       0.07082300
P        2.65006116       2.12129981       1.54304618       0.00000000 NULL      -0.14907600       0.36908000       0.07082300
P        2.65006116       0.91702943       9.15376102       0.00000000 NULL      -0.14907600      -0.36908000      -0.07082300
P        3.95118573       5.91640171       4.41987703       0.00000000 NULL      -0.14403400       0.08762900      -0.39979400
P        3.95118573       4.28270368       7.83455997       0.00000000 NULL      -0.14403400      -0.08762900       0.39979400
P        1.77606492       0.70231560       7.05574507       0.00000000 NULL       0.14403400      -0.08762900       0.39979500
P        1.77606492       2.33601363       3.64106213       0.00000000 NULL       0.14403400       0.08762900      -0.39979400
16
Lattice="5.708798245290122 0.0 0.0 0.0 6.904728359331029 1.609291906369591 0.0 -0.49795779277191077 10.133306467771837" Properties=species:S:1:pos:R:3:initial_magmoms:R:1:castep_labels:S:1:forces:R:3 n_minim_iter=2 energy=-80.995310021888 stress="-0.0009204309841813531 0.0 -0.0 0.0 -0.005164769783232429 -0.0028560191768344386 -0.0 -0.0028560191768344386 0.0032841064642925273" free_energy=-80.995310021888 pbc="T T T"
P        4.94438558       0.86108730       9.50225392       0.00000000 NULL      -0.16237800      -0.10472500       0.44968300
P        4.94438558       2.09331909       1.43569850       0.00000000 NULL      -0.16237800       0.10472600      -0.44968300
P        0.76441267       5.54568327       2.24034445       0.00000000 NULL       0.16237800       0.10472500      -0.44968300
P        0.76441267       4.31345148      10.30689987       0.00000000 NULL       0.16237800      -0.10472600       0.44968300
P        4.82600422       4.34431581       3.06952273       0.00000000 NULL       0.14201500      -0.49978300       0.59740900
P        4.82600422       5.51481894       9.47772160       0.00000000 NULL       0.14201500       0.49978300      -0.59740900
P        0.88279402       2.06245476       8.67307565       0.00000000 NULL      -0.14201500       0.49978300      -0.59740900
P        0.88279402       0.89195163       2.26487678       0.00000000 NULL      -0.14201500      -0.49978300       0.59740900
P        3.07366295       4.34336054      10.15747091       0.00000000 NULL       0.25062000      -0.37571500       0.05998000
P        3.07366295       5.51577420       2.38977342       0.00000000 NULL       0.25061900       0.37571400      -0.05998000
P        2.63513530       2.06341002       1.58512747       0.00000000 NULL      -0.25062000       0.37571500      -0.05998000
P        2.63513530       0.89099637       9.35282495       0.00000000 NULL      -0.25061900      -0.37571400       0.05998000
P        3.93228386       5.71615337       4.51344510       0.00000000 NULL      -0.27585700       0.25451500      -0.30397800
P        3.93228386       4.14298138       8.03379923       0.00000000 NULL      -0.27585700      -0.25451500       0.30397800
P        1.77651438       0.69061720       7.22915328       0.00000000 NULL       0.27585700      -0.25451500       0.30397800
P        1.77651438       2.26378919       3.70879914       0.00000000 NULL       0.27585700       0.25451500      -0.30397800
16
Lattice="5.739105369048668 0.0 0.0 0.0 6.882776006686427 1.9431272827748687 0.0 -0.04183613503340016 10.169702198647048" Properties=species:S:1:pos:R:3:initial_magmoms:R:1:castep_labels:S:1:forces:R:3 n_minim_iter=3 energy=-81.490606396853 stress="0.010076913805985445 0.0 0.0 0.0 0.0036898681429417546 0.002441570376459178 0.0 0.002441570376459178 0.010044838590489416" free_energy=-81.490606396853 pbc="T T T"
P        4.94032196       1.25393707       9.64095379       0.00000000 NULL       0.14036400       0.04865700       0.31646300
P        4.94032196       2.14561480       1.50031205       0.00000000 NULL       0.14036400      -0.04865700      -0.31646300
P        0.79878341       5.58700280       2.47187569       0.00000000 NULL      -0.14036400      -0.04865700      -0.31646300
P        0.79878341       4.69532508      10.61251743       0.00000000 NULL      -0.14036400       0.04865700       0.31646300
P        4.85363184       4.37993105       3.40171983       0.00000000 NULL       0.20420800      -0.12213600       0.32116600
P        4.85363184       5.90239683       9.68267330       0.00000000 NULL       0.20420800       0.12213600      -0.32116600
P        0.88547353       2.46100882       8.71110965       0.00000000 NULL      -0.20420800       0.12213600      -0.32116600
P        0.88547353       0.93854305       2.43015619       0.00000000 NULL      -0.20420800      -0.12213600       0.32116600
P        3.11377283       4.68744385      10.41382637       0.00000000 NULL       0.34904000      -0.22288000       0.06224300
P        3.11377283       5.59488402       2.67056675       0.00000000 NULL       0.34904000       0.22288000      -0.06224300
P        2.62533254       2.15349602       1.69900311       0.00000000 NULL      -0.34904000       0.22288000      -0.06224300
P        2.62533254       1.24605585       9.44226273       0.00000000 NULL      -0.34904000      -0.22288000       0.06224300
P        3.92900483       5.85310345       4.75678150       0.00000000 NULL      -0.15279700       0.03255100      -0.37313000
P        3.92900483       4.42922442       8.32761163       0.00000000 NULL      -0.15279700      -0.03255100       0.37313000
P        1.81010054       0.98783642       7.35604798       0.00000000 NULL       0.15279700      -0.03255100       0.37313000
P        1.81010054       2.41171545       3.78521786       0.00000000 NULL       0.15279700       0.03255100      -0.37313000
16
Lattice="5.653712545822655 0.0 0.0 0.0 6.831864612247016 1.9910229875250436 0.0 0.06224577044831189 10.013900720080182" Properties=species:S:1:pos:R:3:initial_magmoms:R:1:castep_labels:S:1:forces:R:3 n_minim_iter=4 energy=-81.631414644618 stress="0.003055192101432735 -0.0 0.0 -0.0 -0.0035144888132683603 -0.0021091698604246588 0.0 -0.0021091698604246588 -0.00863067551521405" free_energy=-81.631414644618 pbc="T T T"
P        4.85779339       1.33439591       9.52255754       0.00000000 NULL       0.15533800      -0.07810000      -0.02130400
P        4.85779339       2.14378217       1.48685467       0.00000000 NULL       0.15533800       0.07810000       0.02130400
P        0.79591915       5.55971448       2.48236617       0.00000000 NULL      -0.15533800       0.07810000       0.02130400
P        0.79591915       4.75032821      10.51806904       0.00000000 NULL      -0.15533800      -0.07810000      -0.02130400
P        4.78291197       4.35631216       3.43512572       0.00000000 NULL       0.37242500      -0.35987500       0.25014400
P        4.78291197       5.95373053       9.56530948       0.00000000 NULL       0.37242500       0.35987500      -0.25014400
P        0.87080057       2.53779823       8.56979799       0.00000000 NULL      -0.37242500       0.35987500      -0.25014400
P        0.87080057       0.94037985       2.43961423       0.00000000 NULL      -0.37242500      -0.35987500       0.25014400
P        3.07642746       4.72941765      10.30521345       0.00000000 NULL       0.14257500      -0.20492000       0.25995700
P        3.07642746       5.58062504       2.69522175       0.00000000 NULL       0.14257500       0.20492100      -0.25995700
P        2.57728508       2.16469273       1.69971026       0.00000000 NULL      -0.14257500       0.20492000      -0.25995700
P        2.57728508       1.31348534       9.30970196       0.00000000 NULL      -0.14257500      -0.20492100       0.25995700
P        3.86224330       5.84573503       4.73215350       0.00000000 NULL      -0.12590200       0.26732000       0.21173300
P        3.86224330       4.46430766       8.26828170       0.00000000 NULL      -0.12590200      -0.26732000      -0.21173300
P        1.79146924       1.04837536       7.27277021       0.00000000 NULL       0.12590200      -0.26732000      -0.21173300
P        1.79146924       2.42980272       3.73664201       0.00000000 NULL       0.12590200       0.26732000       0.21173300
16
Lattice="5.432027306029402 0.0 0.0 0.0 6.883625505474217 2.1064553327500755 0.0 0.19087062804371396 10.139569766520241" Properties=species:S:1:pos:R:3:initial_magmoms:R:1:castep_labels:S:1:forces:R:3 n_minim_iter=5 energy=-81.706169713804 stress="-0.011583550863458983 0.0 0.0 0.0 -0.006751332370687588 0.00567828715148115 0.0 0.00567828715148115 -0.005262057343838217" free_energy=-81.706169713804 pbc="T T T"
P        4.66390742       1.45798754       9.66973877       0.00000000 NULL       0.35541600      -0.00427500       0.34253200
P        4.66390742       2.17469584       1.52305866       0.00000000 NULL       0.35541600       0.00427500      -0.34253200
P        0.76811989       5.61650859       2.57628633       0.00000000 NULL      -0.35541600       0.00427500      -0.34253200
P        0.76811989       4.89980030      10.72296644       0.00000000 NULL      -0.35541600      -0.00427500       0.34253200
P        4.60123158       4.40490917       3.56327234       0.00000000 NULL       0.40764500      -0.61288900       0.48553800
P        4.60123158       6.11139972       9.73598043       0.00000000 NULL       0.40764500       0.61288900      -0.48553800
P        0.83079572       2.66958696       8.68275276       0.00000000 NULL      -0.40764500       0.61288900      -0.48553800
P        0.83079572       0.96309642       2.51004467       0.00000000 NULL      -0.40764500      -0.61288900       0.48553800
P        2.96438371       4.86660894      10.49776839       0.00000000 NULL       0.24351600      -0.31624700       0.19917000
P        2.96438371       5.64969995       2.80148438       0.00000000 NULL       0.24351700       0.31624800      -0.19917000
P        2.46764359       2.20788720       1.74825672       0.00000000 NULL      -0.24351600       0.31624700      -0.19917000
P        2.46764359       1.42479619       9.44454072       0.00000000 NULL      -0.24351600      -0.31624800       0.19917000
P        3.70358070       5.93461755       4.85825300       0.00000000 NULL      -0.11252200       0.15982100       0.07184500
P        3.70358070       4.58169134       8.44099977       0.00000000 NULL      -0.11252200      -0.15982000      -0.07184600
P        1.72844660       1.13987858       7.38777210       0.00000000 NULL       0.11252200      -0.15982100      -0.07184500
P        1.72844660       2.49280480       3.80502534       0.00000000 NULL       0.11252200       0.15982000       0.07184500
16
Lattice="5.137940810846918 0.0 0.0 0.0 7.0836922458383516 1.9780177710853748 0.0 -0.06537900970463335 10.430175149299988" Properties=species:S:1:pos:R:3:initial_magmoms:R:1:castep_labels:S:1:forces:R:3 n_minim_iter=6 energy=-81.867145332527 stress="-0.020775049476536234 -0.0 -0.0 -0.0 -0.0011992579131819988 0.00028763256341157115 -0.0 0.00028763256341157115 -0.006467867071821468" free_energy=-81.867145332527 pbc="T T T"
P        4.41436598       1.25531933       9.94050255       0.00000000 NULL       1.12622000       0.23721100      -0.15291200
P        4.41436598       2.22114779       1.47868149       0.00000000 NULL       1.12622000      -0.23721100       0.15291200
P        0.72357484       5.76299391       2.46769037       0.00000000 NULL      -1.12622000      -0.23721100       0.15291200
P        0.72357484       4.79716545      10.92951144       0.00000000 NULL      -1.12622000       0.23721100      -0.15291200
P        4.37225056       4.44146716       3.60703457       0.00000000 NULL       0.37006700      -0.17873000       0.18897800
P        4.37225056       6.11869220       9.79016724       0.00000000 NULL       0.37006700       0.17873000      -0.18897800
P        0.76569025       2.57684608       8.80115835       0.00000000 NULL      -0.37006700       0.17873000      -0.18897800
P        0.76569025       0.89962104       2.61802569       0.00000000 NULL      -0.37006700      -0.17873000       0.18897800
P        2.82595601       4.74321441      10.67836804       0.00000000 NULL       1.10950000      -0.11939400      -0.03216800
P        2.82595601       5.81694495       2.71883376       0.00000000 NULL       1.10950000       0.11939400       0.03216800
P        2.31198480       2.27509882       1.72982488       0.00000000 NULL      -1.10950000       0.11939400       0.03216800
P        2.31198480       1.20136829       9.68935916       0.00000000 NULL      -1.10950000      -0.11939400      -0.03216800
P        3.48772026       6.04282161       4.81673889       0.00000000 NULL      -0.19194500       0.15887600       0.07205500
P        3.48772026       4.51733775       8.58046292       0.00000000 NULL      -0.19194500      -0.15887600      -0.07205500
P        1.65022055       0.97549163       7.59145403       0.00000000 NULL       0.19194500      -0.15887600      -0.07205500
P        1.65022055       2.50097548       3.82773001       0.00000000 NULL       0.19194500       0.15887600       0.07205500
16
Lattice="5.000023722286008 0.0 0.0 0.0 7.048365887585329 2.0011072626746973 0.0 -0.08266160039523164 10.668939926306754" Properties=species:S:1:pos:R:3:initial_magmoms:R:1:castep_labels:S:1:forces:R:3 n_minim_iter=7 energy=-82.119317349783 stress="-0.016357225307811026 0.0 0.0 0.0 -5.1854741669796916e-05 0.00032081472469098 0.0 0.00032081472469098 0.00013520977932835994" free_energy=-82.119317349783 pbc="T T T"
P        4.32866927       1.23543025      10.18668966       0.00000000 NULL       0.74007600       0.23257500      -0.37028900
P        4.32866927       2.20609110       1.48280390       0.00000000 NULL       0.74007600      -0.23257500       0.37028900
P        0.67135445       5.73027404       2.48335753       0.00000000 NULL      -0.74007600      -0.23257500       0.37028900
P        0.67135445       4.75961319      11.18724329       0.00000000 NULL      -0.74007600       0.23257500      -0.37028900
P        4.28819306       4.38184452       3.73837313       0.00000000 NULL       0.31732900       0.01756700      -0.00479200
P        4.28819306       6.10804271       9.93222769       0.00000000 NULL       0.31732900      -0.01756700       0.00479200
P        0.71183067       2.58385977       8.93167406       0.00000000 NULL      -0.31732900      -0.01756700       0.00479200
P        0.71183067       0.85766158       2.73781950       0.00000000 NULL      -0.31732900       0.01756700      -0.00479200
P        2.80298485       4.67054121      10.91916714       0.00000000 NULL       0.78121400       0.03939200      -0.18673800
P        2.80298485       5.81934602       2.75143368       0.00000000 NULL       0.78121400      -0.03939200       0.18673800
P        2.19703887       2.29516308       1.75088005       0.00000000 NULL      -0.78121400      -0.03939200       0.18673800
P        2.19703887       1.14635826       9.91861351       0.00000000 NULL      -0.78121400       0.03939200      -0.18673800
P        3.37245265       6.02805644       4.88862538       0.00000000 NULL      -0.19627400       0.05424500      -0.08161900
P        3.37245265       4.46183079       8.78197544       0.00000000 NULL      -0.19627400      -0.05424500       0.08161900
P        1.62757107       0.93764785       7.78142181       0.00000000 NULL       0.19627400      -0.05424500       0.08161900
P        1.62757107       2.50387350       3.88807175       0.00000000 NULL       0.19627400       0.05424500      -0.08161900
16
Lattice="4.986320313474705 0.0 0.0 0.0 7.068365359730486 1.9662224842676228 0.0 -0.1279129184859888 10.647886595352997" Properties=species:S:1:pos:R:3:initial_magmoms:R:1:castep_labels:S:1:forces:R:3 n_minim_iter=8 energy=-82.189121576434 stress="-0.014832385304467996 0.0 0.0 0.0 0.0037948134842773792 0.0010000524638809503 0.0 0.0010000524638809503 -0.0006467568953923089" free_energy=-82.189121576434 pbc="T T T"
P        4.31932619       1.19619522      10.12784359       0.00000000 NULL       0.67619800       0.35777700       0.18947100
P        4.31932619       2.21007455       1.50315425       0.00000000 NULL       0.67619800      -0.35777600      -0.18947100
P        0.66699413       5.74425723       2.48626549       0.00000000 NULL      -0.67619800      -0.35777700      -0.18947100
P        0.66699413       4.73037790      11.11095483       0.00000000 NULL      -0.67619800       0.35777600       0.18947100
P        4.30488037       4.37282382       3.73239985       0.00000000 NULL       0.25771300       0.12388300      -0.04470400
P        4.30488037       6.10181130       9.86482047       0.00000000 NULL       0.25771400      -0.12388300       0.04470300
P        0.68143994       2.56762862       8.88170923       0.00000000 NULL      -0.25771300      -0.12388300       0.04470400
P        0.68143994       0.83864114       2.74928861       0.00000000 NULL      -0.25771400       0.12388300      -0.04470300
P        2.80685788       4.63665693      10.86999304       0.00000000 NULL       0.70085100       0.11757700      -0.02668600
P        2.80685788       5.83797819       2.72722728       0.00000000 NULL       0.70085100      -0.11757700       0.02668500
P        2.17946243       2.30379551       1.74411604       0.00000000 NULL      -0.70085100      -0.11757700       0.02668600
P        2.17946243       1.10247425       9.88688180       0.00000000 NULL      -0.70085100       0.11757700      -0.02668500
P        3.34856898       6.04038188       4.83896275       0.00000000 NULL      -0.10294900       0.04203000       0.19138600
P        3.34856898       4.43425324       8.75825758       0.00000000 NULL      -0.10294900      -0.04203000      -0.19138600
P        1.63775133       0.90007056       7.77514633       0.00000000 NULL       0.10294900      -0.04203000      -0.19138600
P        1.63775133       2.50619921       3.85585151       0.00000000 NULL       0.10294900       0.04203000       0.19138600
16
Lattice="5.059689429153694 0.0 0.0 0.0 6.851075184088443 1.9591598695903039 0.0 -0.100709048964818 10.553471530686895" Properties=species:S:1:pos:R:3:initial_magmoms:R:1:castep_labels:S:1:forces:R:3 n_minim_iter=9 energy=-82.291540437487 stress="-0.006764767109370571 -0.0 0.0 -0.0 -0.002728287959189668 0.0026012798996992085 0.0 0.0026012798996992085 -0.004032962507194367" free_energy=-82.291540437487 pbc="T T T"
P        4.37102890       1.19758983      10.02779190       0.00000000 NULL       0.41225600      -0.01391100       0.15330700
P        4.37102890       2.12723872       1.50525957       0.00000000 NULL       0.41225600       0.01391100      -0.15330700
P        0.68866053       5.55277631       2.48483950       0.00000000 NULL      -0.41225600       0.01391100      -0.15330700
P        0.68866053       4.62312742      11.00737184       0.00000000 NULL      -0.41225600      -0.01391100       0.15330700
P        4.43456431       4.23049006       3.72688954       0.00000000 NULL       0.10353800       0.07696500       0.11324700
P        4.43456431       5.94541367       9.76532179       0.00000000 NULL       0.10353800      -0.07696600      -0.11324700
P        0.62512512       2.51987607       8.78574186       0.00000000 NULL      -0.10353800      -0.07696500      -0.11324700
P        0.62512512       0.80495247       2.74730961       0.00000000 NULL      -0.10353800       0.07696600       0.11324700
P        2.85351357       4.51969043      10.78468440       0.00000000 NULL       0.48213500       0.18075000      -0.00140000
P        2.85351357       5.65621330       2.70752693       0.00000000 NULL       0.48213500      -0.18075000       0.00140000
P        2.20617586       2.23067571       1.72794700       0.00000000 NULL      -0.48213500      -0.18075000       0.00140000
P        2.20617586       1.09415284       9.80510447       0.00000000 NULL      -0.48213500       0.18075000      -0.00140000
P        3.36940188       5.88479647       4.81844062       0.00000000 NULL       0.09687700      -0.09913500       0.17707300
P        3.36940188       4.29110726       8.67377071       0.00000000 NULL       0.09687700       0.09913500      -0.17707300
P        1.69028754       0.86556966       7.69419078       0.00000000 NULL      -0.09687700       0.09913500      -0.17707300
P        1.69028754       2.45925888       3.83886069       0.00000000 NULL      -0.09687700      -0.09913500       0.17707300
16
Lattice="5.057772434546134 0.0 0.0 0.0 6.905145707399528 1.9001859261202851 0.0 -0.1953563375730587 10.59426140543607" Properties=species:S:1:pos:R:3:initial_magmoms:R:1:castep_labels:S:1:forces:R:3 n_minim_iter=10 energy=-82.430381809212 stress="0.001622169998198673 0.0 -0.0 0.0 0.0013141123189717523 0.0008820356089666751 -0.0 0.0008820356089666751 0.0005975340162448855" free_energy=-82.430381809212 pbc="T T T"
P        4.35758549       1.12361808      10.05501922       0.00000000 NULL       0.20213000      -0.16864800       0.05047500
P        4.35758549       2.13359844       1.48933515       0.00000000 NULL       0.20213000       0.16864700      -0.05047500
P        0.70018694       5.58617129       2.43942811       0.00000000 NULL      -0.20213000       0.16864800      -0.05047500
P        0.70018694       4.57619093      11.00511218       0.00000000 NULL      -0.20213000      -0.16864700       0.05047500
P        4.48906394       4.27004524       3.74295355       0.00000000 NULL       0.10396300       0.05813600      -0.05673900
P        4.48906394       5.89231698       9.70158675       0.00000000 NULL       0.10396300      -0.05813500       0.05673900
P        0.56870849       2.43974413       8.75149378       0.00000000 NULL      -0.10396300      -0.05813600       0.05673900
P        0.56870849       0.81747239       2.79286059       0.00000000 NULL      -0.10396300       0.05813600      -0.05673900
P        2.89504505       4.51911004      10.76713582       0.00000000 NULL       0.30002000       0.10340800      -0.03319400
P        2.89504505       5.64325218       2.67740448       0.00000000 NULL       0.30002000      -0.10340800       0.03319400
P        2.16272738       2.19067933       1.72731152       0.00000000 NULL      -0.30002000      -0.10340800       0.03319400
P        2.16272738       1.06653719       9.81704286       0.00000000 NULL      -0.30002000       0.10340800      -0.03319400
P        3.35467481       5.90103472       4.79846679       0.00000000 NULL       0.12785300      -0.07387600       0.12500400
P        3.35467481       4.26132751       8.64607351       0.00000000 NULL       0.12785300       0.07387600      -0.12500400
P        1.70309762       0.80875465       7.69598055       0.00000000 NULL      -0.12785300       0.07387500      -0.12500400
P        1.70309762       2.44846187       3.84837382       0.00000000 NULL      -0.12785300      -0.07387600       0.12500400
16
Lattice="5.0778643025016414 0.0 0.0 0.0 6.800000763976224 1.804686383994971 0.0 -0.290205243637051 10.458813819852626" Properties=species:S:1:pos:R:3:initial_magmoms:R:1:castep_labels:S:1:forces:R:3 n_minim_iter=11 energy=-82.602901944053 stress="0.00987551194989788 0.0 -0.0 0.0 0.0028840822583897966 -0.0006771361807168587 -0.0 -0.0006771361807168587 0.0006031113477757813" free_energy=-82.602901944053 pbc="T T T"
P        4.35526090       0.94050243       9.91356943       0.00000000 NULL       0.00771700       0.08837900      -0.08370800
P        4.35526090       2.16929271       1.44758758       0.00000000 NULL       0.00771700      -0.08837900       0.08370800
P        0.72260340       5.56929309       2.34993077       0.00000000 NULL      -0.00771700      -0.08837900       0.08370800
P        0.72260340       4.34050281      10.81591262       0.00000000 NULL      -0.00771700       0.08837900      -0.08370800
P        4.60897599       4.18068217       3.68621789       0.00000000 NULL       0.26568300       0.17143400      -0.08237800
P        4.60897599       5.72911373       9.47962551       0.00000000 NULL       0.26568300      -0.17143400       0.08237700
P        0.46888832       2.32911335       8.57728232       0.00000000 NULL      -0.26568300      -0.17143400       0.08237800
P        0.46888832       0.78068179       2.78387470       0.00000000 NULL      -0.26568300       0.17143400      -0.08237700
P        2.98105971       4.42141733      10.54363930       0.00000000 NULL      -0.06053700       0.02924900      -0.02175400
P        2.98105971       5.48837857       2.62220410       0.00000000 NULL      -0.06053700      -0.02924800       0.02175400
P        2.09680459       2.08837819       1.71986091       0.00000000 NULL       0.06053700      -0.02924900       0.02175400
P        2.09680459       1.02141695       9.64129611       0.00000000 NULL       0.06053700       0.02924800      -0.02175400
P        3.37717443       5.78055692       4.74242835       0.00000000 NULL       0.27996600      -0.05004500       0.12188500
P        3.37717443       4.12923898       8.42341505       0.00000000 NULL       0.27996600       0.05004500      -0.12188500
P        1.70068988       0.72923860       7.52107186       0.00000000 NULL      -0.27996600       0.05004500      -0.12188500
P        1.70068988       2.38055654       3.84008516       0.00000000 NULL      -0.27996600      -0.05004500       0.12188600
16
Lattice="5.052888531643284 0.0 0.0 0.0 6.726821182410723 1.7274410121434562 0.0 -0.3458105216361783 10.248061290984221" Properties=species:S:1:pos:R:3:initial_magmoms:R:1:castep_labels:S:1:forces:R:3 n_minim_iter=12 energy=-82.858102317365 stress="0.007641039404919975 -0.0 0.0 -0.0 0.0007030051116208822 -0.001341117443707529 0.0 -0.001341117443707529 -0.006516145841090334" free_energy=-82.858102317365 pbc="T T T"
P        4.31126095       0.81898218       9.70519453       0.00000000 NULL      -0.27826700       0.12630700      -0.22978800
P        4.31126095       2.19861789       1.40658727       0.00000000 NULL      -0.27826700      -0.12630700       0.22978900
P        0.74162758       5.56202848       2.27030777       0.00000000 NULL       0.27826700      -0.12630700       0.22978900
P        0.74162758       4.18239278      10.56891504       0.00000000 NULL       0.27826700       0.12630600      -0.22978900
P        4.78627458       4.13017207       3.66768857       0.00000000 NULL       0.21505900       0.02793800      -0.03664500
P        4.78627458       5.61424918       9.17153424       0.00000000 NULL       0.21506000      -0.02793800       0.03664500
P        0.26661396       2.25083859       8.30781374       0.00000000 NULL      -0.21505900      -0.02793800       0.03664500
P        0.26661396       0.76676148       2.80396806       0.00000000 NULL      -0.21506000       0.02793800      -0.03664500
P        3.06240074       4.38172764      10.22027823       0.00000000 NULL      -0.29811500      -0.05281200       0.22761300
P        3.06240074       5.36269361       2.61894458       0.00000000 NULL      -0.29811500       0.05281200      -0.22761300
P        1.99048779       1.99928302       1.75522408       0.00000000 NULL       0.29811500       0.05281200      -0.22761300
P        1.99048779       1.01831705       9.35655772       0.00000000 NULL       0.29811500      -0.05281200       0.22761300
P        3.43180273       5.69174607       4.70957127       0.00000000 NULL       0.20637900       0.07036900       0.41805900
P        3.43180273       4.05267518       8.12965155       0.00000000 NULL       0.20637900      -0.07036900      -0.41805900
P        1.62108580       0.68926459       7.26593104       0.00000000 NULL      -0.20637900      -0.07036900      -0.41806000
P        1.62108580       2.32833548       3.84585076       0.00000000 NULL      -0.20637900       0.07036900       0.41805900
16
Lattice="5.045415302930727 0.0 0.0 0.0 6.675984258031528 1.6345714411697316 0.0 -0.42882455464166497 10.056052778053443" Properties=species:S:1:pos:R:3:initial_magmoms:R:1:castep_labels:S:1:forces:R:3 n_minim_iter=13 energy=-82.965373989931 stress="0.008592464754061776 -0.0 -0.0 -0.0 0.00030646677731161365 -0.0019667751594960397 -0.0 -0.0019667751594960397 -0.004875127053251214" free_energy=-82.965373989931 pbc="T T T"
P        4.27357015       0.71598917       9.48867390       0.00000000 NULL      -0.42603400       0.19962900      -0.16331600