8
Lattice="4.855191601020044 0.6757590056424794 0.22784860125394804 2.4075013196941777 8.262892171777164 -0.8735375636449143 2.269558363873473 0.8790156308962156 4.596937537886591" Properties=species:S:1:pos:R:3:initial_magmoms:R:1:castep_labels:S:1:forces:R:3 n_minim_iter=1 energy=-42.208921246767 stress="0.0019302880520400436 0.00015529350814133983 0.003446593006624799 0.00015529350814133983 -0.0028259316818999647 0.0005423879277379665 0.003446593006624799 0.0005423879277379665 0.003301439720218293" free_energy=-42.208921246767 pbc="T T T"
P        5.72260981       7.47806118       0.51615871       0.00000000 NULL       0.08093400       0.49962100      -0.40105900
P        2.75135300       5.69820701       0.05449621       0.00000000 NULL       0.37076400      -0.02272000      -0.01486900
P        7.00982357       2.61701432       3.82562187       0.00000000 NULL      -0.01074700       0.05696500      -0.23510700
P        2.05068141       2.40596594       1.43292321       0.00000000 NULL       0.16396900      -0.25559900       0.12018000
P        3.95171662       2.57328253       2.52489811       0.00000000 NULL      -0.06383200       0.24674300      -0.07393900
P        7.19063263       4.70449726       3.09461543       0.00000000 NULL      -0.18438100      -0.04161600       0.42597000
P        7.35481778       7.92791377       1.99011511       0.00000000 NULL      -0.03260400      -0.08306700      -0.12955200
P        4.39462053       6.06712551       1.56926592       0.00000000 NULL      -0.32410400      -0.40032600       0.30837600
8
Lattice="4.833244386915423 0.6780181729287236 0.18955797833088145 2.4012874420590173 8.313641951771078 -0.8948124282356377 2.2259182848312093 0.8782698837819257 4.5466438287471975" Properties=species:S:1:pos:R:3:initial_magmoms:R:1:castep_labels:S:1:forces:R:3 n_minim_iter=2 energy=-42.227174591229 stress="-0.0026096893257990935 -0.00015466988938589408 -0.00203349960828674 -0.00015466988938589408 1.1051939522946153e-05 -0.0011259807608274104 -0.00203349960828674 -0.0011259807608274104 -0.0026560158494989042" free_energy=-42.227174591229 pbc="T T T"
P        5.69372472       7.52747361       0.45656466       0.00000000 NULL      -0.09240200       0.35853800      -0.42408800
P        2.74224692       5.73179417       0.02690147       0.00000000 NULL       0.23916800      -0.06690300      -0.16408100
P        6.95163478       2.62693598       3.74083973       0.00000000 NULL       0.08088200       0.12159900      -0.06980300
P        2.03282526       2.41516321       1.40628124       0.00000000 NULL      -0.14442700      -0.22187600      -0.27259700
P        3.91511458       2.58781234       2.47393503       0.00000000 NULL       0.12100200       0.28464300       0.14370900
P        7.13422610       4.72675004       3.01930779       0.00000000 NULL      -0.14623800      -0.17332200       0.42634900
P        7.30673950       7.97060791       1.91084370       0.00000000 NULL       0.04250500      -0.01145600       0.02149300
P        4.35888140       6.09598518       1.52239927       0.00000000 NULL      -0.10048800      -0.29122200       0.33901700
8
Lattice="4.854857565475024 0.6836087161582719 0.1877551954971469 2.4141006287752567 8.363239249909611 -0.8769219830246269 2.2325015636491816 0.8959279863204204 4.554471671998375" Properties=species:S:1:pos:R:3:initial_magmoms:R:1:castep_labels:S:1:forces:R:3 n_minim_iter=3 energy=-42.245493751155 stress="0.006389436056068257 -0.0005155489864458637 -0.0018885361489446573 -0.0005155489864458637 0.006633295138860457 0.0013646718562657957 -0.0018885361489446573 0.0013646718562657957 0.0025270045941953117" free_energy=-42.245493751155 pbc="T T T"
P        5.71952367       7.58962308       0.45905110       0.00000000 NULL       0.04393600       0.07720600      -0.22652500
P        2.76469222       5.76626912       0.03602241       0.00000000 NULL       0.07383600       0.10074300      -0.03490200
P        6.98174684       2.65729172       3.74381301       0.00000000 NULL       0.14465100       0.09215500      -0.05153100
P        2.04060822       2.42659364       1.40948352       0.00000000 NULL       0.00631700       0.05937800      -0.01470000
P        3.93262041       2.61965055       2.48320524       0.00000000 NULL      -0.13443900       0.28951700       0.12756700
P        7.15935188       4.76129515       3.04400501       0.00000000 NULL      -0.08811700      -0.43180400       0.17021800
P        7.33969854       8.02500278       1.92727818       0.00000000 NULL       0.02754800      -0.13779600      -0.12174200
P        4.37212479       6.12776386       1.54726396       0.00000000 NULL      -0.07373200      -0.04939800       0.15161400
8
Lattice="4.823071976484319 0.6852526006934009 0.20356138121171014 2.4045928184303498 8.31363678795131 -0.8640465581174838 2.2332521978034383 0.8946164201715313 4.55099405264563" Properties=species:S:1:pos:R:3:initial_magmoms:R:1:castep_labels:S:1:forces:R:3 n_minim_iter=4 energy=-42.266178184122 stress="-0.00036926614800824513 0.0013905366911615917 0.0002748668511080512 0.0013905366911615917 -0.00035047821734095154 0.002555733125206591 0.0002748668511080512 0.002555733125206591 6.0040940511687595e-05" free_energy=-42.266178184122 pbc="T T T"
P        5.69062921       7.56427062       0.46298868       0.00000000 NULL       0.01845100      -0.02721000      -0.11393300
P        2.76330154       5.73300027       0.04289413       0.00000000 NULL       0.02682100       0.07226500      -0.07463200
P        6.95257294       2.65476594       3.75355152       0.00000000 NULL      -0.06219300      -0.34249600       0.26504600
P        2.03334988       2.40698429       1.40929302       0.00000000 NULL       0.05581900       0.12424500      -0.05214500
P        3.91721300       2.62136830       2.49439634       0.00000000 NULL       0.22086000       0.17451800      -0.03706400
P        7.11947758       4.73229555       3.07795259       0.00000000 NULL      -0.27938700       0.01171900       0.06489400
P        7.30609310       7.98158567       1.94693387       0.00000000 NULL      -0.09163900      -0.01832700      -0.09038600
P        4.34736817       6.08336645       1.57259463       0.00000000 NULL       0.11126900       0.00528500       0.03822000
8
Lattice="4.815233574779688 0.6560552220982474 0.20777154313486348 2.357685528804635 8.286872429967932 -0.942929436544612 2.2369447408577474 0.8335653719419902 4.547601364238668" Properties=species:S:1:pos:R:3:initial_magmoms:R:1:castep_labels:S:1:forces:R:3 n_minim_iter=5 energy=-42.278186289763 stress="0.0013127236571777144 0.0006040224446035852 0.00010854294287634368 0.0006040224446035852 -0.0007108928341624932 -0.001611360935718473 0.00010854294287634368 -0.001611360935718473 0.0011487557578166916" free_energy=-42.278186289763 pbc="T T T"
P        5.64732314       7.51658914       0.38715326       0.00000000 NULL       0.03288000      -0.17809300      -0.00402800
P        2.73787619       5.70354851      -0.01327305       0.00000000 NULL      -0.04460900       0.05974200      -0.07968600
P        6.94113045       2.56648370       3.74691981       0.00000000 NULL      -0.02715900      -0.22730500      -0.01186500
P        2.02267530       2.37404470       1.38538122       0.00000000 NULL       0.12291500      -0.11544500       0.03246400
P        3.91140781       2.57943234       2.47841240       0.00000000 NULL       0.04868300       0.19430900      -0.03778600
P        7.08484624       4.64510315       3.05774280       0.00000000 NULL      -0.19528100       0.11239400       0.24069200
P        7.26085839       7.89924163       1.87971142       0.00000000 NULL      -0.04734500       0.02673900      -0.04354600
P        4.31450954       6.02089213       1.52941718       0.00000000 NULL       0.10991600       0.12765800      -0.09624600
8
Lattice="4.777818651624446 0.6164882411614035 0.22767448299597245 2.269381020186709 8.269543077664121 -0.9163958747413776 2.2330788220922724 0.8224604098523832 4.5391364420959" Properties=species:S:1:pos:R:3:initial_magmoms:R:1:castep_labels:S:1:forces:R:3 n_minim_iter=6 energy=-42.288869401088 stress="-0.0017528735831650682 -0.0034042039591912466 0.0013358585981641405 -0.0034042039591912466 0.0013827829849303896 0.0002635343510188977 0.0013358585981641405 0.0002635343510188977 0.00042878980006525363" free_energy=-42.288869401088 pbc="T T T"
P        5.54899171       7.47339673       0.40960572       0.00000000 NULL       0.13235400      -0.13717800      -0.03518000
P        2.67570167       5.68665200      -0.00021200       0.00000000 NULL      -0.06228500       0.08496800      -0.05339900
P        6.88746316       2.50212956       3.76750542       0.00000000 NULL      -0.16291600      -0.26686900       0.06910200
P        1.99877759       2.35544850       1.38789369       0.00000000 NULL       0.13752600      -0.00229700       0.10174100
P        3.88059047       2.56920390       2.48844053       0.00000000 NULL       0.03719000       0.34482700      -0.05889300
P        6.99440670       4.59222354       3.09929899       0.00000000 NULL      -0.06426300      -0.16152800       0.11413300
P        7.15070693       7.84478397       1.90986156       0.00000000 NULL       0.03593900       0.02069800      -0.04950800
P        4.24524009       5.98927925       1.55394673       0.00000000 NULL      -0.05354500       0.11737900      -0.08799600
8
Lattice="4.769837983023769 0.6202109006196648 0.2343065256696857 2.2749645674975585 8.230087463436059 -0.8931066392159361 2.2366210212759112 0.8289627370674251 4.5130432676545995" Properties=species:S:1:pos:R:3:initial_magmoms:R:1:castep_labels:S:1:forces:R:3 n_minim_iter=7 energy=-42.309883993795 stress="-0.0008654494674787351 -0.0009616564823681432 0.0002277529701374561 -0.0009616564823681432 0.0005826788493916235 -9.041568352628641e-06 0.0002277529701374561 -9.041568352628641e-06 0.0001985599324498839" free_energy=-42.309883993795 pbc="T T T"
P        5.55311944       7.44079147       0.41061621       0.00000000 NULL       0.03796300      -0.05658900      -0.03328000
P        2.68218216       5.66903063       0.00118134       0.00000000 NULL       0.02665400       0.00577100      -0.06322400
P        6.87935013       2.47878541       3.76375520       0.00000000 NULL       0.12740500      -0.16464100      -0.05950500
P        2.00897168       2.34114655       1.38178830       0.00000000 NULL       0.18074600       0.12387100       0.19148300
P        3.89207209       2.59987897       2.48080741       0.00000000 NULL      -0.26699900       0.17856000       0.09415900
P        6.96647232       4.57915884       3.12577075       0.00000000 NULL      -0.07530200      -0.26205300      -0.02448200
P        7.14694793       7.81857560       1.91346249       0.00000000 NULL       0.05291400       0.10526400       0.00505000
P        4.25209487       5.96965375       1.56328270       0.00000000 NULL      -0.08338100       0.06981700      -0.11020200
8
Lattice="4.808942660633024 0.5887039472869624 0.2615588248489161 2.239118634873051 8.188582150683903 -0.8400601965805773 2.2766692723942747 0.8288250711752688 4.477859629524409" Properties=species:S:1:pos:R:3:initial_magmoms:R:1:castep_labels:S:1:forces:R:3 n_minim_iter=8 energy=-42.338600044345 stress="0.004410493869777604 -0.002905026752836227 0.0001317008855213805 -0.002905026752836227 0.00123332887018939 0.00027178165590671167 0.0001317008855213805 0.00027178165590671167 -0.0031754414771693867" free_energy=-42.338600044345 pbc="T T T"
P        5.56382097       7.37794594       0.43178360       0.00000000 NULL       0.30210400      -0.01928500       0.08163500
P        2.68470964       5.64423242       0.00967244       0.00000000 NULL      -0.09242600       0.16557400       0.12363900
P        6.96292681       2.38088925       3.77373103       0.00000000 NULL       0.14653300      -0.14481100       0.13891900
P        2.05407179       2.32932928       1.40020668       0.00000000 NULL      -0.07732800       0.02303500      -0.25228300
P        3.90936370       2.64636355       2.49738008       0.00000000 NULL      -0.05028900       0.07828600       0.20155000
P        6.96267209       4.49908086       3.19137796       0.00000000 NULL      -0.01611100      -0.13471200       0.05694100
P        7.16970960       7.77099755       1.95158854       0.00000000 NULL       0.11884200      -0.06047100      -0.17908000
P        4.26131140       5.93774909       1.58791637       0.00000000 NULL      -0.33132500       0.09238300      -0.17132000
8
Lattice="4.779245642338661 0.5932182893161605 0.27027306853684646 2.224944140281069 8.226320553574197 -0.8334263487066228 2.26868780988889 0.8389300566221838 4.515388451880389" Properties=species:S:1:pos:R:3:initial_magmoms:R:1:castep_labels:S:1:forces:R:3 n_minim_iter=9 energy=-42.349619654691 stress="0.0005664541942173542 -0.001270932483322759 4.484601370720475e-05 -0.001270932483322759 0.0058364221185559645 -0.000568108592614985 4.484601370720475e-05 -0.000568108592614985 0.0032838035623258474" free_energy=-42.349619654691 pbc="T T T"
P        5.53802581       7.41162113       0.43656991       0.00000000 NULL       0.26391900      -0.00194900       0.14857200
P        2.67457634       5.67778908       0.00882419       0.00000000 NULL      -0.06073400       0.16060200       0.18215500
P        6.93719577       2.36578259       3.81834874       0.00000000 NULL       0.12893800       0.19330600      -0.22904600
P        2.05836517       2.34441579       1.41805911       0.00000000 NULL      -0.22530400       0.04482000       0.07486500
P        3.88087047       2.69603967       2.53438539       0.00000000 NULL       0.25791000      -0.03074300       0.26352300
P        6.89655449       4.50994981       3.25168342       0.00000000 NULL      -0.13168300      -0.36882400       0.00596300
P        7.12886947       7.81809688       1.97721657       0.00000000 NULL       0.07792700      -0.08891500      -0.24031300
P        4.23147550       5.97282649       1.60745381       0.00000000 NULL      -0.31097300       0.09170500      -0.20572000
8
Lattice="4.790670201081849 0.5604449954291791 0.2615569136627474 2.1822055581648008 8.167538396608645 -0.7827659002789229 2.2575102361956905 0.8531678523100934 4.52285300934895" Properties=species:S:1:pos:R:3:initial_magmoms:R:1:castep_labels:S:1:forces:R:3 n_minim_iter=10 energy=-42.371856646409 stress="0.00452053250316506 -0.0027488910575440726 -0.0023076935112449405 -0.0027488910575440726 0.006178124087754773 0.0010216056169124624 -0.0023076935112449405 0.0010216056169124624 0.004124635963293161" free_energy=-42.371856646409 pbc="T T T"
P        5.53325260       7.34155934       0.45802711       0.00000000 NULL       0.09510000       0.08586500       0.03774700
P        2.65633925       5.65121981       0.03149240       0.00000000 NULL      -0.15603000       0.04824900       0.02042000
P        6.96316132       2.28446858       3.82301757       0.00000000 NULL       0.10190600       0.20504300      -0.33820100
P        2.05820366       2.33552192       1.43275232       0.00000000 NULL      -0.10245400       0.10646600       0.39139900
P        3.87543837       2.72305246       2.57842348       0.00000000 NULL      -0.19587900       0.09020800       0.24707300
P        6.82241303       4.43387596       3.30758006       0.00000000 NULL       0.21916200      -0.55541500      -0.19361600
P        7.09911504       7.75761912       1.99145475       0.00000000 NULL       0.12530400      -0.00577800      -0.14982600
P        4.17680859       5.93849345       1.62094488       0.00000000 NULL      -0.08711000       0.02536100      -0.01499600
8
Lattice="4.789207964133308 0.5702618400472641 0.28081563640699464 2.187609399708832 8.21539699586824 -0.7731349089930778 2.276281051361353 0.8590450089056111 4.517297687336789" Properties=species:S:1:pos:R:3:initial_magmoms:R:1:castep_labels:S:1:forces:R:3 n_minim_iter=11 energy=-42.376382218578 stress="0.005017742818853369 -0.001447517684017046 -0.0009463154968852017 -0.001447517684017046 0.008072551865981385 0.00019799196778084278 -0.0009463154968852017 0.00019799196778084278 0.002711198321989145" free_energy=-42.376382218578 pbc="T T T"
P        5.54670828       7.39157996       0.47571995       0.00000000 NULL       0.01597700       0.08984500       0.03568200
P        2.66002961       5.68930850       0.03806735       0.00000000 NULL      -0.09112300       0.02248200       0.00028000
P        6.98217298       2.29292830       3.83620957       0.00000000 NULL       0.09065300       0.34209300      -0.26703300
P        2.06526987       2.35072794       1.44114287       0.00000000 NULL       0.05202700       0.13348100       0.33455900
P        3.89137074       2.75180571       2.59483038       0.00000000 NULL      -0.31935200       0.03356400       0.14051700
P        6.82752479       4.45834884       3.33017013       0.00000000 NULL       0.21548600      -0.66031500      -0.11604400
P        7.11351366       7.81242167       2.00520247       0.00000000 NULL       0.10715600       0.00296900      -0.10138500
P        4.18437391       5.97725913       1.62773465       0.00000000 NULL      -0.07082300       0.03588000      -0.02657600
8
Lattice="4.758337933378874 0.5507079964739988 0.278277472407916 2.1390426313815416 8.213969669499756 -0.7595656567452439 2.2526087317962125 0.8654292989601569 4.568657026672193" Properties=species:S:1:pos:R:3:initial_magmoms:R:1:castep_labels:S:1:forces:R:3 n_minim_iter=12 energy=-42.386336573373 stress="0.0046054921017347475 -0.0012433868123375592 -0.0012552765632869456 -0.0012433868123375592 0.007211104665702009 0.0009180293417767629 -0.0012552765632869456 0.0009180293417767629 0.0036739916135621275" free_energy=-42.386336573373 pbc="T T T"
P        5.48980788       7.39558337       0.49544302       0.00000000 NULL      -0.12934500       0.04893000      -0.05389300
P        2.60507145       5.69088855       0.03825028       0.00000000 NULL       0.07438700       0.01584300       0.11254200
P        6.92227043       2.25689265       3.86915740       0.00000000 NULL       0.19959000       0.22474300      -0.22208100
P        2.04349261       2.34854246       1.48601139       0.00000000 NULL       0.07761100       0.12929100       0.22608600
P        3.86644646       2.76381049       2.64476849       0.00000000 NULL      -0.44618800      -0.03765500       0.18394700
P        6.75075069       4.41105624       3.38620601       0.00000000 NULL       0.20395900      -0.41094400      -0.10130500
P        7.03653317       7.81307360       2.01798095       0.00000000 NULL       0.25198600      -0.05128600      -0.05171900
P        4.13143219       5.97375768       1.64901802       0.00000000 NULL      -0.23200100       0.08107800      -0.09357800
8
Lattice="4.744619600584248 0.5251119291118729 0.2820203844400326 2.095724611718098 8.161816581460785 -0.7693696188054691 2.2459693341071216 0.8479869563259259 4.601987933936507" Properties=species:S:1:pos:R:3:initial_magmoms:R:1:castep_labels:S:1:forces:R:3 n_minim_iter=13 energy=-42.398372423906 stress="0.00305825834652112 -0.000823656695732218 -0.0008076605174626799 -0.000823656695732218 0.005611553087449279 0.0013159639844525777 -0.0008076605174626799 0.0013159639844525777 0.0026732367809198963" free_energy=-42.398372423906 pbc="T T T"
P        5.42937945       7.35352379       0.49024518       0.00000000 NULL       0.13185600       0.01346700      -0.07576600
P        2.56694375       5.65247507       0.03045095       0.00000000 NULL      -0.08266900       0.05950200       0.05835900
P        6.89206632       2.18127617       3.89372922       0.00000000 NULL       0.24630500       0.20184800      -0.17728600
P        2.03510667       2.31756371       1.51805853       0.00000000 NULL       0.08618000       0.13239100       0.13232500
P        3.85328250       2.73559114       2.68489767       0.00000000 NULL      -0.48221900      -0.08320500       0.19425600
P        6.71461887       4.33621914       3.43247902       0.00000000 NULL       0.18685300      -0.31570400      -0.07708100
P        7.01045056       7.75147491       2.00491802       0.00000000 NULL      -0.00487000       0.02716600      -0.06579100
P        4.08283112       5.93373163       1.63654748       0.00000000 NULL      -0.08143600      -0.03546500       0.01098400
8
Lattice="4.780267869863273 0.4623378806136035 0.2754027350879509 2.0367089067779016 7.9793847819852255 -0.8452036895032681 2.2540448689203987 0.7714539233028319 4.636287703995891" Properties=species:S:1:pos:R:3:initial_magmoms:R:1:castep_labels:S:1:forces:R:3 n_minim_iter=14 energy=-42.416324091048 stress="0.00012503348829732294 -0.0009289377114570843 0.00020176926635949577 -0.0009289377114570843 0.0005919701102422597 0.0014166740772259179 0.00020176926635949577 0.0014166740772259179 0.0005262217674768911" free_energy=-42.416324091048 pbc="T T T"
P        5.41069279       7.17767704       0.40556508       0.00000000 NULL      -0.01900900      -0.04083800      -0.07728600
P        2.49760944       5.52792863      -0.02738054       0.00000000 NULL       0.08042600      -0.09703700      -0.04105500
P        6.93181455       1.98203823       3.89249329       0.00000000 NULL       0.05165200      -0.01543100      -0.01107200
P        2.04791586       2.21056242       1.53940379       0.00000000 NULL      -0.01433100       0.20465600       0.14923500
P        3.84227476       2.61146287       2.73764663       0.00000000 NULL      -0.10920900       0.04156300       0.05967700
P        6.74202456       4.13613783       3.48157098       0.00000000 NULL       0.12618900      -0.21344900      -0.18886100
P        7.02048750       7.54248437       1.89540643       0.00000000 NULL      -0.01417600       0.08202700       0.11201700
P        4.04933808       5.76651056       1.56338694       0.00000000 NULL      -0.10154300       0.03851000      -0.00265500
8
Lattice="4.769524587912634 0.45041558698171474 0.25038967362973225 2.0209244586664608 7.950707780301791 -0.8737839895508436 2.225716791244665 0.7556621111411733 4.629106773663505" Properties=species:S:1:pos:R:3:initial_magmoms:R:1:castep_labels:S:1:forces:R:3 n_minim_iter=15 energy=-42.422603023433 stress="-0.0017332155168900693 -0.0004917668009606083 0.00012916398346170932 -0.0004917668009606083 -0.0011517416753608492 0.0010888700742785742 0.00012916398346170932 0.0010888700742785742 -0.00020931642799342756" free_energy=-42.422603023433 pbc="T T T"
P        5.38699232       7.13737686       0.34388489       0.00000000 NULL      -0.04117800      -0.01417900      -0.04197200
P        2.48140086       5.49525021      -0.06148032       0.00000000 NULL      -0.00942800      -0.06246600      -0.04604000
P        6.90050562       1.94243850       3.85434799       0.00000000 NULL       0.02361400      -0.08616500       0.02702400
P        2.02093195       2.19957103       1.53291972       0.00000000 NULL       0.06390200       0.14757100       0.11808600
P        3.82121728       2.58575384       2.73789880       0.00000000 NULL      -0.00653600      -0.01223500      -0.04512300
P        6.72359516       4.09408037       3.45504468       0.00000000 NULL      -0.02390600      -0.00947900      -0.09815200
P        6.97685433       7.52265603       1.84807981       0.00000000 NULL       0.00705900      -0.01804600       0.02593600
P        4.01085878       5.74854320       1.52156521       0.00000000 NULL      -0.01352800       0.05499900       0.06024000
8
Lattice="4.769986877975122 0.45769776843689014 0.24578217117151419 2.0339870123183186 7.956395619290277 -0.882364857021296 2.2224177656011634 0.7567596190531565 4.635890643873696" Properties=species:S:1:pos:R:3:initial_magmoms:R:1:castep_labels:S:1:forces:R:3 n_minim_iter=16 energy=-42.424817764472 stress="-0.0016558301738501876 5.913679192322099e-05 0.00016581838770113108 5.913679192322099e-05 -0.0015359089977909591 0.0006738652150295788 0.00016581838770113108 0.0006738652150295788 -5.342906175749717e-05" free_energy=-42.424817764472 pbc="T T T"
P        5.39763848       7.14369156       0.32647151       0.00000000 NULL      -0.07796300      -0.00514500      -0.00013100
P        2.48558755       5.49434462      -0.07292878       0.00000000 NULL       0.03335300      -0.04792300       0.02332700
P        6.90729581       1.95135271       3.85088988       0.00000000 NULL      -0.01228700      -0.11658700       0.06646000
P        2.02327214       2.21031089       1.53969365       0.00000000 NULL       0.03829900       0.10170900       0.03040500
P        3.82627727       2.58270282       2.73909517       0.00000000 NULL       0.00022900       0.05220800      -0.02773000
P        6.72767639       4.10388532       3.45760746       0.00000000 NULL       0.03133000      -0.00660900      -0.06727900
P        6.98454344       7.53301832       1.83958931       0.00000000 NULL      -0.06043500       0.01905600      -0.00551500
P        4.01188807       5.76654317       1.52224631       0.00000000 NULL       0.04747100       0.00329200      -0.01953700
8
Lattice="4.7822922102234795 0.47577977440947783 0.24653445000361943 2.0626918276459607 8.00760837031041 -0.8630416336504214 2.229562327510392 0.7779568182556832 4.628288223643748" Properties=species:S:1:pos:R:3:initial_magmoms:R:1:castep_labels:S:1:forces:R:3 n_minim_iter=17 energy=-42.427825755772 stress="-0.0010904379198715607 0.000398803763776035 4.994550729795189e-05 0.000398803763776035 -0.0006012760661946643 -0.00012521467344837818 4.994550729795189e-05 -0.00012521467344837818 -0.000493138779316546" free_energy=-42.427825755772 pbc="T T T"
P        5.42151398       7.20057076       0.33513417       0.00000000 NULL      -0.06721600      -0.03861400      -0.06222100
P        2.50557330       5.52232691      -0.05248190       0.00000000 NULL      -0.01322800       0.00910000       0.02650000
P        6.94430883       1.99096507       3.85033903       0.00000000 NULL      -0.02001500      -0.07373100       0.00008500
P        2.03721146       2.25385323       1.54196053       0.00000000 NULL       0.04809900       0.03154100       0.03479600
P        3.84560464       2.61373048       2.73727673       0.00000000 NULL       0.06900000       0.00147900      -0.04536200
P        6.76769756       4.14745608       3.46860030       0.00000000 NULL      -0.05076000       0.05311800       0.01325900
P        7.00533081       7.59437555       1.83882456       0.00000000 NULL      -0.02109300       0.05942400       0.05426100
P        4.03508440       5.83049992       1.53485127       0.00000000 NULL       0.05521300      -0.04231600      -0.02131700
8
Lattice="4.782890667370129 0.5018832104351902 0.25305842127457745 2.1002961977041634 8.039241212541475 -0.8302166355013122 2.234992719935003 0.8109452212721638 4.653024140386211" Properties=species:S:1:pos:R:3:initial_magmoms:R:1:castep_labels:S:1:forces:R:3 n_minim_iter=18 energy=-42.430460133515 stress="0.000776276931974835 0.0005310695994297389 3.833179523442998e-06 0.0005310695994297389 0.0012928269119975929 -0.0007454372603544071 3.833179523442998e-06 -0.0007454372603544071 -0.00019247207485894083" free_energy=-42.430460133515 pbc="T T T"
P        5.43456584       7.24422803       0.34233979       0.00000000 NULL      -0.01027300      -0.01002500       0.07992400
P        2.52153773       5.54676866       0.00098084       0.00000000 NULL      -0.01853100      -0.01809000      -0.04588700
P        6.97737501       2.03243720       3.87250671       0.00000000 NULL       0.01563900       0.03172300      -0.04357800
P        2.06009715       2.31191939       1.57334136       0.00000000 NULL       0.01570900      -0.04975200      -0.05098300
P        3.87462841       2.65054893       2.75842842       0.00000000 NULL       0.00617500      -0.00858500       0.01747600
P        6.79373044       4.19925920       3.52325610       0.00000000 NULL      -0.01050900       0.03346400       0.08524500
P        7.01490226       7.66298006       1.87373251       0.00000000 NULL      -0.04121400      -0.02793600      -0.05047400
P        4.05924195       5.87668482       1.56495538       0.00000000 NULL       0.04300400       0.04920100       0.00827600
8
Lattice="4.780407822023505 0.5029643355165078 0.24508993991902553 2.1083987748356954 7.998212190420225 -0.8376658755815021 2.225759817552875 0.8094502537697587 4.6728728477570725" Properties=species:S:1:pos:R:3:initial_magmoms:R:1:castep_labels:S:1:forces:R:3 n_minim_iter=19 energy=-42.432057513638 stress="0.0015659960580196766 0.00031307135621435456 -0.00011105984067674616 0.00031307135621435456 0.0019547345584313746 -0.0006357899827334395 -0.00011105984067674616 -0.0006357899827334395 0.0004898604903528484" free_energy=-42.432057513638 pbc="T T T"
P        5.42780969       7.21246737       0.33103044       0.00000000 NULL       0.01300600      -0.04700600       0.05999000
P        2.52423571       5.51104354      -0.00294281       0.00000000 NULL      -0.05500300       0.03497700       0.00139000
P        6.97958173       2.01065668       3.86636241       0.00000000 NULL       0.02171000       0.10916900      -0.04584600
P        2.06359249       2.31097394       1.58435196       0.00000000 NULL       0.01798700      -0.02686700      -0.01933800
P        3.87712616       2.64449456       2.77343826       0.00000000 NULL      -0.03364000      -0.01629700       0.01686900
P        6.78969898       4.18601257       3.54072132       0.00000000 NULL       0.01559300      -0.06411900       0.05219400
P        7.00208085       7.63168664       1.85979495       0.00000000 NULL       0.00366400      -0.03773600      -0.04470700
P        4.05794700       5.85265979       1.56598765       0.00000000 NULL       0.01668400       0.04788000      -0.02055300
8