39
Lattice="10.740967335312781 -0.44093727259813525 -0.5745868585810566 -2.639322619155092 10.420977933410988 -0.5745868585810495 -2.639322619155078 -3.2512592169881245 9.91747168640489" Properties=species:S:1:pos:R:3:initial_magmoms:R:1:castep_labels:S:1:forces:R:3 n_minim_iter=1 energy=-206.317691582381 stress="0.0018033497338092743 0.0014173190284604694 0.0018469042446024393 0.0014173190284604694 0.002398733463452767 0.0022751461200553064 0.0018469042446024393 0.0022751461200553064 0.003617550254734048" free_energy=-206.317691582381 pbc="T T T"
P        0.55766601       7.03718188       4.28899178       0.00000000 NULL       0.86827600       0.16817400      -0.06349900
P        6.77228694       3.62749068       3.03410807       0.00000000 NULL      -0.01389400      -0.29013500       0.83776300
P        2.15799143       1.02308639       7.90725856       0.00000000 NULL      -0.28108400       0.82818500       0.14602000
P        8.32044776       6.16912504      -0.29749351       0.00000000 NULL      -0.47826900      -0.06062100      -0.01499000
P        4.32712981      -2.72224629       9.01342220       0.00000000 NULL       0.03898800       0.10985000      -0.46803600
P       -3.55355688       7.75562386       5.88209052       0.00000000 NULL       0.09949300      -0.46781300      -0.06242800
P        6.54110436      -1.40458175       6.59362362       0.00000000 NULL      -0.27511600      -0.42234500       0.30287800
P       -2.71911025       4.78755130       7.61055586       0.00000000 NULL      -0.35677500       0.38468600      -0.26556600
P        5.24423319       7.78529568       0.34922489       0.00000000 NULL       0.44981000      -0.18664500      -0.32960300
P       -0.68464245       3.42401099       5.13723876       0.00000000 NULL      -0.20056600      -0.43009500      -0.32270100
P        3.49162504       4.95357164       1.36179710       0.00000000 NULL      -0.37968500      -0.23805400      -0.35848900
P        4.13009472       0.16788140       4.63658734       0.00000000 NULL      -0.15492700      -0.23748300      -0.49894300
P       -1.16885784       6.26977409       6.97361411       0.00000000 NULL      -0.18908700      -0.00252400      -0.04121700
P        6.37615199       6.69867978       1.94421310       0.00000000 NULL       0.03639700       0.00819900      -0.18991300
P        5.24502590      -0.09272522       7.86057853       0.00000000 NULL       0.00054300      -0.19309800      -0.01310200
P        4.51756221       6.10588638       3.15461898       0.00000000 NULL       0.42903000      -0.20893300      -0.08240300
P        5.04692284       1.57859928       6.29908182       0.00000000 NULL      -0.29265800      -0.17711900       0.34276800
P        0.50749837       4.72272393       6.71417617       0.00000000 NULL      -0.11318200       0.41461900      -0.22313900
P        6.97920068       4.62437239       0.91960118       0.00000000 NULL      -0.00767700       0.52882700      -0.62813700
P        3.09105541      -1.12482823       7.75370016       0.00000000 NULL       0.51911300      -0.63292900      -0.06477600
P       -1.73617444       6.76682478       4.70483890       0.00000000 NULL      -0.72611700      -0.16035300       0.34830100
P       -1.91838308       4.75245218       3.90529034       0.00000000 NULL       0.34640100       0.56913000      -0.16711700
P        5.04529446       4.00531431       0.14053208       0.00000000 NULL       0.48577500      -0.27940500       0.39721800
P        2.88272978      -1.35476808       5.60104995       0.00000000 NULL      -0.37328900       0.27555200       0.50651100
P        2.05537748       5.82035538       5.44126098       0.00000000 NULL      -0.48345900      -0.07838700      -0.15203600
P        5.27358979       4.42600677       4.50645640       0.00000000 NULL       0.02266200      -0.02027500      -0.51192500
P        3.24751307       2.78231381       7.02999453       0.00000000 NULL      -0.02450000      -0.49915400      -0.11505400
P       -2.38222330       2.92805123       6.45463077       0.00000000 NULL       0.43021600      -0.13383800       0.32048000
P        3.35519260       6.68232089      -0.00058710       0.00000000 NULL      -0.21940900       0.20775000       0.46303200
P        5.84997312      -1.20550557       4.49836649       0.00000000 NULL       0.24841500       0.49177600      -0.04636200
P        0.30868405       6.05484822       8.74521202       0.00000000 NULL       0.18666600       0.04038800       0.06676900
P        5.86210745       8.04725976       3.75666243       0.00000000 NULL       0.00115400       0.01508400       0.20175300
P        6.67047088       1.71644802       8.11133962       0.00000000 NULL       0.01452100       0.19379200       0.05629200
P        4.05897856       4.05871896       8.61528046       0.00000000 NULL       0.16760600      -0.09166300       0.20899100
P        3.13773083       7.07831038       6.87195251       0.00000000 NULL      -0.12416000       0.16430800       0.19431800
P        6.28220609       5.46702197       6.14956270       0.00000000 NULL       0.18631700       0.21040300      -0.03447200
P        2.54000708       7.34853340       3.01546145       0.00000000 NULL      -0.39179600       0.61901400      -0.05908400
P        6.66952080       1.87882418       4.64037702       0.00000000 NULL       0.68632800       0.00921200      -0.26275500
P        0.46778823       2.69367964       7.87850563       0.00000000 NULL      -0.13205900      -0.42807900       0.58265200
39
Lattice="10.712860404433652 -0.46133041849132295 -0.6011612363067296 -2.6535029378814863 10.389279376287945 -0.6011612363067239 -2.6535029378814747 -3.2687272944502808 9.879976855494936" Properties=species:S:1:pos:R:3:initial_magmoms:R:1:castep_labels:S:1:forces:R:3 n_minim_iter=2 energy=-206.365463573859 stress="-0.0023028233157755293 0.00037348103242884075 0.0004866843881929864 0.00037348103242884075 -0.002145940208591134 0.0005995333249214853 0.0004866843881929864 0.0005995333249214853 -0.0018247407733666182" free_energy=-206.365463573859 pbc="T T T"
P        0.52898930       6.99388794       4.23722968       0.00000000 NULL       0.83041200       0.08915700      -0.14094800
P        6.73581195       3.58705473       2.98501078       0.00000000 NULL      -0.08343700      -0.35115600       0.76624200
P        2.12591633       0.98704710       7.85204631       0.00000000 NULL      -0.32650700       0.77995300       0.04965800
P        8.28288633       6.12789872      -0.34244229       0.00000000 NULL      -0.43272900       0.01475600       0.11990500
P        4.29450454      -2.75396121       8.95809934       0.00000000 NULL       0.10339300       0.22461300      -0.37511700
P       -3.57788848       7.71213240       5.83063832       0.00000000 NULL       0.19856300      -0.40046900       0.04528100
P        6.50578659      -1.43836525       6.54211862       0.00000000 NULL      -0.17658800      -0.38770200       0.41617700
P       -2.74491281       4.74853948       7.55713545       0.00000000 NULL      -0.34312600       0.46733800      -0.13623300
P        5.21135810       7.74230240       0.30326577       0.00000000 NULL       0.52789000      -0.06956700      -0.26682600
P       -0.70572636       3.39332114       5.09690218       0.00000000 NULL      -0.17372400      -0.51032400      -0.38807400
P        3.46592431       4.92157929       1.32533615       0.00000000 NULL      -0.46371900      -0.30373200      -0.36595800
P        4.10406828       0.14087101       4.59650615       0.00000000 NULL      -0.20192900      -0.21992700      -0.59335500
P       -1.20031672       6.22334428       6.91429950       0.00000000 NULL      -0.23002600       0.08337000      -0.02448500
P        6.33717997       6.65181972       1.88990908       0.00000000 NULL       0.12887200       0.03015900      -0.20723100
P        5.20717714      -0.13282004       7.80038313       0.00000000 NULL       0.00302600      -0.23440900       0.07419600
P        4.48229440       6.06076688       3.10110788       0.00000000 NULL       0.38287600      -0.22284200      -0.05631500
P        5.01001608       1.53823988       6.24293884       0.00000000 NULL      -0.29678400      -0.13949400       0.30312600
P        0.47558695       4.67998411       6.65674801       0.00000000 NULL      -0.07551100       0.37537000      -0.22982500
P        6.94609913       4.58854281       0.87624065       0.00000000 NULL       0.13892500       0.52972800      -0.58413600
P        3.06279493      -1.15642527       7.70407578       0.00000000 NULL       0.48986100      -0.62759400       0.08537300
P       -1.76128785       6.72772630       4.65901060       0.00000000 NULL      -0.71488400      -0.00819400       0.36055600
P       -1.93448982       4.72541959       3.87107514       0.00000000 NULL       0.39725500       0.45104800      -0.26922100
P        5.02214983       3.97778015       0.11108612       0.00000000 NULL       0.35976200      -0.38462900       0.39543000
P        2.86054093      -1.37588668       5.56608528       0.00000000 NULL      -0.45036400       0.31133100       0.36603400
P        2.01973574       5.77380692       5.38275909       0.00000000 NULL      -0.52850900      -0.22769600      -0.29367600
P        5.23536144       4.38099720       4.44838493       0.00000000 NULL      -0.11419900      -0.13774400      -0.62080400
P        3.21132242       2.73829311       6.96989479       0.00000000 NULL      -0.11132900      -0.56342400      -0.29592500
P       -2.40024127       2.89875304       6.41445142       0.00000000 NULL       0.54225400      -0.20998200       0.35489200
P        3.33022361       6.64963011      -0.03383274       0.00000000 NULL      -0.31695800       0.21667100       0.56273200
P        5.82311275      -1.22955829       4.45967026       0.00000000 NULL       0.27719700       0.61230800      -0.11101000
P        0.26884893       5.99958512       8.67232977       0.00000000 NULL       0.15499800       0.02776200       0.15793300
P        5.81621249       7.98988475       3.68917592       0.00000000 NULL      -0.00469100       0.11183200       0.19289900
P        6.62375471       1.66593172       8.03910133       0.00000000 NULL       0.11040600       0.18157300       0.06768300
P        4.01323512       4.00290005       8.53957563       0.00000000 NULL       0.26604700       0.04929800       0.29071400
P        3.09250639       7.01973449       6.79804007       0.00000000 NULL      -0.00644300       0.21082400       0.33650800
P        6.23417685       5.41019264       6.07605723       0.00000000 NULL       0.20764700       0.31546900       0.12283400
P        2.50678253       7.30487451       2.96409258       0.00000000 NULL      -0.48832400       0.48393000      -0.13901700
P        6.63362346       1.83993902       4.58700985       0.00000000 NULL       0.57397200      -0.03637200      -0.40150600
P        0.43711208       2.65328711       7.82304260       0.00000000 NULL      -0.15357500      -0.53123300       0.43148800
39
Lattice="10.784663079968794 -0.5069658749658822 -0.6606289547446011 -2.712922933718283 10.450168482016318 -0.6606289547445958 -2.7129229337182723 -3.3419240335437475 9.92340645506355" Properties=species:S:1:pos:R:3:initial_magmoms:R:1:castep_labels:S:1:forces:R:3 n_minim_iter=3 energy=-206.42788899194 stress="0.0019122095356392795 -0.001265747300545014 -0.0016493926597456478 -0.001265747300545014 0.001380492191484116 -0.0020318156148723576 -0.0016493926597456478 -0.0020318156148723576 0.00029204086166092797" free_energy=-206.42788899194 pbc="T T T"
P        0.48128424       6.99179681       4.18502388       0.00000000 NULL       0.83758900       0.09680700      -0.12284300
P        6.74357122       3.54881704       2.92599160       0.00000000 NULL      -0.07742300      -0.33589100       0.77923100
P        2.08690023       0.93010643       7.83651909       0.00000000 NULL      -0.31280500       0.79016500       0.06172700
P        8.30595457       6.11958437      -0.43449502       0.00000000 NULL      -0.50289400       0.02699900       0.11370000
P        4.28162607      -2.84827833       8.95443849       0.00000000 NULL       0.12979400       0.23573000      -0.44061900
P       -3.66754445       7.71687312       5.79879012       0.00000000 NULL       0.20401400      -0.47101600       0.05549600
P        6.51301456      -1.52312231       6.51974421       0.00000000 NULL      -0.32494500      -0.34372300       0.49163500
P       -2.82934573       4.72960432       7.54135070       0.00000000 NULL      -0.26959300       0.57545300      -0.24822400
P        5.21018242       7.74944115       0.21560578       0.00000000 NULL       0.61858000      -0.20211200      -0.20481800
P       -0.75607554       3.37157291       5.07678954       0.00000000 NULL      -0.39552000      -0.40983800      -0.35361500
P        3.45498973       4.91605688       1.26821802       0.00000000 NULL      -0.31978800      -0.21962900      -0.54675900
P        4.10091140       0.08876019       4.57029469       0.00000000 NULL      -0.14920700      -0.43548800      -0.48737400
P       -1.27725823       6.20613180       6.87951360       0.00000000 NULL      -0.23326200      -0.00457900       0.01312400
P        6.33615033       6.63861583       1.80475673       0.00000000 NULL       0.04346600       0.07198500      -0.21802000
P        5.19446684      -0.21410996       7.77475653       0.00000000 NULL       0.06151300      -0.22543100      -0.00102700
P        4.46717486       6.04314821       3.03238898       0.00000000 NULL       0.39830300      -0.21654200      -0.04889600
P        4.99588144       1.47662629       6.20736803       0.00000000 NULL      -0.29378900      -0.13656800       0.32088000
P        0.41819437       4.65248026       6.62194952       0.00000000 NULL      -0.07326400       0.39160600      -0.22182000
P        6.96394468       4.57409001       0.79951014       0.00000000 NULL       0.17097600       0.58551200      -0.49896300
P        3.04498259      -1.23429303       7.69822337       0.00000000 NULL       0.53786500      -0.55640400       0.14878300
P       -1.83383156       6.73072455       4.62519731       0.00000000 NULL      -0.65508100       0.03711600       0.43647700
P       -1.98791636       4.72951122       3.84866991       0.00000000 NULL       0.33748700       0.23042000      -0.19279400
P        5.03713589       3.96944821       0.05559623       0.00000000 NULL       0.15612900      -0.28393800       0.31490600
P        2.84930652      -1.43283855       5.56424064       0.00000000 NULL      -0.30996700       0.27975100       0.17269300
P        1.97189115       5.74987220       5.33046516       0.00000000 NULL      -0.69279000      -0.21136800      -0.36148700
P        5.22177223       4.34387140       4.38487399       0.00000000 NULL      -0.06445200      -0.16251700      -0.79040500
P        3.17778263       2.68236009       6.93324497       0.00000000 NULL      -0.14579900      -0.73852900      -0.29769900
P       -2.46245968       2.87469607       6.41253700       0.00000000 NULL       0.63475600      -0.14057000       0.29185900
P        3.31946930       6.66481441      -0.09792108       0.00000000 NULL      -0.26804200       0.12867300       0.64765500
P        5.84018336      -1.28954883       4.43593712       0.00000000 NULL       0.18102200       0.68662900      -0.06027000
P        0.19402181       5.96201891       8.63229159       0.00000000 NULL       0.23742800       0.10239000       0.10246600
P        5.79482912       7.97215451       3.60062219       0.00000000 NULL       0.05140300       0.03341200       0.27128900
P        6.61079840       1.58675067       7.99245513       0.00000000 NULL       0.02213400       0.24725800       0.12541500
P        3.97168103       3.94075136       8.49278538       0.00000000 NULL       0.31850700       0.04013100       0.42871100
P        3.04022619       6.98836447       6.73431227       0.00000000 NULL      -0.02619500       0.33133000       0.41998200
P        6.21422285       5.36354085       6.00391863       0.00000000 NULL       0.32964200       0.39469200       0.14968600
P        2.46950393       7.30695379       2.89760443       0.00000000 NULL      -0.55244100       0.34806100      -0.08775700
P        6.64332094       1.78504345       4.53497977       0.00000000 NULL       0.45418600       0.03660300      -0.47583100
P        0.38139541       2.60349270       7.80784849       0.00000000 NULL      -0.05753600      -0.57657900       0.31350400
39
Lattice="10.786225633535489 -0.533294701367799 -0.6949381379153912 -2.7390107353028017 10.446285791990416 -0.6949381379153945 -2.739010735302802 -3.374060387294917 9.910779099866845" Properties=species:S:1:pos:R:3:initial_magmoms:R:1:castep_labels:S:1:forces:R:3 n_minim_iter=4 energy=-207.266354596241 stress="-0.0006540094916521519 -9.468208385104866e-05 -0.0001233687164205302 -9.468208385104866e-05 -0.0006937858752381983 -0.00015196007621495533 -0.0001233687164205302 -0.00015196007621495533 -0.0007752059888013963" free_energy=-207.266354596241 pbc="T T T"
P        0.52545147       6.97149678       4.12389943       0.00000000 NULL       0.56860000       0.46269200      -0.29034100
P        6.71462612       3.47967008       2.94789849       0.00000000 NULL       0.33593700      -0.44903600       0.55425800
P        2.02517944       0.96227386       7.80109546       0.00000000 NULL      -0.50850000       0.47420500       0.37181400
P        8.24493995       6.09070380      -0.48126389       0.00000000 NULL      -0.04589300      -0.13074300       0.16165000
P        4.26590372      -2.87646943       8.87892513       0.00000000 NULL      -0.11851100       0.17471800      -0.02752500
P       -3.69190187       7.64941132       5.75879237       0.00000000 NULL       0.19534700      -0.00586700      -0.08446700
P        6.46882372      -1.60414136       6.51808364       0.00000000 NULL      -0.23734200       0.10715500       0.03480200
P       -2.89955135       4.74349849       7.48306008       0.00000000 NULL       0.15365000       0.08801700      -0.19408600
P        5.23821064       7.71017300       0.13691586       0.00000000 NULL       0.05455400      -0.23106300       0.11251000
P       -0.80651267       3.30459416       5.01321845       0.00000000 NULL      -0.14640100       0.10543700      -0.14887300
P        3.39980852       4.87098354       1.19079213       0.00000000 NULL       0.13327800      -0.11234100      -0.15598000
P        4.06814299       0.03034008       4.48914876       0.00000000 NULL      -0.13733800      -0.17844100       0.06332800
P       -1.34004355       6.17404157       6.82944228       0.00000000 NULL       0.05101000       0.08319500      -0.00705700
P        6.31765082       6.60785379       1.72607776       0.00000000 NULL       0.07093300      -0.02415700       0.06291500
P        5.16816423      -0.28378966       7.73080396       0.00000000 NULL      -0.03822200       0.04409600       0.07853600
P        4.47609275       5.98823027       2.97217503       0.00000000 NULL       0.12136300      -0.13045500      -0.29519900
P        4.94030311       1.41912525       6.18931508       0.00000000 NULL      -0.15261500      -0.30894000       0.01244800
P        0.37334528       4.65217287       6.55332231       0.00000000 NULL      -0.27097300       0.06709700      -0.20239100
P        6.95828962       4.59692480       0.69759741       0.00000000 NULL       0.49610100       0.53056400      -0.07646400
P        3.06849218      -1.33251805       7.67104331       0.00000000 NULL       0.41726200      -0.22769400       0.55453500
P       -1.93479154       6.70374103       4.62088650       0.00000000 NULL      -0.30859900       0.44210800       0.49271400
P       -1.98037004       4.74863817       3.79855370       0.00000000 NULL      -0.17858200      -0.48952200      -0.32382700
P        5.05430328       3.91811050       0.05356095       0.00000000 NULL      -0.44236100      -0.24154900      -0.34979300
P        2.79553630      -1.43642118       5.56974965       0.00000000 NULL      -0.14546200      -0.21303100      -0.55663800
P        1.88295685       5.69616650       5.25239991       0.00000000 NULL      -0.02617000      -0.00478000       0.25631400
P        5.18749373       4.29383930       4.26994110       0.00000000 NULL       0.00070100       0.25446700       0.04062900
P        3.13586481       2.58268112       6.86117003       0.00000000 NULL       0.24888900       0.02553500       0.06169900
P       -2.44184483       2.83181392       6.41400971       0.00000000 NULL       0.11409000       0.00312900       0.17486100
P        3.27326545       6.66329772      -0.08656662       0.00000000 NULL      -0.02038900       0.13985200       0.15371800
P        5.84819624      -1.26680121       4.39489618       0.00000000 NULL       0.14105900       0.14620800       0.04826400
P        0.16368324       5.91952693       8.58313256       0.00000000 NULL       0.27805600       0.12516700       0.00663000
P        5.75948056       7.93461113       3.55078664       0.00000000 NULL       0.06534100      -0.07066000       0.28942300
P        6.58132258       1.54955919       7.93869103       0.00000000 NULL      -0.08258100       0.26678000       0.12262100
P        3.95330344       3.88701090       8.45795934       0.00000000 NULL      -0.07737400      -0.04758500      -0.56433100
P        2.99141078       6.96223565       6.69725872       0.00000000 NULL      -0.03067100      -0.52299000      -0.22859600
P        6.19868596       5.34149899       5.94299747       0.00000000 NULL      -0.50551700      -0.18523800      -0.19197600
P        2.39187250       7.32129739       2.83541077       0.00000000 NULL      -0.49219700       0.45021500      -0.00996100
P        6.67331536       1.74386154       4.44834945       0.00000000 NULL       0.54177300       0.09106200      -0.37847100
P        0.33492752       2.51440755       7.80561220       0.00000000 NULL      -0.02224400      -0.50760700       0.43230600
39
Lattice="10.806130743205356 -0.5513729749082017 -0.7184959976103515 -2.7607944642625273 10.462049881490923 -0.7184959976103608 -2.760794464262535 -3.4008947534488194 9.91991124442909" Properties=species:S:1:pos:R:3:initial_magmoms:R:1:castep_labels:S:1:forces:R:3 n_minim_iter=5 energy=-207.75778918071 stress="-0.0024576122171719996 0.0006298801780333514 0.0008207987860161895 0.0006298801780333514 -0.0021930292531473603 0.0010110706314153165 0.0008207987860161895 0.0010110706314153165 -0.0016514131453616418" free_energy=-207.75778918071 pbc="T T T"
P        0.57138577       6.99989502       4.07380616       0.00000000 NULL       0.29084900       0.14936700      -0.16387200
P        6.73297619       3.41814135       2.98399901       0.00000000 NULL       0.08639500      -0.23988000       0.26220400
P        1.96119270       0.99577100       7.81556600       0.00000000 NULL      -0.25251500       0.24415700       0.10188000
P        8.22881528       6.07252032      -0.50504043       0.00000000 NULL       0.04458000       0.18079100      -0.11638400
P        4.25142293      -2.89438644       8.85392002       0.00000000 NULL       0.16775700      -0.13333000       0.04793100
P       -3.70645977       7.62987715       5.73507630       0.00000000 NULL      -0.16496600       0.01090900       0.14451700
P        6.44054597      -1.64175346       6.51840986       0.00000000 NULL      -0.15471000      -0.01202200      -0.11065000
P       -2.93054783       4.75297402       7.44894497       0.00000000 NULL       0.02003500      -0.06707000      -0.17726600
P        5.25385514       7.68456413       0.10066888       0.00000000 NULL      -0.06975900      -0.17273500      -0.04023700
P       -0.84440374       3.28798656       4.98105890       0.00000000 NULL       0.03364900       0.17045900       0.06665200
P        3.39134404       4.85039656       1.14335468       0.00000000 NULL       0.15990300       0.04679600       0.08290000
P        4.04973548      -0.01224396       4.46478597       0.00000000 NULL       0.01292900       0.03709900       0.18190000
P       -1.37329174       6.16769063       6.80833426       0.00000000 NULL       0.14556200       0.14339600      -0.09177300
P        6.31826964       6.59622094       1.68792518       0.00000000 NULL       0.11041300      -0.13313200       0.14232900
P        5.15665258      -0.32018114       7.71920796       0.00000000 NULL      -0.15298400       0.11660500       0.11476800
P        4.48824104       5.96070186       2.91976506       0.00000000 NULL       0.04838300      -0.13269900      -0.34237500
P        4.91086544       1.36688786       6.18177324       0.00000000 NULL      -0.13981100      -0.33591100      -0.06919300
P        0.32827423       4.65511975       6.51317114       0.00000000 NULL      -0.30000000      -0.01357100      -0.21676300
P        6.99589219       4.64053286       0.64062266       0.00000000 NULL      -0.18907800       0.06082500      -0.07420800
P        3.10343987      -1.39939317       7.70050711       0.00000000 NULL       0.09839100      -0.02704000      -0.18586300
P       -2.00742213       6.72690912       4.64826850       0.00000000 NULL      -0.04668700      -0.20300900       0.03955400
P       -2.00071445       4.72649383       3.75945098       0.00000000 NULL      -0.12783100       0.15824700      -0.01784900
P        5.03681358       3.88666828       0.01981503       0.00000000 NULL       0.18114300       0.00671000      -0.09403700
P        2.76836047      -1.46291735       5.53824223       0.00000000 NULL      -0.03066800      -0.13705900       0.14824100
P        1.84208070       5.67678479       5.23700751       0.00000000 NULL      -0.03566300      -0.03013500       0.10031200
P        5.17692796       4.29035191       4.22346919       0.00000000 NULL      -0.02216000       0.10752900      -0.01374300
P        3.13462368       2.54065240       6.83846578       0.00000000 NULL       0.10978800      -0.01338200      -0.00315500
P       -2.44125350       2.81418128       6.42845703       0.00000000 NULL       0.05914900       0.05919800       0.08420000
P        3.25588778       6.67804111      -0.08577061       0.00000000 NULL       0.04577400       0.06321000       0.08945900
P        5.86619678      -1.26241624       4.38160192       0.00000000 NULL       0.05244800       0.07145500       0.07896700
P        0.15845440       5.90914400       8.56164558       0.00000000 NULL       0.19573600       0.03755400       0.05372200
P        5.75039413       7.91573197       3.53822280       0.00000000 NULL      -0.00348200       0.00033500       0.20638800
P        6.56471426       1.54072794       7.92310229       0.00000000 NULL       0.00104700       0.20022100       0.05016900
P        3.93596616       3.85531951       8.40301953       0.00000000 NULL      -0.01248600       0.08361700      -0.24835000
P        2.96395977       6.91524192       6.66036238       0.00000000 NULL       0.08440400      -0.24117400      -0.05946400
P        6.15833824       5.31530901       5.89817053       0.00000000 NULL      -0.25337200      -0.06598100       0.01651700
P        2.32523102       7.36310716       2.80274047       0.00000000 NULL      -0.11754600       0.40448100      -0.22888300
P        6.72793048       1.72695423       4.38520023       0.00000000 NULL       0.42000600      -0.21283700      -0.09002900
P        0.30715513       2.44047885       7.83754548       0.00000000 NULL      -0.29462400      -0.18199500       0.33148500
39
Lattice="10.846956872781686 -0.5473883018880984 -0.7133035566547307 -2.7652866689247477 10.502823286702325 -0.7133035566547477 -2.7652866689247646 -3.4064284921841486 9.96063973263108" Properties=species:S:1:pos:R:3:initial_magmoms:R:1:castep_labels:S:1:forces:R:3 n_minim_iter=6 energy=-208.046426177773 stress="-0.003421306767448466 0.0010755034312416576 0.0014014696257488763 0.0010755034312416576 -0.0029695333430694937 0.001726440331575414 0.0014014696257488763 0.001726440331575414 -0.0020446586188980855" free_energy=-208.046426177773 pbc="T T T"
P        0.64496840       7.06056055       4.07305288       0.00000000 NULL      -0.18946700      -0.09539400       0.09579500
P        6.77722143       3.39555577       3.06540863       0.00000000 NULL      -0.05440800       0.14558300      -0.17326200
P        1.92999480       1.06440650       7.87397092       0.00000000 NULL       0.15365600      -0.16132600      -0.06735500
P        8.25655925       6.13168449      -0.51452066       0.00000000 NULL      -0.11622900       0.03490100       0.11588200
P        4.30362100      -2.91371531       8.88944127       0.00000000 NULL       0.05805500       0.13951900      -0.07296300
P       -3.73610519       7.65199991       5.78977305       0.00000000 NULL       0.12460200      -0.09260400       0.06370600
P        6.42803955      -1.64286772       6.54770132       0.00000000 NULL      -0.05283100      -0.05447400       0.06027000
P       -2.92906761       4.78449406       7.44447976       0.00000000 NULL      -0.04245200       0.07449100      -0.04516500
P        5.28439786       7.67819985       0.10717119       0.00000000 NULL       0.08162900      -0.03684100      -0.03703000
P       -0.85809672       3.33403499       5.01456128       0.00000000 NULL       0.23753500       0.13161700      -0.05974500
P        3.43922377       4.88377637       1.14822145       0.00000000 NULL       0.07998100      -0.12485600       0.23522200
P        4.07256086      -0.02144160       4.51793455       0.00000000 NULL      -0.13862900       0.21360200       0.11167700
P       -1.34907422       6.21485533       6.83226929       0.00000000 NULL      -0.01914000       0.06294900      -0.04638600
P        6.35944932       6.61070059       1.72637588       0.00000000 NULL       0.06553900      -0.04330800      -0.01759600