16
Lattice="6.44508 -4.0851658260882327e-16 1.1077436388193417e-15 1.025004123455806 6.949304016014738 -1.645500653854058e-15 2.32466651682879 2.683753374047243 7.925020134638467" Properties=species:S:1:pos:R:3:initial_magmoms:R:1:castep_labels:S:1 n_minim_iter=1 pbc="T T T"
P        6.81580503       3.39416715       2.99572894       0.00000000 NULL
P        5.13397747       8.31342138       5.69782795       0.00000000 NULL
P        6.64583835       7.76263797       4.48264974       0.00000000 NULL
P        6.31690478       5.82370570       1.25420180       0.00000000 NULL
P        7.95449200       5.27128888       5.29483513       0.00000000 NULL
P        2.21706642       1.40784432       1.02599213       0.00000000 NULL
P        3.35720453       7.58108511       2.89889787       0.00000000 NULL
P        7.26550545       8.60939305       7.52314078       0.00000000 NULL
P        2.00274576       3.28846972       1.83133743       0.00000000 NULL
P        6.94085234       3.25737623       5.06957119       0.00000000 NULL
P        4.08782863       5.13115014       7.29457290       0.00000000 NULL
P        5.13603717       2.90456834       0.24331080       0.00000000 NULL
P        3.06881964       4.16191731       0.36730170       0.00000000 NULL
P        7.37782307       1.66999172       3.90530410       0.00000000 NULL
P        6.32192049       4.61063201       6.45134758       0.00000000 NULL
P        6.12931476       0.98908310       2.48862116       0.00000000 NULL
16
Lattice="6.455511868769023 -0.0002996618324555544 -0.006452832204571948 1.0263400676687389 6.964915729383019 -0.0012097651886160041 2.320369839740951 2.6894834890874555 7.948547724242125" Properties=species:S:1:pos:R:3:initial_magmoms:R:1:castep_labels:S:1 n_minim_iter=2 pbc="T T T"
P        6.82329346       3.40175504       2.99839427       0.00000000 NULL
P        5.13613055       8.33181862       5.71121568       0.00000000 NULL
P        6.65153802       7.77938126       4.49066694       0.00000000 NULL
P        6.32561614       5.83647680       1.25181328       0.00000000 NULL
P        7.96188153       5.28272136       5.30402096       0.00000000 NULL
P        2.21962929       1.41057072       1.02704679       0.00000000 NULL
P        3.35962322       7.59759452       2.90490911       0.00000000 NULL
P        7.26929621       8.62825373       7.54027545       0.00000000 NULL
P        2.00415253       3.29587080       1.83538697       0.00000000 NULL
P        6.94691855       3.26440391       5.07939397       0.00000000 NULL
P        4.08684388       5.14247045       7.31389682       0.00000000 NULL
P        5.14389242       2.91090313       0.23883729       0.00000000 NULL
P        3.07347051       4.17134539       0.36507502       0.00000000 NULL
P        7.38615587       1.67317466       3.91086553       0.00000000 NULL
P        6.32536660       4.62070861       6.46627349       0.00000000 NULL
P        6.13643042       0.99084298       2.49017321       0.00000000 NULL
16
Lattice="6.6029594434562675 -0.005659733054286467 -0.10276121420162077 1.0440102296496567 7.191651897040065 -0.020026973461513733 2.2528975142112837 2.771450524204369 8.29248607380139" Properties=species:S:1:pos:R:3:initial_magmoms:R:1:castep_labels:S:1 n_minim_iter=3 pbc="T T T"
P        6.92589030       3.51085609       3.03514181       0.00000000 NULL
P        5.16066353       8.59773830       5.90516391       0.00000000 NULL
P        6.72694907       8.02090593       4.60570407       0.00000000 NULL
P        6.44673458       6.02093600       1.21437970       0.00000000 NULL
P        8.06117897       5.44697986       5.43591725       0.00000000 NULL
P        2.25484066       1.44955764       1.04176803       0.00000000 NULL
P        3.39034775       7.83644357       2.99123745       0.00000000 NULL
P        7.31536746       8.90031264       7.78856027       0.00000000 NULL
P        2.02216422       3.40296695       1.89386569       0.00000000 NULL
P        7.02809785       3.36501809       5.22136232       0.00000000 NULL
P        4.06633369       5.30560128       7.59527699       0.00000000 NULL
P        5.25405385       3.00217862       0.17149193       0.00000000 NULL
P        3.13847770       4.30790760       0.33085565       0.00000000 NULL
P        7.50086811       1.71771230       3.99026705       0.00000000 NULL
P        6.36805646       4.76556611       6.68308970       0.00000000 NULL
P        6.23464617       1.01509066       2.51097854       0.00000000 NULL
16
Lattice="6.584437915656345 -0.02141427795771604 -0.15101963651976602 1.0240775423074504 7.248421782022812 -0.0502200714427678 2.1803170874213365 2.7629797258281354 8.379598523533668" Properties=species:S:1:pos:R:3:initial_magmoms:R:1:castep_labels:S:1 n_minim_iter=4 pbc="T T T"
P        6.87188034       3.51698862       3.01319034       0.00000000 NULL
P        5.08438553       8.63812636       5.92174314       0.00000000 NULL
P        6.65325286       8.05239050       4.59693499       0.00000000 NULL
P        6.40460825       6.05094070       1.16532581       0.00000000 NULL
P        7.98477588       5.45486359       5.43500342       0.00000000 NULL
P        2.23751303       1.45023319       1.03574929       0.00000000 NULL
P        3.34207617       7.87995083       2.98382677       0.00000000 NULL
P        7.21650082       8.93122757       7.81484820       0.00000000 NULL
P        1.99694916       3.42093209       1.89523963       0.00000000 NULL
P        6.96336073       3.36208368       5.23447026       0.00000000 NULL
P        3.98801551       5.31793313       7.64948454       0.00000000 NULL
P        5.22768786       3.01422570       0.12594137       0.00000000 NULL
P        3.11970344       4.33560538       0.29627112       0.00000000 NULL
P        7.45033749       1.69960760       3.98718267       0.00000000 NULL
P        6.28995291       4.77138354       6.71630556       0.00000000 NULL
P        6.19253184       0.99926265       2.49382117       0.00000000 NULL
16
Lattice="6.510342845887105 -0.043984552062537416 -0.20454068298731784 0.9879576728069308 7.269722336980236 -0.09277779238109758 2.078382782817064 2.725625060214802 8.42890378089735" Properties=species:S:1:pos:R:3:initial_magmoms:R:1:castep_labels:S:1 n_minim_iter=5 pbc="T T T"
P        6.75235327       3.49467006       2.96748219       0.00000000 NULL
P        4.95152048       8.62263329       5.89764117       0.00000000 NULL
P        6.50995731       8.02964646       4.55241470       0.00000000 NULL
P        6.30069238       6.04335095       1.09615278       0.00000000 NULL
P        7.82894259       5.41877340       5.39805406       0.00000000 NULL
P        2.19840737       1.43971281       1.02223250       0.00000000 NULL
P        3.25439259       7.87657481       2.94975602       0.00000000 NULL
P        7.03927860       8.89912521       7.79170915       0.00000000 NULL
P        1.95054727       3.41721312       1.88209646       0.00000000 NULL
P        6.83167387       3.32852808       5.21711423       0.00000000 NULL
P        3.86371873       5.28937428       7.66223137       0.00000000 NULL
P        5.15237911       3.00647242       0.07001503       0.00000000 NULL
P        3.07070420       4.33839156       0.24961333       0.00000000 NULL
P        7.33253484       1.65891387       3.96025036       0.00000000 NULL
P        6.14730182       4.73840582       6.71220124       0.00000000 NULL
P        6.09330996       0.96758158       2.45925773       0.00000000 NULL
16
Lattice="6.320290283084616 -0.08584694882742824 -0.2948796566595165 0.9125948871620467 7.263450838791888 -0.16707072067120435 1.8813184542063026 2.6423353234812623 8.498465738945745" Properties=species:S:1:pos:R:3:initial_magmoms:R:1:castep_labels:S:1 n_minim_iter=6 pbc="T T T"
P        6.47897415       3.43208681       2.88346530       0.00000000 NULL
P        4.67185264       8.54179961       5.84493282       0.00000000 NULL
P        6.19572002       7.93686647       4.46803126       0.00000000 NULL
P        6.05865226       5.99112652       0.97545564       0.00000000 NULL
P        7.48172052       5.31889445       5.32556630       0.00000000 NULL
P        2.10852353       1.41154050       0.99852776       0.00000000 NULL
P        3.06796707       7.82054374       2.88492644       0.00000000 NULL
P        6.66060586       8.78620836       7.73823902       0.00000000 NULL
P        1.85184135       3.38920145       1.85553190       0.00000000 NULL
P        6.53778963       3.24846504       5.17954431       0.00000000 NULL
P        3.61032684       5.20658775       7.66867996       0.00000000 NULL
P        4.97038214       2.97396975      -0.02598126       0.00000000 NULL
P        2.95597999       4.31563225       0.16696463       0.00000000 NULL
P        7.06103770       1.57549110       3.90923371       0.00000000 NULL
P        5.83969560       4.65125681       6.69516869       0.00000000 NULL
P        5.86158206       0.90295167       2.39400360       0.00000000 NULL
16
Lattice="6.02630033058336 -0.1304816442697862 -0.3953323747713943 0.8177130576332354 7.234265303064563 -0.21217630288305847 1.6331746100689823 2.5844864259544287 8.757561930974127" Properties=species:S:1:pos:R:3:initial_magmoms:R:1:castep_labels:S:1 n_minim_iter=7 pbc="T T T"
P        6.08396927       3.37216059       2.86773900       0.00000000 NULL
P        4.30000661       8.45800597       5.95268537       0.00000000 NULL
P        5.75874381       7.82457404       4.51397133       0.00000000 NULL
P        5.71308431       5.92008052       0.90154824       0.00000000 NULL
P        6.99390495       5.22052426       5.38481147       0.00000000 NULL
P        1.97847624       1.37946607       1.00527868       0.00000000 NULL
P        2.82086430       7.74199344       2.91390493       0.00000000 NULL
P        6.14366104       8.67572577       7.88489472       0.00000000 NULL
P        1.72383525       3.35857936       1.88263734       0.00000000 NULL
P        6.12315508       3.18470214       5.26790600       0.00000000 NULL
P        3.27836963       5.14098729       7.84962104       0.00000000 NULL
P        4.69959115       2.93526113      -0.11143755       0.00000000 NULL
P        2.79584783       4.27959101       0.09923217       0.00000000 NULL
P        6.67643452       1.50565713       3.95157293       0.00000000 NULL
P        5.41553729       4.58285241       6.84503769       0.00000000 NULL
P        5.51855009       0.83919462       2.36514911       0.00000000 NULL
16
Lattice="5.638090775788171 -0.11953525085182579 -0.47913301360085087 0.7677762719471439 7.055869745097665 -0.19488377813696223 1.3946667741235317 2.55378681464841 8.865918410450217" Properties=species:S:1:pos:R:3:initial_magmoms:R:1:castep_labels:S:1 n_minim_iter=8 pbc="T T T"
P        5.63003707       3.31330717       2.83124137       0.00000000 NULL
P        3.93672559       8.27884739       6.01813243       0.00000000 NULL
P        5.30233933       7.62900709       4.54238428       0.00000000 NULL
P        5.33046358       5.77983281       0.86872488       0.00000000 NULL
P        6.45187191       5.11953464       5.38935881       0.00000000 NULL
P        1.82790565       1.34887961       1.00860562       0.00000000 NULL
P        2.59540318       7.54474784       2.94420729       0.00000000 NULL
P        5.61288318       8.49707505       7.95090194       0.00000000 NULL
P        1.60083033       3.28541800       1.89927596       0.00000000 NULL
P        5.64410009       3.14777508       5.28886059       0.00000000 NULL
P        2.94777895       5.05189730       7.91899280       0.00000000 NULL
P        4.38426681       2.87702257      -0.16162560       0.00000000 NULL
P        2.62493208       4.18096097       0.07029651       0.00000000 NULL
P        6.20508181       1.50360650       3.93724980       0.00000000 NULL
P        4.95450959       4.51807894       6.90518862       0.00000000 NULL
P        5.10944407       0.82715887       2.30223402       0.00000000 NULL
16
Lattice="5.670386965633916 -0.11145434795797574 -0.5314834563265393 0.7816256545299922 7.1711407931573765 -0.1607678778595916 1.3453092345590787 2.6491222808748374 9.084513722205125" Properties=species:S:1:pos:R:3:initial_magmoms:R:1:castep_labels:S:1 n_minim_iter=9 pbc="T T T"
P        5.64076437       3.39843406       2.87715251       0.00000000 NULL
P        3.92624598       8.45791695       6.18832090       0.00000000 NULL
P        5.30518709       7.78320844       4.66483465       0.00000000 NULL
P        5.36044130       5.88870149       0.89112143       0.00000000 NULL
P        6.45611831       5.25104982       5.50391303       0.00000000 NULL
P        1.83135703       1.37892957       1.02948705       0.00000000 NULL
P        2.60003335       7.68442789       3.04092381       0.00000000 NULL
P        5.59674996       8.69325770       8.15294556       0.00000000 NULL
P        1.60432873       3.35528844       1.95369883       0.00000000 NULL
P        5.64032846       3.24247118       5.39941697       0.00000000 NULL
P        2.91474406       5.18628738       8.11451384       0.00000000 NULL
P        4.41241676       2.93304993      -0.17834150       0.00000000 NULL
P        2.64405302       4.25933227       0.07861279       0.00000000 NULL
P        6.21821395       1.56861271       4.00041254       0.00000000 NULL
P        4.93813381       4.64391545       7.06737682       0.00000000 NULL
P        5.11946855       0.86300561       2.31890104       0.00000000 NULL
16
Lattice="5.610174057690815 -0.11147144438302854 -0.5409504801635133 0.7720311596312139 7.1255179771537165 -0.1634661643333105 1.3119431369950858 2.6301379373833242 9.055344375199367" Properties=species:S:1:pos:R:3:initial_magmoms:R:1:castep_labels:S:1 n_minim_iter=10 pbc="T T T"
P        5.57174230       3.37569629       2.85512973       0.00000000 NULL
P        3.87018975       8.40272168       6.16176274       0.00000000 NULL
P        5.23504376       7.72800123       4.64131074       0.00000000 NULL
P        5.30010041       5.84937931       0.87833379       0.00000000 NULL
P        6.37394956       5.21629631       5.47501070       0.00000000 NULL
P        1.80817188       1.37024141       1.02447927       0.00000000 NULL
P        2.56440256       7.63169755       3.02388637       0.00000000 NULL
P        5.51672105       8.63499121       8.11612518       0.00000000 NULL
P        1.58492180       3.33343169       1.94322381       0.00000000 NULL
P        5.56714611       3.22109329       5.37466605       0.00000000 NULL
P        2.86535209       5.15177052       8.08260479       0.00000000 NULL
P        4.36449903       2.91399851      -0.18763196       0.00000000 NULL
P        2.61523339       4.23336101       0.07116975       0.00000000 NULL
P        6.14556353       1.55894962       3.97792589       0.00000000 NULL
P        4.86938983       4.61396867       7.03884976       0.00000000 NULL
P        5.05888956       0.85501656       2.29850628       0.00000000 NULL
16
Lattice="5.569401764320516 -0.11040396071166861 -0.5583177157215304 0.7666978665979378 7.114097328064031 -0.15858001062046936 1.2763263853352438 2.634768883234785 9.077000215356607" Properties=species:S:1:pos:R:3:initial_magmoms:R:1:castep_labels:S:1 n_minim_iter=11 pbc="T T T"
P        5.51975166       3.37509236       2.84767847       0.00000000 NULL
P        3.82380480       8.39661203       6.17590051       0.00000000 NULL
P        5.18026506       7.71644074       4.64859919       0.00000000 NULL
P        5.25838225       5.84090614       0.87380752       0.00000000 NULL
P        6.31040583       5.21604064       5.47646494       0.00000000 NULL
P        1.79060794       1.36958394       1.02509869       0.00000000 NULL
P        2.53702220       7.61943390       3.03036449       0.00000000 NULL
P        5.45068031       8.62973683       8.12868223       0.00000000 NULL
P        1.57027733       3.33085833       1.94609892       0.00000000 NULL
P        5.50897826       3.22327267       5.37855062       0.00000000 NULL
P        2.82002437       5.15237493       8.09750962       0.00000000 NULL
P        4.33260871       2.91027449      -0.19784616       0.00000000 NULL
P        2.59596309       4.22955101       0.06743981       0.00000000 NULL
P        6.09139441       1.56421864       3.97397230       0.00000000 NULL
P        4.81237673       4.61609722       7.04993827       0.00000000 NULL
P        5.01361734       0.85551749       2.28622592       0.00000000 NULL
16
Lattice="5.408296111223851 -0.10855972984904348 -0.6347283111026946 0.7430646707654548 7.081542220781605 -0.13301598451897323 1.125029122381023 2.665759981253672 9.188444911464998" Properties=species:S:1:pos:R:3:initial_magmoms:R:1:castep_labels:S:1 n_minim_iter=12 pbc="T T T"
P        5.30927717       3.38014116       2.82222330       0.00000000 NULL
P        3.63019813       8.39260476       6.25332203       0.00000000 NULL
P        4.95475997       7.68552404       4.69413100       0.00000000 NULL
P        5.08990217       5.81682345       0.86053170       0.00000000 NULL
P        6.05124542       5.22893709       5.49604310       0.00000000 NULL
P        1.71904036       1.36991554       1.03076030       0.00000000 NULL
P        2.42299499       7.58533431       3.06824032       0.00000000 NULL
P        5.17742552       8.63031201       8.20213210       0.00000000 NULL
P        1.50962834       3.32860333       1.96356831       0.00000000 NULL
P        5.27089362       3.24080764       5.40742636       0.00000000 NULL
P        2.62970685       5.17080980       8.17931607       0.00000000 NULL
P        4.20635696       2.89883306      -0.24077470       0.00000000 NULL
P        2.51753281       4.22326577       0.05453913       0.00000000 NULL
P        5.87273841       1.59074829       3.96497148       0.00000000 NULL
P        4.57742893       4.63819422       7.11300760       0.00000000 NULL
P        4.83183582       0.85862335       2.23655932       0.00000000 NULL
16
Lattice="5.176324493491442 -0.14105734951520574 -0.7579157575117559 0.6711326383380195 7.065080274450913 -0.08308606468036225 0.8763533507612422 2.728959334608149 9.374126833810884" Properties=species:S:1:pos:R:3:initial_magmoms:R:1:castep_labels:S:1 n_minim_iter=13 pbc="T T T"
P        4.97990527       3.37677123       2.78029711       0.00000000 NULL
P        3.29292595       8.41634471       6.38902195       0.00000000 NULL
P        4.57305339       7.64216976       4.78990104       0.00000000 NULL
P        4.81314354       5.77813711       0.85961360       0.00000000 NULL
P        5.63995440       5.25286931       5.54192216       0.00000000 NULL
P        1.60308029       1.36942539       1.04905568       0.00000000 NULL
P        2.21542591       7.55278845       3.13374176       0.00000000 NULL
P        4.72153722       8.65136196       8.32555761       0.00000000 NULL
P        1.40522485       3.33835362       1.98975245       0.00000000 NULL
P        4.89325782       3.25441064       5.46856294       0.00000000 NULL
P        2.30747524       5.21919158       8.31515775       0.00000000 NULL
P        4.01733584       2.86464462      -0.30947021       0.00000000 NULL
P        2.37786055       4.23369201       0.04086480       0.00000000 NULL
P        5.54705068       1.61146453       3.95797816       0.00000000 NULL
P        4.20112079       4.67544019       7.22198862       0.00000000 NULL
P        4.56115099       0.83282422       2.14437962       0.00000000 NULL
16
Lattice="5.013489056251476 -0.1724946174737603 -0.7367585203493059 0.6113391017034707 6.899815449559954 -0.10790295392180942 0.8305453185640027 2.623588928119949 9.134362788825547" Properties=species:S:1:pos:R:3:initial_magmoms:R:1:castep_labels:S:1 n_minim_iter=14 pbc="T T T"
P        4.79711652       3.25425026       2.68801692       0.00000000 NULL
P        3.14135635       8.17895778       6.19629364       0.00000000 NULL
P        4.37270476       7.39159903       4.66914253       0.00000000 NULL
P        4.62928033       5.60448169       0.84344053       0.00000000 NULL
P        5.43235173       5.08696297       5.39987000       0.00000000 NULL
P        1.53756543       1.32625829       1.03803155       0.00000000 NULL
P        2.11088571       7.33260731       3.01890137       0.00000000 NULL
P        4.51967325       8.38431184       8.07777836       0.00000000 NULL
P        1.35270751       3.24974328       1.91708405       0.00000000 NULL
P        4.70834473       3.12143757       5.34271203       0.00000000 NULL
P        2.19356283       5.05626203       8.07759059       0.00000000 NULL
P        3.88613768       2.76666662      -0.31383289       0.00000000 NULL
P        2.27979355       4.14095307       0.01946037       0.00000000 NULL
P        5.37749761       1.52987783       3.86334172       0.00000000 NULL
P        4.04161667       4.51376339       7.02911244       0.00000000 NULL
P        4.40789384       0.75928673       2.05987428       0.00000000 NULL
16
Lattice="5.090987657809925 -0.17896726486992307 -0.7715407625397547 0.6166851938567196 7.046475259763771 -0.0788038922474124 0.8130338904930299 2.7177834799825127 9.352358851322053" Properties=species:S:1:pos:R:3:initial_magmoms:R:1:castep_labels:S:1 n_minim_iter=15 pbc="T T T"
P        4.85740276       3.33681371       2.74763172       0.00000000 NULL
P        3.16311387       8.38052791       6.36813201       0.00000000 NULL
P        4.41834082       7.56458665       4.79832401       0.00000000 NULL
P        4.69265633       5.72711801       0.87785918       0.00000000 NULL
P        5.49510555       5.22193678       5.52884609       0.00000000 NULL
P        1.55647195       1.35726907       1.06326289       0.00000000 NULL
P        2.13057538       7.49822102       3.11546787       0.00000000 NULL
P        4.55722539       8.59734530       8.28509075       0.00000000 NULL
P        1.36622872       3.32975275       1.97202902       0.00000000 NULL
P        4.75878560       3.20920118       5.46638814       0.00000000 NULL
P        2.19672964       5.19814473       8.27545252       0.00000000 NULL
P        3.94556120       2.82424740      -0.31923294       0.00000000 NULL
P        2.31096469       4.23307922       0.03223371       0.00000000 NULL
P        5.44734499       1.58013387       3.94135000       0.00000000 NULL
P        4.07751513       4.63899074       7.19632694       0.00000000 NULL
P        4.46590082       0.78248255       2.09097749       0.00000000 NULL
16
Lattice="5.0748598345963005 -0.18292553004186812 -0.7701707197032607 0.6098523425418909 7.033572995774434 -0.08071759492307269 0.8072531707719267 2.709185285727632 9.342163600750718" Properties=species:S:1:pos:R:3:initial_magmoms:R:1:castep_labels:S:1 n_minim_iter=16 pbc="T T T"
P        4.83853438       3.32579955       2.74331088       0.00000000 NULL
P        3.14621134       8.36136638       6.35925627       0.00000000 NULL
P        4.39733590       7.54315393       4.79371867       0.00000000 NULL
P        4.67339053       5.71232797       0.87845844       0.00000000 NULL
P        5.47340687       5.20781075       5.52328979       0.00000000 NULL
P        1.54972671       1.35332513       1.06394168       0.00000000 NULL
P        2.11903765       7.48007382       3.10958804       0.00000000 NULL
P        4.53544467       8.57521657       8.27362487       0.00000000 NULL
P        1.36020297       3.32290042       1.96839765       0.00000000 NULL
P        4.73935887       3.19734778       5.46244205       0.00000000 NULL
P        2.18395012       5.18496400       8.26385271       0.00000000 NULL
P        3.93192999       2.81582874      -0.31901754       0.00000000 NULL
P        2.30093717       4.22533969       0.03020197       0.00000000 NULL
P        5.42968978       1.57215000       3.93783824       0.00000000 NULL
P        4.06025448       4.62504413       7.18799280       0.00000000 NULL
P        4.45032608       0.77486802       2.08570225       0.00000000 NULL
16
Lattice="5.063112634167648 -0.18815691561772427 -0.7713875366435753 0.6023434492977319 7.030199752000219 -0.08133336241931884 0.7993414969144574 2.7058354396871116 9.345089161428058" Properties=species:S:1:pos:R:3:initial_magmoms:R:1:castep_labels:S:1 n_minim_iter=17 pbc="T T T"
P        4.82223092       3.31912037       2.74190264       0.00000000 NULL
P        3.12878451       8.35441304       6.36008776       0.00000000 NULL
P        4.37730869       7.53156506       4.79640500       0.00000000 NULL
P        4.65672827       5.70465836       0.88071619       0.00000000 NULL
P        5.45406029       5.20131757       5.52491982       0.00000000 NULL
P        1.54368119       1.35104030       1.06618467       0.00000000 NULL
P        2.10744715       7.47191460       3.10889597       0.00000000 NULL
P        4.51388269       8.56554784       8.27382275       0.00000000 NULL
P        1.35439195       3.32102026       1.96773749       0.00000000 NULL
P        4.72165281       3.18990677       5.46571837       0.00000000 NULL
P        2.16979541       5.18008762       8.26358983       0.00000000 NULL
P        3.92134684       2.81050723      -0.31961758       0.00000000 NULL
P        2.29208068       4.22343729       0.02834726       0.00000000 NULL
P        5.41552726       1.56625816       3.93851259       0.00000000 NULL
P        4.04373738       4.61799212       7.18924737       0.00000000 NULL
P        4.43761100       0.76759887       2.08142274       0.00000000 NULL
16
Lattice="5.008705200009965 -0.2165523303954292 -0.7798707883508426 0.5630737716041468 7.022042437565524 -0.08426021782735506 0.7574622074010076 2.6923880400073745 9.366767820699433" Properties=species:S:1:pos:R:3:initial_magmoms:R:1:castep_labels:S:1 n_minim_iter=18 pbc="T T T"
P        4.74282600       3.28815155       2.73543508       0.00000000 NULL
P        3.03999519       8.32941682       6.36851467       0.00000000 NULL
P        4.27724747       7.48083263       4.81284657       0.00000000 NULL
P        4.57503451       5.67172965       0.89207126       0.00000000 NULL
P        5.35896701       5.17399793       5.53586714       0.00000000 NULL
P        1.51391036       1.34061197       1.07836327       0.00000000 NULL
P        2.04853891       7.43931800       3.10738933       0.00000000 NULL
P        4.40529195       8.52651934       8.27999334       0.00000000 NULL
P        1.32494917       3.31579500       1.96561777       0.00000000 NULL
P        4.63436795       3.15487314       5.48546928       0.00000000 NULL
P        2.09704815       5.16177727       8.26743812       0.00000000 NULL
P        3.87091772       2.78594600      -0.32382745       0.00000000 NULL
P        2.24837008       4.21882571       0.01814733       0.00000000 NULL
P        5.34787841       1.53691005       3.94291510       0.00000000 NULL
P        3.96132501       4.58710814       7.19982381       0.00000000 NULL
P        4.37686340       0.73005260       2.05892275       0.00000000 NULL
16
Lattice="4.836214535914322 -0.3391096977649364 -0.8025645067115164 0.4034959157499484 7.036993186682425 -0.11136782536104892 0.6163087702956297 2.6346863400308087 9.411687398378467" Properties=species:S:1:pos:R:3:initial_magmoms:R:1:castep_labels:S:1 n_minim_iter=19 pbc="T T T"
P        4.47301737       3.17015498       2.70310551       0.00000000 NULL
P        2.71920337       8.26937340       6.36070438       0.00000000 NULL
P        3.92416608       7.30859914       4.84765999       0.00000000 NULL
P        4.28517345       5.56931979       0.92845415       0.00000000 NULL
P        5.03653052       5.07946383       5.55481586       0.00000000 NULL
P        1.40931376       1.30153979       1.12867428       0.00000000 NULL
P        1.83435035       7.34891766       3.07593209       0.00000000 NULL
P        4.02536776       8.40349449       8.26312289       0.00000000 NULL
P        1.21699438       3.31448577       1.94536589       0.00000000 NULL
P        4.33689433       3.01481666       5.54526622       0.00000000 NULL
P        1.83969778       5.10290103       8.23617705       0.00000000 NULL
P        3.69921425       2.70230156      -0.33648512       0.00000000 NULL
P        2.09130197       4.22347116      -0.03440004       0.00000000 NULL
P        5.13184438       1.41110478       3.94467970       0.00000000 NULL
P        3.68038917       4.47094672       7.20936340       0.00000000 NULL
P        4.18013079       0.56966825       1.95773523       0.00000000 NULL
16
Lattice="4.791833794825424 -0.3210758339158326 -0.606226039151265 0.41588247415615887 7.131819822811531 -0.0999608395780226 0.8492328501782367 2.6541038776158654 9.476806674105577" Properties=species:S:1:pos:R:3:initial_magmoms:R:1:castep_labels:S:1 n_minim_iter=20 pbc="T T T"
P        4.51266856       3.21393812       2.90202756       0.00000000 NULL
P        2.88205337       8.40081398       6.47932071       0.00000000 NULL
P        4.03589269       7.35475749       5.04260760       0.00000000 NULL
P        4.29726344       5.65023033       1.15288397       0.00000000 NULL
P        5.17449799       5.19130363       5.80660254       0.00000000 NULL
P        1.41326790       1.31944456       1.26260886       0.00000000 NULL
P        1.94036733       7.41402277       3.15940509       0.00000000 NULL
P        4.23874325       8.51677152       8.45521998       0.00000000 NULL
P        1.27314563       3.39143510       1.99862122       0.00000000 NULL
P        4.42926271       3.05434187       5.79112526       0.00000000 NULL
P        2.02088717       5.17760789       8.27657413       0.00000000 NULL
P        3.68962246       2.77347694      -0.15708105       0.00000000 NULL
P        2.10488704       4.30006048       0.00996088       0.00000000 NULL
P        5.22725182       1.46857909       4.16940631       0.00000000 NULL
P        3.84490189       4.53444993       7.39186191       0.00000000 NULL
P        4.20091048       0.55592865       2.03537268       0.00000000 NULL
16