12
Lattice="6.640950000000003 -2.338526205651489e-16 2.1373910965419328e-15 1.0355066976107863 6.656143856866624 -4.730941547966689e-16 3.278757569497146 1.5414713259301855 5.757007179142671" Properties=species:S:1:pos:R:3:initial_magmoms:R:1:castep_labels:S:1 n_minim_iter=1 pbc="T T T"
P        3.32194926       2.90704076       1.28216322       0.00000000 NULL
P        6.89653621       6.56016060       0.46644596       0.00000000 NULL
P        3.14060420       2.95728052       3.47849197       0.00000000 NULL
P        6.25259753       4.10054615       1.26229176       0.00000000 NULL
P        4.76599859       4.84982205       0.14150954       0.00000000 NULL
P        4.02478814       3.03920930       5.30747818       0.00000000 NULL
P        5.85519685       7.84621653       5.70981411       0.00000000 NULL
P        4.76811885       2.06880290       2.42009095       0.00000000 NULL
P        8.69731320       3.76572125       5.21770917       0.00000000 NULL
P        6.43197885       2.07096459       1.24830050       0.00000000 NULL
P        7.15227343       6.21921563       4.08986713       0.00000000 NULL
P        8.45341879       4.58970529       3.39281101       0.00000000 NULL
12
Lattice="6.658694811300851 -0.008184942159071378 0.0015162435400750106 1.030069933063385 6.671312587944486 0.000572249365031401 3.286933072350632 1.5415291652503385 5.779398372849618" Properties=species:S:1:pos:R:3:initial_magmoms:R:1:castep_labels:S:1 n_minim_iter=2 pbc="T T T"
P        3.32732167       2.91027703       1.28763458       0.00000000 NULL
P        6.90695484       6.56772018       0.47010044       0.00000000 NULL
P        3.14610851       2.96078964       3.49212740       0.00000000 NULL
P        6.26481867       4.10333323       1.26887274       0.00000000 NULL
P        4.77262516       4.85608760       0.14348766       0.00000000 NULL
P        4.03352672       3.04210337       5.32828891       0.00000000 NULL
P        5.86245156       7.85849314       5.73303521       0.00000000 NULL
P        4.77884401       2.06793727       2.43066307       0.00000000 NULL
P        8.71674953       3.76450664       5.23945366       0.00000000 NULL
P        6.44719295       2.06809183       1.25495980       0.00000000 NULL
P        7.16453530       6.22602272       4.10692585       0.00000000 NULL
P        8.47098838       4.59099985       3.40734574       0.00000000 NULL
12
Lattice="6.972229948072206 -0.1567172293074067 0.027073502238781213 0.9300865667399384 6.941524901078499 0.01263534375980133 3.4294097907698466 1.543123938220619 6.18004939350489" Properties=species:S:1:pos:R:3:initial_magmoms:R:1:castep_labels:S:1 n_minim_iter=3 pbc="T T T"
P        3.42024891       2.96722916       1.38562363       0.00000000 NULL
P        7.08722464       6.69998432       0.53589968       0.00000000 NULL
P        3.24095780       3.02327084       3.73614396       0.00000000 NULL
P        6.47814736       4.15120062       1.38667023       0.00000000 NULL
P        4.88662915       4.96615908       0.17936144       0.00000000 NULL
P        4.18551173       3.09361145       5.70080581       0.00000000 NULL
P        5.98486650       8.07708215       6.14995849       0.00000000 NULL
P        4.96664455       2.05143339       2.61964603       0.00000000 NULL
P        9.05678345       3.74133868       5.62786623       0.00000000 NULL
P        6.71483828       2.01463691       1.37364659       0.00000000 NULL
P        7.37677093       6.34606313       4.41256137       0.00000000 NULL
P        8.77787316       4.61209104       3.66679816       0.00000000 NULL
12
Lattice="7.034741966951282 -0.2169919813027548 -0.00022923911535620268 0.8794212543994544 7.022943427844525 0.05875496982450015 3.422613756350055 1.5779689491702347 6.340908996900229" Properties=species:S:1:pos:R:3:initial_magmoms:R:1:castep_labels:S:1 n_minim_iter=4 pbc="T T T"
P        3.42027234       2.98676191       1.42884263       0.00000000 NULL
P        7.09272381       6.72773011       0.56979759       0.00000000 NULL
P        3.22861943       3.06074186       3.83976945       0.00000000 NULL
P        6.49695525       4.16408982       1.42948660       0.00000000 NULL
P        4.88440826       4.99034467       0.20230865       0.00000000 NULL
P        4.18009809       3.13763139       5.85519150       0.00000000 NULL
P        5.94247078       8.17318301       6.34780602       0.00000000 NULL
P        4.98084373       2.05384021       2.68569858       0.00000000 NULL
P        9.07898661       3.75340024       5.76792044       0.00000000 NULL
P        6.75411776       1.99318988       1.40233380       0.00000000 NULL
P        7.37147292       6.39675517       4.54583088       0.00000000 NULL
P        8.79968292       4.62622791       3.76019144       0.00000000 NULL
12
Lattice="7.013229429845863 -0.25874869403140316 -0.042100598322666494 0.8342146102947723 7.032549435436338 0.13066082460323694 3.3660021443417194 1.6289248767439004 6.451891867988173" Properties=species:S:1:pos:R:3:initial_magmoms:R:1:castep_labels:S:1 n_minim_iter=5 pbc="T T T"
P        3.38490958       2.98825344       1.46670376       0.00000000 NULL
P        7.03002639       6.70264651       0.61151941       0.00000000 NULL
P        3.17685461       3.08875207       3.91820768       0.00000000 NULL
P        6.44549268       4.15395812       1.46509543       0.00000000 NULL
P        4.83443928       4.97302850       0.23432280       0.00000000 NULL
P        4.12068251       3.18031596       5.96780713       0.00000000 NULL
P        5.83362720       8.22208018       6.51749844       0.00000000 NULL
P        4.93452026       2.05741528       2.72828827       0.00000000 NULL
P        8.99005395       3.76934820       5.85995022       0.00000000 NULL
P        6.71450123       1.97220693       1.41486443       0.00000000 NULL
P        7.28539505       6.41399438       4.65582305       0.00000000 NULL
P        8.71917318       4.62753600       3.82652532       0.00000000 NULL
12
Lattice="6.928575874347292 -0.30569972093510195 -0.09491856125212055 0.7739563470953851 6.990105094773153 0.23562408058481837 3.2675214240617363 1.69551789253942 6.552866656094959" Properties=species:S:1:pos:R:3:initial_magmoms:R:1:castep_labels:S:1 n_minim_iter=6 pbc="T T T"
P        3.31425105       2.97204965       1.51159855       0.00000000 NULL
P        6.89809464       6.62279648       0.67389813       0.00000000 NULL
P        3.08682455       3.10978783       3.99652389       0.00000000 NULL
P        6.33051651       4.11521681       1.51021589       0.00000000 NULL
P        4.73336388       4.91441100       0.28391582       0.00000000 NULL
P        4.01361134       3.22349131       6.07626421       0.00000000 NULL
P        5.65099166       8.23611211       6.70710731       0.00000000 NULL
P        4.83674641       2.05447190       2.76833699       0.00000000 NULL
P        8.80588715       3.77604271       5.94541530       0.00000000 NULL
P        6.61027655       1.93701642       1.42626203       0.00000000 NULL
P        7.12142979       6.39791991       4.77861264       0.00000000 NULL
P        8.54749047       4.60654721       3.89635569       0.00000000 NULL
12
Lattice="6.748159407963211 -0.4533005129949359 -0.16504941422411554 0.5978859709236487 6.90331031590697 0.46891000770990915 3.0833899266852014 1.8191051274634418 6.765343915822426" Properties=species:S:1:pos:R:3:initial_magmoms:R:1:castep_labels:S:1 n_minim_iter=7 pbc="T T T"
P        3.14751070       2.92230781       1.62317483       0.00000000 NULL
P        6.57447544       6.41175242       0.84937970       0.00000000 NULL
P        2.89633078       3.13815035       4.16534420       0.00000000 NULL
P        6.06638504       3.99599447       1.64785396       0.00000000 NULL
P        4.48068367       4.76256569       0.41986299       0.00000000 NULL
P        3.79950025       3.29497640       6.30695747       0.00000000 NULL
P        5.23986300       8.24024474       7.13044228       0.00000000 NULL
P        4.63227045       2.01814572       2.87700982       0.00000000 NULL
P        8.41936127       3.73448000       6.16212851       0.00000000 NULL
P        6.38225443       1.81999650       1.49030970       0.00000000 NULL
P        6.75572346       6.32253038       5.07237629       0.00000000 NULL
P        8.16772827       4.51390232       4.08916940       0.00000000 NULL
12
Lattice="6.6860800389964 -0.5767443604919661 -0.12911410818832245 0.4644798152480418 6.905920477241873 0.607136948175601 3.0552390540907717 1.8779291192913827 6.814212458053134" Properties=species:S:1:pos:R:3:initial_magmoms:R:1:castep_labels:S:1 n_minim_iter=8 pbc="T T T"
P        3.06064982       2.90750576       1.69441371       0.00000000 NULL
P        6.40398311       6.30123844       1.00988535       0.00000000 NULL
P        2.82734283       3.16104135       4.22050420       0.00000000 NULL
P        5.95043242       3.92643989       1.78381766       0.00000000 NULL
P        4.32833385       4.68455571       0.53817728       0.00000000 NULL
P        3.75211926       3.33766606       6.36682968       0.00000000 NULL
P        5.05343650       8.27126585       7.32890690       0.00000000 NULL
P        4.56774748       1.98321068       2.95056693       0.00000000 NULL
P        8.28709875       3.68230678       6.28185972       0.00000000 NULL
P        6.29847649       1.73183388       1.58217089       0.00000000 NULL
P        6.60859553       6.27966303       5.24017538       0.00000000 NULL
P        8.00828928       4.45677290       4.23229850       0.00000000 NULL
12
Lattice="6.572369834628118 -0.5543817391202578 -0.1368452534976477 0.4691630528355399 6.842632968320711 0.683843190750221 2.997586893973134 1.940893039021959 6.767292132976018" Properties=species:S:1:pos:R:3:initial_magmoms:R:1:castep_labels:S:1 n_minim_iter=9 pbc="T T T"
P        3.00508638       2.91338719       1.70834074       0.00000000 NULL
P        6.31764371       6.25424043       1.07003327       0.00000000 NULL
P        2.77408190       3.18693365       4.19999422       0.00000000 NULL
P        5.86227430       3.92318125       1.82670563       0.00000000 NULL
P        4.24991621       4.64314262       0.58584796       0.00000000 NULL
P        3.70205271       3.38658845       6.31876505       0.00000000 NULL
P        4.95925896       8.28164372       7.36192292       0.00000000 NULL
P        4.49240122       2.00851016       2.94847538       0.00000000 NULL
P        8.13948128       3.72776708       6.26045445       0.00000000 NULL
P        6.20071807       1.75013104       1.59578532       0.00000000 NULL
P        6.51517846       6.27749630       5.26150350       0.00000000 NULL
P        7.86597764       4.49218818       4.24593289       0.00000000 NULL
12
Lattice="6.636845910948706 -0.5921446220602664 -0.13317932711167182 0.4413673651051575 6.909558056547049 0.6965678895569729 3.0238325044013687 1.9496227872353358 6.824647636246734" Properties=species:S:1:pos:R:3:initial_magmoms:R:1:castep_labels:S:1 n_minim_iter=10 pbc="T T T"
P        3.01790520       2.93122473       1.72515037       0.00000000 NULL
P        6.35002368       6.28480904       1.08955698       0.00000000 NULL
P        2.78845870       3.20822550       4.23448404       0.00000000 NULL
P        5.90278941       3.93549769       1.85390222       0.00000000 NULL
P        4.26483633       4.66747850       0.59766606       0.00000000 NULL
P        3.73121845       3.40863180       6.36952936       0.00000000 NULL
P        4.97191665       8.34386812       7.43375714       0.00000000 NULL
P        4.52962339       2.00773746       2.98007362       0.00000000 NULL
P        8.20329687       3.72789964       6.32158206       0.00000000 NULL
P        6.25520900       1.73827030       1.61724686       0.00000000 NULL
P        6.55433498       6.30992150       5.31415101       0.00000000 NULL
P        7.92067322       4.50469595       4.28981981       0.00000000 NULL
12
Lattice="6.623830676325642 -0.590338838877031 -0.13305792463791888 0.4411478468161701 6.904253168998837 0.7045185963020714 3.0179310413383478 1.95608091103316 6.816295463573836" Properties=species:S:1:pos:R:3:initial_magmoms:R:1:castep_labels:S:1 n_minim_iter=11 pbc="T T T"
P        3.01047670       2.93286789       1.72570995       0.00000000 NULL
P        6.34028316       6.28009982       1.09621315       0.00000000 NULL
P        2.78214426       3.21158955       4.22915933       0.00000000 NULL
P        5.89287202       3.93520562       1.85948010       0.00000000 NULL
P        4.25445402       4.66264995       0.60290814       0.00000000 NULL
P        3.72700803       3.41472299       6.35935698       0.00000000 NULL
P        4.96017390       8.34598522       7.43480805       0.00000000 NULL
P        4.52139990       2.01041904       2.97942807       0.00000000 NULL
P        8.18652842       3.73187352       6.31768839       0.00000000 NULL
P        6.24462729       1.74043141       1.61933445       0.00000000 NULL
P        6.54446531       6.30929361       5.31406355       0.00000000 NULL
P        7.90361527       4.50984420       4.29022927       0.00000000 NULL
12
Lattice="6.617476162701758 -0.5927783287551507 -0.13313646250100986 0.4377119322280897 6.907186889245666 0.7155487143626089 3.014159373672808 1.9651947120521231 6.813807159892034" Properties=species:S:1:pos:R:3:initial_magmoms:R:1:castep_labels:S:1 n_minim_iter=12 pbc="T T T"
P        3.00373277       2.93740772       1.72832297       0.00000000 NULL
P        6.33389803       6.27938814       1.10602744       0.00000000 NULL
P        2.77666724       3.21870473       4.22725653       0.00000000 NULL
P        5.88701993       3.93702459       1.86893131       0.00000000 NULL
P        4.24493081       4.66067514       0.61029200       0.00000000 NULL
P        3.72574940       3.42529239       6.35388167       0.00000000 NULL
P        4.94837654       8.35746315       7.44510517       0.00000000 NULL
P        4.51677210       2.01393441       2.98238326       0.00000000 NULL
P        8.17555877       3.73734663       6.32047570       0.00000000 NULL
P        6.23978233       1.74196402       1.62391201       0.00000000 NULL
P        6.53839266       6.31365909       5.32022000       0.00000000 NULL
P        7.89128848       4.51831049       4.29572795       0.00000000 NULL
12
Lattice="6.486760350889963 -0.6427117148976409 -0.14784465460105936 0.36728211419909546 6.980422012363705 0.9539720794076189 2.9252818022578224 2.16750492604704 6.754932204513954" Properties=species:S:1:pos:R:3:initial_magmoms:R:1:castep_labels:S:1 n_minim_iter=13 pbc="T T T"
P        2.85927420       3.04070210       1.78090008       0.00000000 NULL
P        6.20503124       6.27563266       1.30559845       0.00000000 NULL
P        2.65619881       3.37713762       4.18190269       0.00000000 NULL
P        5.76481082       3.98595899       2.06077598       0.00000000 NULL
P        4.04767785       4.62443669       0.76131542       0.00000000 NULL
P        3.69281417       3.65950049       6.23133689       0.00000000 NULL
P        4.69206372       8.62248701       7.66006974       0.00000000 NULL
P        4.41650766       2.09747805       3.03833027       0.00000000 NULL
P        7.94014062       3.86523629       6.36669693       0.00000000 NULL
P        6.13965200       1.78403704       1.71043509       0.00000000 NULL
P        6.40843395       6.41890779       5.43719003       0.00000000 NULL
P        7.62782264       4.71581705       4.40259126       0.00000000 NULL
12
Lattice="6.919716816424363 -0.6152875719517819 -0.47476862124919117 0.46227881804925086 7.254051701361001 0.8101905250822521 2.861997060706662 2.1631546316377213 6.550690633820001" Properties=species:S:1:pos:R:3:initial_magmoms:R:1:castep_labels:S:1 n_minim_iter=14 pbc="T T T"
P        2.98331973       3.14474169       1.56812565       0.00000000 NULL
P        6.65993124       6.56884182       0.88293647       0.00000000 NULL
P        2.69824885       3.47170881       3.93561388       0.00000000 NULL
P        6.13022702       4.14082880       1.70699956       0.00000000 NULL
P        4.35731831       4.81712668       0.47984940       0.00000000 NULL
P        3.75966740       3.77037050       5.91300655       0.00000000 NULL
P        4.81709708       8.86146642       7.25734595       0.00000000 NULL
P        4.60972329       2.17813124       2.79366358       0.00000000 NULL
P        8.26562223       3.94557106       5.91463605       0.00000000 NULL
P        6.52742939       1.89604157       1.35748670       0.00000000 NULL
P        6.72225830       6.62030163       4.94575664       0.00000000 NULL
P        8.00353382       4.92877886       3.91067722       0.00000000 NULL
12
Lattice="6.544707304854018 -0.48816291900656616 -0.3701674368897715 0.531220026288849 6.920000516279164 0.8254631757742663 2.797033990956581 2.143068773488659 6.404352847058973" Properties=species:S:1:pos:R:3:initial_magmoms:R:1:castep_labels:S:1 n_minim_iter=15 pbc="T T T"
P        2.88158412       3.04811787       1.57485408       0.00000000 NULL
P        6.40213901       6.35591259       0.97275619       0.00000000 NULL
P        2.63535308       3.37086147       3.86737227       0.00000000 NULL
P        5.87286076       4.04259339       1.75717347       0.00000000 NULL
P        4.18738299       4.65156579       0.55043455       0.00000000 NULL
P        3.66008693       3.67927055       5.80562497       0.00000000 NULL
P        4.72696336       8.56257812       7.15149756       0.00000000 NULL
P        4.41873661       2.16223280       2.78048401       0.00000000 NULL
P        7.93531950       3.90886836       5.86626609       0.00000000 NULL
P        6.21491260       1.91429148       1.41715623       0.00000000 NULL
P        6.49540010       6.42990898       4.91646463       0.00000000 NULL
P        7.67588271       4.83773806       3.92845426       0.00000000 NULL
12
Lattice="6.598824550456646 -0.5430112350562413 -0.33918797019195895 0.4846845890914965 7.002944658806086 0.8615788797722361 2.8378774296783202 2.1642375337009825 6.522832332938319" Properties=species:S:1:pos:R:3:initial_magmoms:R:1:castep_labels:S:1 n_minim_iter=16 pbc="T T T"
P        2.88691835       3.06867715       1.62153169       0.00000000 NULL
P        6.40807847       6.38803898       1.04313384       0.00000000 NULL
P        2.65137657       3.40106585       3.94656258       0.00000000 NULL
P        5.89837083       4.05519502       1.83258058       0.00000000 NULL
P        4.18392285       4.67979196       0.59956100       0.00000000 NULL
P        3.69464548       3.71372951       5.92391680       0.00000000 NULL
P        4.73487943       8.64997011       7.31250776       0.00000000 NULL
P        4.45438601       2.16163754       2.85588343       0.00000000 NULL
P        7.99994483       3.90956928       6.01302628       0.00000000 NULL
P        6.25823225       1.89564833       1.48215233       0.00000000 NULL
P        6.52202231       6.47387824       5.04502239       0.00000000 NULL
P        7.72000735       4.85116895       4.04456326       0.00000000 NULL
12
Lattice="6.567871074231401 -0.5537575436024071 -0.3174330186818036 0.46908719601382737 6.995930290159454 0.8821947734853974 2.838960006879861 2.172592568479075 6.5395620954795195" Properties=species:S:1:pos:R:3:initial_magmoms:R:1:castep_labels:S:1 n_minim_iter=17 pbc="T T T"
P        2.87042324       3.06422731       1.63847712       0.00000000 NULL
P        6.36741655       6.37183309       1.08230445       0.00000000 NULL
P        2.64341166       3.40168326       3.96267878       0.00000000 NULL
P        5.86708439       4.04599781       1.86625463       0.00000000 NULL
P        4.15355001       4.66837145       0.62864435       0.00000000 NULL
P        3.68786638       3.71835958       5.94680564       0.00000000 NULL
P        4.71280141       8.65072190       7.35477186       0.00000000 NULL
P        4.43788136       2.15852526       2.87838707       0.00000000 NULL
P        7.97189014       3.90338593       6.05312478       0.00000000 NULL
P        6.22891096       1.88779951       1.51092294       0.00000000 NULL
P        6.49142527       6.46781638       5.08482779       0.00000000 NULL
P        7.68391718       4.84390151       4.08549313       0.00000000 NULL
