13
Lattice="4.623924374244154 1.580456234723826 2.7508033909425356 1.8954368754059663 8.97804110402063 0.76924547028409 1.4613194847566735 -4.041594838754816 8.012930952264988" Properties=species:S:1:pos:R:3:initial_magmoms:R:1:castep_labels:S:1:forces:R:3 n_minim_iter=1 energy=-69.860114820248 stress="0.000608558036212009 0.0034871679501193823 0.002441069875591991 0.0034871679501193823 0.001781994834102237 0.0009091940010527915 0.002441069875591991 0.0009091940010527915 -0.0066075271422420005" free_energy=-69.860114820248 pbc="T T T"
P        3.49803382       3.11594492       4.13458492       0.00000000 NULL      -0.09433700       0.08985900       0.11779300
P        5.72691075       5.70912044       4.93836853       0.00000000 NULL       0.09556600      -0.06415100       0.16955300
P        3.64732607      -1.43649892       8.82827659       0.00000000 NULL      -0.17697100      -0.15929700      -0.17053900
P        1.85806883      -2.08558661       7.66135792       0.00000000 NULL       0.28146100       0.07903100       0.07006300
P        6.99991434       9.67783759       7.67504578       0.00000000 NULL      -0.09963900      -0.01697400       0.07840400
P        2.35782238      -0.03397198       5.02998340       0.00000000 NULL       0.07543900      -0.02910000       0.06265900
P        3.53652661       5.15298117       5.03352988       0.00000000 NULL      -0.04457100      -0.17368300       0.00497900
P        3.62007161       0.16615258       3.19469589       0.00000000 NULL      -0.09448300      -0.06512400      -0.03530300
P        0.30103543       1.02821966       3.04341794       0.00000000 NULL       0.05703000       0.03452700      -0.03665200
P        1.99372745       0.65043249       1.75362929       0.00000000 NULL       0.21135500       0.07437000      -0.09841800
P        5.36506944       7.05118168       3.20424552       0.00000000 NULL      -0.07183800      -0.04005800      -0.13026800
P        3.32353402      -1.77508495       5.90465536       0.00000000 NULL      -0.07428900       0.18305000       0.08024400
P        3.13354285       6.61014568       3.40691708       0.00000000 NULL      -0.06472200       0.08755000      -0.11251500
13
Lattice="4.598100978940423 1.5436194923174864 2.760339059078032 1.8364183237404639 8.93810977554741 0.7560398383787108 1.4502023103899275 -4.0505480602631865 8.104942892025502" Properties=species:S:1:pos:R:3:initial_magmoms:R:1:castep_labels:S:1:forces:R:3 n_minim_iter=2 energy=-69.881339702686 stress="0.002325533926891625 0.00038915311800392444 -0.0009240114545303363 0.00038915311800392444 0.0024186769522760356 -0.0004086645601991455 -0.0009240114545303363 -0.0004086645601991455 0.0009629230569310718" free_energy=-69.881339702686 pbc="T T T"
P        3.45769332       3.07959779       4.16311618       0.00000000 NULL      -0.05233600       0.03148600       0.06762200
P        5.66657488       5.64925324       4.96298325       0.00000000 NULL       0.14583300       0.03888800       0.05392200
P        3.61378251      -1.46878710       8.91522881       0.00000000 NULL      -0.13065400      -0.07177000      -0.04217700
P        1.83810990      -2.10183588       7.74505650       0.00000000 NULL       0.17180200       0.06659800       0.07093300
P        6.90166290       9.59427951       7.71887530       0.00000000 NULL      -0.07681800      -0.07204700      -0.10361300
P        2.33484867      -0.05604926       5.07815429       0.00000000 NULL       0.25164100      -0.02074600      -0.07605900
P        3.48046798       5.10709763       5.06829181       0.00000000 NULL      -0.06484900      -0.10826600      -0.14399200
P        3.60127377       0.13853850       3.21554417       0.00000000 NULL      -0.14630100       0.01320800       0.08698600
P        0.28206989       1.01874897       3.07519591       0.00000000 NULL       0.22284000      -0.00963400      -0.19189600
P        1.98174076       0.63422823       1.76364909       0.00000000 NULL       0.02239500       0.04979600       0.11443400
P        5.30331362       6.99226500       3.20646126       0.00000000 NULL      -0.06220100      -0.10229200       0.07061100
P        3.30534538      -1.79764321       5.96160963       0.00000000 NULL      -0.13265800       0.17139700       0.00502100
P        3.07589530       6.56645597       3.42168837       0.00000000 NULL      -0.14869400       0.01338300       0.08820700
13
Lattice="4.5830389793384025 1.5321703843387948 2.7647479770911154 1.8180898980661788 8.904344373980372 0.7597354504987798 1.4553109006972322 -4.03654237659869 8.109971791061488" Properties=species:S:1:pos:R:3:initial_magmoms:R:1:castep_labels:S:1:forces:R:3 n_minim_iter=3 energy=-69.884958703289 stress="-0.0010016796009058345 -0.00015067171646331756 -0.0006615674920491878 -0.00015067171646331756 -0.0011598513210861227 -6.839555628461146e-05 -0.0006615674920491878 -6.839555628461146e-05 -0.0006207092628447964" free_energy=-69.884958703289 pbc="T T T"
P        3.44415103       3.06502010       4.16876756       0.00000000 NULL      -0.09148100      -0.02855000       0.05776200
P        5.64399939       5.62251294       4.97086043       0.00000000 NULL       0.19684400       0.04972100       0.05671700
P        3.60809850      -1.46726061       8.92211578       0.00000000 NULL      -0.05198500       0.00541300      -0.05051000
P        1.84010109      -2.09492749       7.75093638       0.00000000 NULL       0.11462400       0.05434600       0.05462000
P        6.86957053       9.55216093       7.72936782       0.00000000 NULL      -0.13252400      -0.09447000      -0.07784500
P        2.33130520      -0.05817864       5.08232241       0.00000000 NULL       0.23642800       0.04699800      -0.06695500
P        3.46431173       5.08470286       5.07396896       0.00000000 NULL      -0.11720300      -0.10128300      -0.11004000
P        3.59073853       0.13357080       3.21979884       0.00000000 NULL      -0.07292300       0.06476300       0.07693500
P        0.28218168       1.01549559       3.07669027       0.00000000 NULL       0.17487200       0.01737600      -0.16891900
P        1.97586751       0.62984139       1.76635588       0.00000000 NULL       0.04622800      -0.01978100       0.11414900
P        5.27798108       6.96032914       3.21311597       0.00000000 NULL      -0.00492300      -0.10777900       0.04900100
P        3.29984303      -1.79376252       5.96678376       0.00000000 NULL      -0.10938200       0.12412100      -0.00129500
P        3.05768401       6.53998067       3.42742856       0.00000000 NULL      -0.18857400      -0.01087300       0.06638000
13
Lattice="4.59043715947303 1.5257591077539503 2.795178177870616 1.8050900211944036 8.901382109569314 0.7759716343616817 1.4921899711235291 -4.033917868384451 8.148463830216901" Properties=species:S:1:pos:R:3:initial_magmoms:R:1:castep_labels:S:1:forces:R:3 n_minim_iter=4 energy=-69.890883854067 stress="-5.869904933511836e-06 -0.000736227253591165 0.002199393936511609 -0.000736227253591165 0.0001791807056603012 -0.00016439448943537894 0.002199393936511609 -0.00016439448943537894 0.0011448543698170932" free_energy=-69.890883854067 pbc="T T T"
P        3.45182988       3.06138927       4.20394660       0.00000000 NULL      -0.04192600      -0.04548000       0.10744400
P        5.65688371       5.61645663       5.01952077       0.00000000 NULL       0.10205000       0.05590300      -0.03168100
P        3.64123616      -1.46867182       8.97247007       0.00000000 NULL      -0.04286000       0.01076500      -0.06844000
P        1.87594809      -2.09175081       7.79224260       0.00000000 NULL       0.11597100       0.06737200       0.09713400
P        6.87793436       9.54248439       7.79372724       0.00000000 NULL      -0.06044300      -0.02459800      -0.03090500
P        2.35610813      -0.05858005       5.11176550       0.00000000 NULL       0.07057100       0.00732900      -0.09759300
P        3.47134106       5.07882494       5.10977531       0.00000000 NULL      -0.10860900      -0.07919800      -0.11320500
P        3.59976592       0.13037748       3.24954380       0.00000000 NULL      -0.03267500       0.04849400      -0.02768000
P        0.29643544       1.01713791       3.08743940       0.00000000 NULL       0.04493800      -0.01721900      -0.10963900
P        1.98256974       0.62755730       1.78471882       0.00000000 NULL       0.15262100      -0.04123600       0.09620300
P        5.27677929       6.95015895       3.25300056       0.00000000 NULL       0.03317600      -0.05701800       0.11017200
P        3.32182055      -1.79203780       6.00443405       0.00000000 NULL      -0.10673400       0.12043000      -0.06532900
P        3.05415014       6.53669625       3.46013523       0.00000000 NULL      -0.12608000      -0.04554300       0.13351900
13
Lattice="4.58250770418717 1.5312483995473816 2.786411025989312 1.8065433634003174 8.899191354072459 0.784787772346534 1.4620710902313636 -4.018822671723248 8.152603197746824" Properties=species:S:1:pos:R:3:initial_magmoms:R:1:castep_labels:S:1:forces:R:3 n_minim_iter=5 energy=-69.899453695023 stress="0.0004511179550813501 0.00039051891376246437 -9.58681284022764e-05 0.00039051891376246437 -0.0005429065886579977 0.0009098015187484119 -9.58681284022764e-05 0.0009098015187484119 0.00041262235845405303" free_energy=-69.899453695023 pbc="T T T"
P        3.43548735       3.06710434       4.20861029       0.00000000 NULL       0.01718200      -0.06154000       0.01549900
P        5.65120622       5.62607635       5.01953763       0.00000000 NULL       0.02038500      -0.01527900      -0.02761100
P        3.60620455      -1.45339298       8.97118027       0.00000000 NULL       0.04766900       0.07601600       0.06566400
P        1.85499709      -2.07484004       7.80112698       0.00000000 NULL      -0.03836400       0.03424300       0.00495000
P        6.85106313       9.54951905       7.79551512       0.00000000 NULL       0.03368400       0.04167700      -0.04521900
P        2.34837314      -0.04881821       5.10914501       0.00000000 NULL      -0.10000600       0.08729000      -0.16280700
P        3.45112794       5.08064305       5.10898636       0.00000000 NULL       0.01544100      -0.03526700      -0.03685700
P        3.58527585       0.13917479       3.24547890       0.00000000 NULL       0.07264500      -0.03212800      -0.00122700
P        0.29348776       1.02163782       3.08568441       0.00000000 NULL       0.03364200      -0.04138600      -0.05308200
P        1.98127325       0.63034895       1.78736167       0.00000000 NULL       0.07041800      -0.02416700       0.02767900
P        5.26928327       6.94946226       3.25441756       0.00000000 NULL      -0.04203800       0.02804000       0.13099800
P        3.29480697      -1.77340010       6.00057560       0.00000000 NULL      -0.04573800      -0.05024400       0.00188000
P        3.03718451       6.53982461       3.47041917       0.00000000 NULL      -0.08492000      -0.00725500       0.08013300
13
Lattice="4.574834247623081 1.5234430438122317 2.7795882373247056 1.7958782792923047 8.906247531088132 0.7659906481326616 1.4605109279233133 -4.040399468738971 8.155139705919533" Properties=species:S:1:pos:R:3:initial_magmoms:R:1:castep_labels:S:1:forces:R:3 n_minim_iter=6 energy=-69.900924518248 stress="-0.00040871323109081375 -2.2188879908516263e-05 -0.000106083624846903 -2.2188879908516263e-05 0.0003744651773189734 -0.0005477091242970042 -0.000106083624846903 -0.0005477091242970042 -0.00026088631210163517" free_energy=-69.900924518248 pbc="T T T"
P        3.42648956       3.05872994       4.19938672       0.00000000 NULL       0.01332400      -0.06856100      -0.00740800
P        5.63906304       5.61793332       5.00296540       0.00000000 NULL       0.00755200       0.00779400      -0.03346300
P        3.59931156      -1.47505048       8.96721012       0.00000000 NULL       0.09964700       0.04400300       0.11696200
P        1.85220496      -2.09303507       7.80055287       0.00000000 NULL      -0.08521500       0.01305400      -0.03032200
P        6.83052469       9.53903398       7.76802397       0.00000000 NULL       0.00816500       0.07833400      -0.04846200
P        2.34427705      -0.05990090       5.10303005       0.00000000 NULL      -0.08106100       0.06650600      -0.09466700
P        3.43954410       5.07232182       5.09306212       0.00000000 NULL       0.01101400      -0.00021100      -0.03015700
P        3.57972825       0.12990874       3.24199387       0.00000000 NULL       0.10820400      -0.03818200       0.00241100
P        0.29235992       1.01627685       3.07989602       0.00000000 NULL       0.01143600      -0.05450800      -0.01180100
P        1.97906995       0.62551859       1.78528784       0.00000000 NULL       0.07712000       0.00531700      -0.02818100
P        5.25511459       6.94581876       3.23813079       0.00000000 NULL      -0.03116600       0.00695700       0.12092100
P        3.28874023      -1.78917739       5.99893459       0.00000000 NULL      -0.06460700      -0.01022100      -0.02323200
P        3.02401471       6.53777157       3.45561876       0.00000000 NULL      -0.07441300      -0.05028100       0.06739900
13
Lattice="4.572562636461143 1.5036613770067782 2.78375625743058 1.7622086586194166 8.879416269228559 0.7730399822267905 1.4708889480559089 -4.031179233925306 8.172395985462334" Properties=species:S:1:pos:R:3:initial_magmoms:R:1:castep_labels:S:1:forces:R:3 n_minim_iter=7 energy=-69.906718904352 stress="0.0019129994540253894 -0.0012545539906152021 -3.2224084669340316e-06 -0.0012545539906152021 -0.000989427556059871 -0.00013856356407816335 -3.2224084669340316e-06 -0.00013856356407816335 -0.00134674450411174" free_energy=-69.906718904352 pbc="T T T"
P        3.41416225       3.03469544       4.21262342       0.00000000 NULL       0.04817600      -0.08635300      -0.05318800
P        5.62632242       5.58741206       5.01350759       0.00000000 NULL      -0.05873600      -0.03070500       0.01155600
P        3.60622551      -1.47539745       8.99349511       0.00000000 NULL       0.05825400       0.06254600       0.06160300
P        1.85436697      -2.08590581       7.81897424       0.00000000 NULL      -0.04037900       0.02862400       0.01745000
P        6.79289570       9.49933728       7.78275781       0.00000000 NULL      -0.02209900       0.02003900      -0.00630400
P        2.34112364      -0.05807232       5.10030779       0.00000000 NULL       0.00391200      -0.00524600       0.02700800
P        3.41717294       5.04598524       5.10005357       0.00000000 NULL       0.04513500      -0.02131500       0.08073700
P        3.58713844       0.11558651       3.24878657       0.00000000 NULL       0.09360800       0.02969800      -0.00324300
P        0.29261541       1.01051307       3.08054664       0.00000000 NULL       0.04332500      -0.01594000      -0.05014500
P        1.98751269       0.61653678       1.79125150       0.00000000 NULL       0.00922500       0.01037800      -0.03164700
P        5.22808597       6.90974631       3.26106433       0.00000000 NULL      -0.05510100       0.00439600      -0.00803300
P        3.28559109      -1.79125292       6.00869835       0.00000000 NULL      -0.12143300       0.04107600      -0.04694900
P        2.98637722       6.51021829       3.47670383       0.00000000 NULL      -0.00388600      -0.03719700       0.00115300
13
Lattice="4.538136480528644 1.5131998598155685 2.8053347805864464 1.7553326153249147 8.893666580769011 0.7898553522768983 1.4478872908478269 -4.024448929756655 8.23774776363005" Properties=species:S:1:pos:R:3:initial_magmoms:R:1:castep_labels:S:1:forces:R:3 n_minim_iter=8 energy=-69.912908982812 stress="-0.0007282481994563024 -0.000560937957506373 -0.00017310757322031972 -0.000560937957506373 0.0007266234696735178 0.000623342351436053 -0.00017310757322031972 0.000623342351436053 -1.321939232356537e-05" free_energy=-69.912908982812 pbc="T T T"
P        3.38708381       3.03894483       4.25260688       0.00000000 NULL       0.01502600      -0.01106200      -0.06738000
P        5.59073368       5.60699220       5.05761487       0.00000000 NULL      -0.01632100      -0.06858400       0.02700900
P        3.57470806      -1.45692239       9.07574381       0.00000000 NULL       0.03744000       0.00637400       0.02272700
P        1.82845231      -2.07180839       7.88478675       0.00000000 NULL      -0.00739800       0.06650400       0.09393100
P        6.74041317       9.53223811       7.84966232       0.00000000 NULL      -0.11667100      -0.00502200      -0.02817300
P        2.31660190      -0.04159899       5.12808393       0.00000000 NULL       0.05140800      -0.04894400       0.07372500
P        3.38914930       5.05681065       5.14185507       0.00000000 NULL       0.01568600      -0.09054500       0.09834300
P        3.56590315       0.12127207       3.27523463       0.00000000 NULL       0.14733800      -0.00483600       0.01936600
P        0.29559637       1.01102211       3.09933161       0.00000000 NULL      -0.04167700       0.02784300      -0.05393400
P        1.98251139       0.62062026       1.80799269       0.00000000 NULL       0.03714800       0.04853300      -0.08049200
P        5.18755606       6.92602348       3.30854947       0.00000000 NULL       0.01503000       0.03792000      -0.04481400
P        3.24229784      -1.77928945       6.05329410       0.00000000 NULL      -0.12792700       0.03623200      -0.06633200
P        2.95251096       6.52204763       3.52359440       0.00000000 NULL      -0.00908300       0.00558800       0.00602500
13
Lattice="4.539564154572759 1.5124250841282587 2.809997718177208 1.7675839655039012 8.877534714931839 0.778289070516197 1.4423697213636968 -4.026576622876437 8.26372452532201" Properties=species:S:1:pos:R:3:initial_magmoms:R:1:castep_labels:S:1:forces:R:3 n_minim_iter=9 energy=-69.914481941784 stress="-1.941813319260128e-05 0.0002887985854861593 1.5874139301936405e-05 0.0002887985854861593 -0.00063407957360479 -0.0004200001926468151 1.5874139301936405e-05 -0.0004200001926468151 0.0004747475149369818" free_energy=-69.914481941784 pbc="T T T"
P        3.39105429       3.02937269       4.25827440       0.00000000 NULL       0.03835300      -0.03428500      -0.08916300
P        5.59916852       5.59588595       5.06142945       0.00000000 NULL      -0.04218200      -0.05728500       0.01403700
P        3.57415207      -1.46099093       9.10225739       0.00000000 NULL       0.01289300      -0.02859300      -0.00344700
P        1.82506177      -2.07482812       7.90831527       0.00000000 NULL       0.02115100       0.06679300       0.10365300
P        6.75132878       9.51251309       7.85225960       0.00000000 NULL      -0.09975600       0.03132300      -0.01203000
P        2.31637612      -0.04435263       5.13766490       0.00000000 NULL       0.02441900      -0.01231400       0.06184100
P        3.39570603       5.04182939       5.14611609       0.00000000 NULL       0.02000300      -0.02760500       0.09687900
P        3.56889870       0.12062807       3.28364321       0.00000000 NULL       0.10676200       0.01826900       0.03789600
P        0.29871020       1.00394358       3.10230716       0.00000000 NULL      -0.05697900       0.04429800      -0.05714300
P        1.98614672       0.61981199       1.81118308       0.00000000 NULL       0.05701200       0.03076000      -0.06392300
P        5.19542167       6.91479718       3.30948384       0.00000000 NULL       0.00601800      -0.02813900      -0.04599600
P        3.23535367      -1.77885695       6.06941103       0.00000000 NULL      -0.11433200       0.02518900      -0.04267300
P        2.95792620       6.50734946       3.52496483       0.00000000 NULL       0.02663900      -0.02841200       0.00007000
13
Lattice="4.507519744806317 1.4994363350376938 2.8175950314225884 1.7246090216318395 8.886909391035426 0.7827928983247572 1.4433671231067642 -4.036394904273952 8.291880060336885" Properties=species:S:1:pos:R:3:initial_magmoms:R:1:castep_labels:S:1:forces:R:3 n_minim_iter=10 energy=-69.923284458984 stress="-0.00016737161589833 -0.0003385454542134064 -0.00014636710565436224 -0.0003385454542134064 -9.066270150999084e-05 -0.00015297485140773699 -0.00014636710565436224 -0.00015297485140773699 6.415788893500166e-05" free_energy=-69.923284458984 pbc="T T T"
P        3.36308402       3.00769439       4.26276163       0.00000000 NULL      -0.05792900       0.06705800      -0.07417700
P        5.54859355       5.57795835       5.07940701       0.00000000 NULL       0.00989800       0.02894800       0.01554400
P        3.56442698      -1.46880746       9.14632814       0.00000000 NULL       0.10919500       0.08884600      -0.05013100
P        1.81628900      -2.06439691       7.95506746       0.00000000 NULL      -0.01852000       0.04881500       0.00612200
P        6.65437175       9.51696335       7.86578862       0.00000000 NULL      -0.03062200       0.03967600      -0.00862700
P        2.30227889      -0.04379736       5.14326713       0.00000000 NULL      -0.07356000       0.04245500       0.01837800
P        3.35595788       5.02276311       5.17116287       0.00000000 NULL      -0.09580200      -0.02637900       0.03967500
P        3.57687072       0.10635694       3.30044773       0.00000000 NULL      -0.04543100       0.00523500      -0.03759700
P        0.29542128       1.00391782       3.08963713       0.00000000 NULL       0.06154800      -0.03547700      -0.00724000
P        1.99622499       0.61918959       1.80771808       0.00000000 NULL       0.05857500      -0.08566900       0.09071900
P        5.13294197       6.90627599       3.33537752       0.00000000 NULL       0.04538300      -0.01903200      -0.08357200
P        3.18372683      -1.78104296       6.07711121       0.00000000 NULL      -0.02003200      -0.11502200       0.03905900
P        2.89727554       6.50139127       3.55433507       0.00000000 NULL       0.05729800      -0.03945200       0.05184600
13
Lattice="4.476547067033652 1.4885633536857326 2.8374648467440515 1.6904865390307289 8.86362454864757 0.8022564448147661 1.4508764035597395 -4.018643747338178 8.326459556179882" Properties=species:S:1:pos:R:3:initial_magmoms:R:1:castep_labels:S:1:forces:R:3 n_minim_iter=11 energy=-69.928980868664 stress="8.005126491060602e-05 -0.0005305990554283085 -0.00018841695870625973 -0.0005305990554283085 -0.0002206598292952538 -0.00018808341176913221 -0.00018841695870625973 -0.00018808341176913221 0.00031127341388156475" free_energy=-69.928980868664 pbc="T T T"
P        3.33170987       2.99589293       4.26871590       0.00000000 NULL      -0.01809800       0.02650900       0.06221900
P        5.50662917       5.55310708       5.12305334       0.00000000 NULL       0.02353000       0.05080500      -0.08650800
P        3.57692434      -1.44448698       9.19270554       0.00000000 NULL       0.05982300      -0.04087100       0.05333500
P        1.81506521      -2.02560096       8.01362448       0.00000000 NULL       0.00827100       0.04334300      -0.04957500
P        6.56775555       9.50653847       7.91054480       0.00000000 NULL       0.05817000      -0.09492600       0.04644900
P        2.28078387      -0.02801925       5.16218416       0.00000000 NULL      -0.00857300      -0.10099900       0.00195400
P        3.31122775       4.98870250       5.22159503       0.00000000 NULL      -0.06583400       0.05995200       0.00367200
P        3.57673111       0.09924042       3.31993960       0.00000000 NULL      -0.03774300      -0.02451200       0.07436800
P        0.30673539       0.99859948       3.08076805       0.00000000 NULL      -0.04904600       0.05060000      -0.05974400
P        2.01773033       0.60679217       1.82541775       0.00000000 NULL       0.00714300       0.09346000      -0.14754500
P        5.08449686       6.87651499       3.36518855       0.00000000 NULL       0.04787300      -0.01413700       0.09499200
P        3.13444614      -1.78370041       6.10277505       0.00000000 NULL      -0.00673900      -0.04624400      -0.03565000
P        2.85665100       6.47192984       3.60831331       0.00000000 NULL      -0.01877700      -0.00298000       0.04203400
13
Lattice="4.459339507649943 1.4893865716380157 2.85271331624724 1.6803774341693452 8.869026397630773 0.8112397144524481 1.4566737260521865 -4.017978409840079 8.350399529737595" Properties=species:S:1:pos:R:3:initial_magmoms:R:1:castep_labels:S:1:forces:R:3 n_minim_iter=12 energy=-69.933580285733 stress="0.00019945146137636407 -0.0003605040643962295 -0.0002443428803245413 -0.0003605040643962295 0.00011530787610821049 -0.0004422361271589025 -0.0002443428803245413 -0.0004422361271589025 0.0006266248479625723" free_energy=-69.933580285733 pbc="T T T"
P        3.31474012       3.00393998       4.28252460       0.00000000 NULL      -0.00914200       0.00762300       0.07994500
P        5.49088372       5.55906541       5.14304494       0.00000000 NULL       0.01313400      -0.02545200      -0.03689300
P        3.59089787      -1.43905733       9.22610109       0.00000000 NULL       0.02422500       0.02582100       0.00039900
P        1.82066111      -2.00526339       8.04402020       0.00000000 NULL       0.02136100       0.04035700      -0.02475300
P        6.53846866       9.51289137       7.94687439       0.00000000 NULL      -0.00128200       0.01413000      -0.04285400
P        2.26892638      -0.02928035       5.17782671       0.00000000 NULL       0.01713500      -0.11886700       0.04052700
P        3.28595648       4.98760838       5.25273458       0.00000000 NULL       0.02815700       0.07258600      -0.01346100
P        3.56827556       0.09506341       3.34171918       0.00000000 NULL       0.01015800      -0.01555200       0.01837700
P        0.31074020       1.00250411       3.07245188       0.00000000 NULL      -0.01794400      -0.07160600      -0.01400200
P        2.03023252       0.61122230       1.82146270       0.00000000 NULL      -0.05627200      -0.00540300      -0.02259200
P        5.06886948       6.87624180       3.39083772       0.00000000 NULL       0.01756700       0.05185800       0.08958600
P        3.11159045      -1.79436308       6.12104617       0.00000000 NULL      -0.00077200       0.00572400      -0.06037800
P        2.84291539       6.47129290       3.64135003       0.00000000 NULL      -0.04632600       0.01878000      -0.01390000
13
Lattice="4.443953603425621 1.492809556489495 2.869708979641483 1.6630035426093928 8.88985876121378 0.8337980141484619 1.470490817871635 -4.013887196818689 8.361127983486092" Properties=species:S:1:pos:R:3:initial_magmoms:R:1:castep_labels:S:1:forces:R:3 n_minim_iter=13 energy=-69.937700466075 stress="0.00026688447735648686 -0.0002377293419565982 -0.0002514537695621438 -0.0002377293419565982 0.00014751905023582324 -0.00046574030544656693 -0.0002514537695621438 -0.00046574030544656693 0.0006224213384352814" free_energy=-69.937700466075 pbc="T T T"
P        3.29580741       3.02350066       4.31055879       0.00000000 NULL       0.00534800       0.01192300       0.04785400
P        5.47588082       5.56998001       5.16927189       0.00000000 NULL       0.02523100      -0.03752700      -0.00913200
P        3.61101199      -1.42008413       9.24338538       0.00000000 NULL      -0.01235700      -0.04497400       0.04350200
P        1.83699148      -1.97500294       8.06210537       0.00000000 NULL      -0.01570300       0.01895300       0.00916300
P        6.50465480       9.54684301       7.98690119       0.00000000 NULL      -0.06205500      -0.06212200      -0.00719300
P        2.26146447      -0.03936615       5.19827995       0.00000000 NULL       0.01116100       0.02600000      -0.05858000
P        3.26590058       5.00753681       5.28725542       0.00000000 NULL       0.05547100       0.02661500      -0.04627900
P        3.56329042       0.09067948       3.35928359       0.00000000 NULL       0.00343600       0.05146300       0.02271100
P        0.31398579       0.99956497       3.06633590       0.00000000 NULL      -0.02095900       0.00149100      -0.00659900
P        2.03499061       0.61100182       1.82159079       0.00000000 NULL       0.00377700       0.05064900      -0.03222800
P        5.05150360       6.89876567       3.43230316       0.00000000 NULL      -0.00516000       0.01645600       0.01030700
P        3.09889387      -1.80218106       6.12644839       0.00000000 NULL       0.02860800      -0.07903500       0.02331900
P        2.82195327       6.49057453       3.67431340       0.00000000 NULL      -0.01679800       0.02010600       0.00315500
13
Lattice="4.429253531038304 1.5087848729906355 2.884832353443511 1.662881521623765 8.90843427347554 0.8695708388009391 1.4700745274347464 -3.9902443003448504 8.361016606378316" Properties=species:S:1:pos:R:3:initial_magmoms:R:1:castep_labels:S:1:forces:R:3 n_minim_iter=14 energy=-69.941003288524 stress="0.0002513134797546684 0.00010326577825025605 -0.00028796336221889086 0.00010326577825025605 0.0002190452448393601 -0.0004576222406171001 -0.00028796336221889086 -0.0004576222406171001 0.0004300327141014798" free_energy=-69.941003288524 pbc="T T T"
P        3.28085294       3.05604956       4.34499335       0.00000000 NULL      -0.01343700      -0.01667000      -0.03520100
P        5.47035819       5.58912763       5.20225419       0.00000000 NULL       0.04746200       0.02616400      -0.03688100
P        3.61505087      -1.38412065       9.25559790       0.00000000 NULL       0.00428300       0.00282400       0.01658300
P        1.84072084      -1.92836540       8.07508480       0.00000000 NULL      -0.06753700      -0.00680600       0.01097500
P        6.47555783       9.59090214       8.03655309       0.00000000 NULL       0.00124500      -0.05266300       0.02136400
P        2.25086534      -0.02715023       5.20586757       0.00000000 NULL      -0.01107900      -0.07977000      -0.03933700