30
Lattice="5.575666177451076 0.22129069513350408 0.28457790794870186 1.9472931557271533 5.229251596527244 0.2845779079487013 2.372348017474035 1.718816043940648 20.827609366456677" Properties=species:S:1:pos:R:3:initial_magmoms:R:1:castep_labels:S:1:forces:R:3 n_minim_iter=1 energy=-160.10948763603 stress="-0.0008141038072369052 -0.0003617077698026501 0.00028673273240578304 -0.0003617077698026501 -0.0005768711220083655 0.0002077450890047662 0.00028673273240578304 0.0002077450890047662 0.0012665841431166256" free_energy=-160.10948763603 pbc="T T T"
P        2.27313838       5.62732739       3.98118549       0.00000000 NULL       0.09730400      -0.04200100      -0.11538500
P        3.83986357       6.76245275      17.41557968       0.00000000 NULL       0.00959600      -0.10554700       0.11538500
P        4.05354075       1.42638547      13.77987663       0.00000000 NULL      -0.13688900      -0.12488400      -0.03724000
P        7.27708666       3.76191230       7.61688854       0.00000000 NULL       0.16131200       0.09117700       0.03724000
P        5.17422838       4.08568755      15.60738817       0.00000000 NULL      -0.07965600      -0.09609800       0.13792400
P        4.40099219       3.52546166       5.78937700       0.00000000 NULL       0.11613100       0.04575500      -0.13792600
P        3.85591847       1.63143434       4.36628165       0.00000000 NULL      -0.07288500       0.18552500       0.02066200
P        7.14380837       4.01357973      17.03048351       0.00000000 NULL      -0.15358800       0.12705700      -0.02066200
P        6.87706330       3.83874604       3.83747727       0.00000000 NULL      -0.03017400       0.17597300      -0.13050600
P        4.10515194       1.83043794      17.55928790       0.00000000 NULL      -0.15781200       0.08349300       0.13050600
P        4.88504840       4.47985170       9.75408626       0.00000000 NULL       0.08165400       0.17302200      -0.22181500
P        4.11653342       3.92304643      11.64267890       0.00000000 NULL      -0.18984400      -0.02369000       0.22181500
P        5.40325201       2.73077613      19.96297162       0.00000000 NULL       0.03809900      -0.03264800      -0.09850100
P        5.61712715       2.88573316       1.43379355       0.00000000 NULL       0.01915300      -0.04636700       0.09850100
P        8.26754504       4.64374223      20.01566404       0.00000000 NULL       0.14647700       0.15369200       0.01447300
P        2.90703293       0.75993844       1.38110113       0.00000000 NULL      -0.19167600      -0.09130800      -0.01447400
P        6.26923498       4.69074695      19.01918749       0.00000000 NULL      -0.00985200      -0.02567800      -0.02195100
P        3.48491090       2.67344559       2.37757768       0.00000000 NULL       0.02746900       0.00136200       0.02195100
P        2.86046248       1.60080177       7.50286782       0.00000000 NULL       0.16529600      -0.19439600       0.09045200
P        7.48303586       4.94995343      13.89389734       0.00000000 NULL       0.13322300      -0.21762300      -0.09045300
P        2.82235053       1.45946896       9.75097468       0.00000000 NULL      -0.12394800      -0.04396200      -0.13931100
P        7.62920841       4.94213861      11.64579048       0.00000000 NULL       0.08038400       0.10408800       0.13931300
P        6.48145552       2.77080696       5.76961621       0.00000000 NULL       0.00796800      -0.01698300      -0.00308700
P        5.24319035       1.87365779      15.62714896       0.00000000 NULL       0.01365600      -0.01286300       0.00308600
P        0.66137938       0.58945941       1.44684233       0.00000000 NULL      -0.09227800       0.03996600       0.21028000
P        9.12913976       6.72452994      19.94992283       0.00000000 NULL      -0.00923500       0.10014200      -0.21027800
P        5.95760128       1.67017267      12.55114801       0.00000000 NULL       0.06082000      -0.10644100      -0.09807500
P        6.45225015       2.02855618       8.84561716       0.00000000 NULL       0.08219100      -0.09095400       0.09807600
P        4.78180570       4.83901847       4.03097807       0.00000000 NULL      -0.05890800      -0.05015700      -0.02882200
P        3.80740441       4.13304424      17.36578709       0.00000000 NULL       0.06601400       0.04034900       0.02882300
30
Lattice="5.59230724708192 0.22894508256933888 0.2772443389198246 1.9597508954818512 5.2426799086207545 0.2772443389198244 2.359862348003948 1.7097699137580409 20.72750296916627" Properties=species:S:1:pos:R:3:initial_magmoms:R:1:castep_labels:S:1:forces:R:3 n_minim_iter=2 energy=-160.116219743482 stress="0.0005881858892621342 -0.00018193435694564939 -0.0001143240716486926 -0.00018193435694564939 0.0007075318614637912 -8.282765509335558e-05 -0.0001143240716486926 -8.282765509335558e-05 -0.001366698439078563" free_energy=-160.116219743482 pbc="T T T"
P        2.28382196       5.63896205       3.95540448       0.00000000 NULL       0.06737300      -0.06028500      -0.05040500
P        3.84209274       6.76796201      17.32658715       0.00000000 NULL       0.03629400      -0.08280200       0.05040500
P        4.05223166       1.42353672      13.71059166       0.00000000 NULL      -0.10047900      -0.14406000      -0.08201900
P        7.29681461       3.77430532       7.57139997       0.00000000 NULL       0.16819300       0.05060000       0.08201900
P        5.17823184       4.08873937      15.52753078       0.00000000 NULL      -0.04888200      -0.11942100       0.10409200
P        4.41345817       3.53464476       5.75446085       0.00000000 NULL       0.12870700       0.00924600      -0.10409300
P        3.86456573       1.63783182       4.34093231       0.00000000 NULL      -0.04069700       0.18347600       0.06608700
P        7.15164848       4.01939242      16.94105932       0.00000000 NULL      -0.16166700       0.09583000      -0.06608700
P        6.89848062       3.85416674       3.80879724       0.00000000 NULL      -0.02617600       0.20695100      -0.14892700
P        4.10043954       1.82692712      17.47319439       0.00000000 NULL      -0.18849500       0.08934600       0.14892800
P        4.89585545       4.48946943       9.69908761       0.00000000 NULL       0.07174000       0.17950300      -0.22760600
P        4.12064069       3.92781003      11.58290403       0.00000000 NULL      -0.19291700      -0.01224900       0.22760600
P        5.40230172       2.72835034      19.86230947       0.00000000 NULL       0.08124900      -0.02522500      -0.15489800
P        5.63634141       2.89791701       1.41968216       0.00000000 NULL      -0.00134200      -0.08506500       0.15489800
P        8.27830204       4.65027758      19.91099161       0.00000000 NULL       0.13033800       0.18359500      -0.01742300
P        2.91408478       0.76378933       1.37100002       0.00000000 NULL      -0.21506300      -0.06665600       0.01742300
P        6.27416517       4.69437572      18.92096180       0.00000000 NULL       0.00584900      -0.00419400       0.01400200
P        3.49653993       2.68192780       2.36102983       0.00000000 NULL       0.00216400      -0.00686500      -0.01400200
P        2.86427717       1.60108101       7.46451079       0.00000000 NULL       0.13281800      -0.16773800       0.02829900
P        7.49819525       4.95845214      13.81748084       0.00000000 NULL       0.11801200      -0.17846200      -0.02830000
P        2.82171786       1.45861888       9.70095926       0.00000000 NULL      -0.11665000      -0.07550800      -0.03622500
P        7.64682642       4.95451153      11.58103237       0.00000000 NULL       0.10808900       0.08732400       0.03622600
P        6.49848057       2.78078178       5.73401164       0.00000000 NULL      -0.03092700      -0.01739600      -0.03850200
P        5.24502118       1.87262408      15.54797999       0.00000000 NULL       0.02616500       0.02396800       0.03850100
P        0.66204646       0.59072983       1.44030193       0.00000000 NULL      -0.05581900       0.07082000       0.13856800
P        9.14433789       6.73632841      19.84168970       0.00000000 NULL      -0.04990500       0.07510500      -0.13856800
P        5.96481360       1.67141737      12.48498705       0.00000000 NULL       0.01323400      -0.13472400      -0.06437100
P        6.46543364       2.03412712       8.79700458       0.00000000 NULL       0.12389200      -0.05454700       0.06437200
P        4.79791245       4.85222668       4.00346690       0.00000000 NULL      -0.02740000      -0.03553200      -0.02688100
P        3.80644884       4.13389044      17.27852473       0.00000000 NULL       0.04230200       0.01496700       0.02688200
30
Lattice="5.599366234183529 0.25038212545802657 0.27126236195812986 1.982320238580252 5.24270921423062 0.2712623619581297 2.345935234179762 1.6996794268183184 20.758736230885454" Properties=species:S:1:pos:R:3:initial_magmoms:R:1:castep_labels:S:1:forces:R:3 n_minim_iter=3 energy=-160.128999232518 stress="0.00107252540744645 0.0020213975577002474 -0.0009982627748945753 0.0020213975577002474 -0.00025291028883347506 -0.0007232739512983403 -0.0009982627748945753 -0.0007232739512983403 0.0012428094724345354" free_energy=-160.128999232518 pbc="T T T"
P        2.30620662       5.63543038       3.95298678       0.00000000 NULL       0.02711400      -0.05166400      -0.02524300
P        3.85417627       6.75696695      17.34827415       0.00000000 NULL       0.04064600      -0.04186000       0.02524300
P        4.04410099       1.42287651      13.72673982       0.00000000 NULL      -0.02128700      -0.10178000      -0.05476400
P        7.31567618       3.79320155       7.57452112       0.00000000 NULL       0.10334700      -0.01148000       0.05476400
P        5.18117897       4.08789426      15.54779960       0.00000000 NULL      -0.05462500      -0.05823200       0.11132800
P        4.42904430       3.54295687       5.75346134       0.00000000 NULL       0.07235200       0.03376500      -0.11132800
P        3.86920978       1.65172256       4.34374728       0.00000000 NULL      -0.03471100       0.16998600       0.05339900
P        7.15270344       4.03068279      16.95751366       0.00000000 NULL      -0.15071300       0.08594100      -0.05339900
P        6.91666030       3.87747913       3.80095280       0.00000000 NULL      -0.00825800       0.14069900      -0.09156000
P        4.08832491       1.82829065      17.50030814       0.00000000 NULL      -0.13112500       0.05168000       0.09156000
P        4.91018028       4.49881738       9.70089929       0.00000000 NULL      -0.02071000       0.01966500      -0.00740000
P        4.12299647       3.92848616      11.60036165       0.00000000 NULL      -0.01223400       0.02580500       0.00740000
P        5.39839637       2.72878435      19.88467373       0.00000000 NULL       0.00926100       0.05825000      -0.10543900
P        5.65284686       2.91313908       1.41658721       0.00000000 NULL      -0.05823700       0.00934700       0.10543900
P        8.28717316       4.66417479      19.93174194       0.00000000 NULL       0.10534400       0.14147300      -0.00373400
P        2.91381671       0.77106501       1.36951900       0.00000000 NULL      -0.16725100      -0.05602700       0.00373400
P        6.27849912       4.69655399      18.94223417       0.00000000 NULL       0.02593000       0.02320100       0.01205700
P        3.50882110       2.68986401       2.35902677       0.00000000 NULL      -0.03012400      -0.01741100      -0.01205700
P        2.86913274       1.59950691       7.47412761       0.00000000 NULL       0.12249300      -0.16936700       0.02663400
P        7.51387955       4.96472369      13.82713333       0.00000000 NULL       0.12277800      -0.16916100      -0.02663300
P        2.81677692       1.45819561       9.71102487       0.00000000 NULL      -0.09218700      -0.01856200       0.01343400
P        7.66446912       4.97045058      11.59023607       0.00000000 NULL       0.04635800       0.08181600      -0.01343400
P        6.51015496       2.79726800       5.73369482       0.00000000 NULL       0.06279500       0.02011700      -0.05682800
P        5.24141963       1.87804257      15.56756611       0.00000000 NULL      -0.03867900      -0.05340300       0.05682800
P        0.66168502       0.59269289       1.44579171       0.00000000 NULL      -0.01019200      -0.01518300       0.10658300
P        9.15828634       6.74865928      19.85546923       0.00000000 NULL       0.01760300       0.00495400      -0.10658300
P        5.96508496       1.67928875      12.49620778       0.00000000 NULL      -0.06322200      -0.14143000       0.01432800
P        6.47357066       2.04769734       8.80505316       0.00000000 NULL       0.15408800       0.01601500      -0.01432800
P        4.81696750       4.85986562       4.00028000       0.00000000 NULL      -0.02228500       0.00127400      -0.01788900
P        3.80895495       4.12953933      17.30098094       0.00000000 NULL       0.00573200       0.02157300       0.01788900
30
Lattice="5.585512809961827 0.23772340637400918 0.2833518119501993 1.9659756583845027 5.233488843861745 0.28335181195019915 2.3822271552240104 1.725973687060414 20.720085574753156" Properties=species:S:1:pos:R:3:initial_magmoms:R:1:castep_labels:S:1:forces:R:3 n_minim_iter=4 energy=-160.145882183808 stress="-0.0020422344388943197 0.001246594510770965 0.00036287923462365946 0.001246594510770965 -0.0028596054867069047 0.0002629228538724196 0.00036287923462365946 0.0002629228538724196 -0.0024300435327876337" free_energy=-160.145882183808 pbc="T T T"
P        2.29911063       5.62902549       3.95541425       0.00000000 NULL       0.01695000       0.00480000       0.08696400
P        3.86856698       6.76612963      17.33137493       0.00000000 NULL      -0.00984400      -0.01461200      -0.08696400
P        4.05728174       1.42926188      13.70486163       0.00000000 NULL      -0.01578600      -0.12051300       0.00303800
P        7.31159622       3.78708118       7.58192755       0.00000000 NULL       0.11943600      -0.02254700      -0.00303700
P        5.19100680       4.09312462      15.53537370       0.00000000 NULL       0.00730900       0.00143400      -0.01779200
P        4.42710644       3.53966274       5.75141548       0.00000000 NULL      -0.00364000      -0.00649800       0.01779200
P        3.86346288       1.65518980       4.34688887       0.00000000 NULL      -0.02564800       0.08799900       0.06249400
P        7.15729303       4.04163904      16.93990031       0.00000000 NULL      -0.07562900       0.05178500      -0.06249400
P        6.89811654       3.87099395       3.80875840       0.00000000 NULL      -0.01102000       0.06486400      -0.09462800
P        4.10635830       1.84830638      17.47803079       0.00000000 NULL      -0.05820400       0.03068000       0.09462800
P        4.91154976       4.50456026       9.68987755       0.00000000 NULL      -0.03372000      -0.06925500       0.05660600
P        4.12320666       3.93338911      11.59691163       0.00000000 NULL       0.07631200       0.01046800      -0.05660600
P        5.42484909       2.74511161      19.85158391       0.00000000 NULL      -0.06254200       0.04528700      -0.07361000
P        5.63518510       2.89750448       1.43520527       0.00000000 NULL      -0.02354800       0.07353200       0.07361000
P        8.30523750       4.67897174      19.91260841       0.00000000 NULL       0.04550500       0.06917200      -0.00044400
P        2.90022238       0.76292458       1.37418077       0.00000000 NULL      -0.07990600      -0.02169100       0.00044400
P        6.29424833       4.70766878      18.92103547       0.00000000 NULL       0.01491900       0.05295200       0.04378400
P        3.49944693       2.68277637       2.36575371       0.00000000 NULL      -0.05496400       0.00232000      -0.04378400
P        2.88042844       1.59653478       7.46823857       0.00000000 NULL       0.13170200      -0.12510800      -0.08491300
P        7.51927868       4.95747936      13.81855061       0.00000000 NULL       0.07785500      -0.16412600       0.08491300
P        2.82351275       1.46381945       9.69514196       0.00000000 NULL      -0.00996500       0.04210100       0.12846800
P        7.66312062       4.97021716      11.59164722       0.00000000 NULL      -0.03690000       0.02258400      -0.12846800
P        6.50028958       2.78838180       5.73855898       0.00000000 NULL       0.12334200       0.02040300      -0.01881500
P        5.25903093       1.88906380      15.54823020       0.00000000 NULL      -0.05781300      -0.11084700       0.01881500
P        0.65946914       0.59462541       1.45111456       0.00000000 NULL      -0.03776800      -0.04841400      -0.00886700
P        9.16323423       6.75578211      19.83567462       0.00000000 NULL       0.05777700       0.02080200       0.00886600
P        5.97488098       1.67924912      12.48150924       0.00000000 NULL       0.01115600      -0.02219500      -0.00115300
P        6.47665043       2.04279165       8.80527994       0.00000000 NULL       0.01761500      -0.01751600       0.00115300
P        4.80123158       4.84913562       4.00863541       0.00000000 NULL      -0.02385000       0.09109600      -0.07780800
P        3.83014718       4.14556454      17.27815377       0.00000000 NULL      -0.07913200       0.05104400       0.07780900
30
Lattice="5.591491184862974 0.2251799489361523 0.28716717226235944 1.9559189029843678 5.243077428834295 0.2871671722623596 2.3929661196224448 1.7337542926745058 20.75694390996686" Properties=species:S:1:pos:R:3:initial_magmoms:R:1:castep_labels:S:1:forces:R:3 n_minim_iter=5 energy=-160.15343803395 stress="0.0002818944593406839 0.00010842871429858407 0.00041822984987445157 0.00010842871429858407 0.00021078124637708293 0.00030301802910857016 0.00041822984987445157 0.00030301802910857016 0.00013382749260913408" free_energy=-160.15343803395 pbc="T T T"
P        2.29192524       5.63957007       3.96467661       0.00000000 NULL      -0.01011700       0.03198000       0.10353500
P        3.86744624       6.78106817      17.36660162       0.00000000 NULL      -0.02723600       0.01957700      -0.10353500
P        4.06473865       1.42681703      13.72978778       0.00000000 NULL       0.10122500      -0.17130900       0.03271600
P        7.31825690       3.78405944       7.60149046       0.00000000 NULL       0.13124900      -0.14955800      -0.03271600
P        5.19522122       4.09668991      15.56815110       0.00000000 NULL       0.02213800      -0.04158700      -0.02397900
P        4.42906622       3.54159450       5.76312714       0.00000000 NULL       0.03262000      -0.03399200       0.02397900
P        3.86553092       1.65559998       4.35801385       0.00000000 NULL      -0.00684300       0.05235300       0.01474500
P        7.16291958       4.04462743      16.97326439       0.00000000 NULL      -0.04761600       0.02281200      -0.01474500
P        6.89855955       3.86992946       3.81834436       0.00000000 NULL      -0.04391600       0.04853800      -0.05852300
P        4.11389239       1.85237952      17.51293388       0.00000000 NULL      -0.03244200       0.05685300       0.05852300
P        4.91308871       4.51162588       9.70773696       0.00000000 NULL      -0.07042900      -0.05297400       0.13982900
P        4.12267381       3.93895366      11.62354128       0.00000000 NULL       0.07227700       0.05042100      -0.13982900
P        5.43691672       2.74786174      19.88692172       0.00000000 NULL      -0.02275400       0.00541000      -0.05825800
P        5.63547293       2.89171989       1.44435652       0.00000000 NULL       0.00194800       0.02330500       0.05825800
P        8.31761006       4.68325557      19.95274536       0.00000000 NULL      -0.00695500       0.06643600       0.01616000
P        2.89895783       0.75732804       1.37853288       0.00000000 NULL      -0.06096400       0.02730700      -0.01616000
P        6.30137546       4.71338489      18.95846860       0.00000000 NULL       0.05823800       0.01862900       0.03282600
P        3.49845552       2.68261043       2.37280964       0.00000000 NULL      -0.03584500      -0.04953700      -0.03282600
P        2.88700655       1.59385866       7.48384948       0.00000000 NULL       0.03956900      -0.03810200      -0.05318800
P        7.52643290       4.95522065      13.84742876       0.00000000 NULL       0.02387900      -0.04947200       0.05318800
P        2.82691425       1.46431127       9.71271030       0.00000000 NULL      -0.01154700       0.01208100       0.08566700
P        7.66825417       4.97196389      11.61856793       0.00000000 NULL      -0.00788100       0.01473400      -0.08566700
P        6.50465217       2.78271655       5.75262632       0.00000000 NULL       0.11294100       0.07538600      -0.01164500
P        5.26971574       1.88797913      15.57865191       0.00000000 NULL      -0.10681900      -0.08383500       0.01164500
P        0.65850073       0.59595701       1.45692496       0.00000000 NULL      -0.06303100       0.01180200      -0.02439700
P        9.16893118       6.76194289      19.87435328       0.00000000 NULL       0.00842400       0.06356900       0.02439600
P        5.98536902       1.67266572      12.50550204       0.00000000 NULL      -0.02218700      -0.06466000       0.02240100
P        6.48629940       2.03560032       8.82577620       0.00000000 NULL       0.06835700       0.00093900      -0.02240100
P        4.79679159       4.85206897       4.01959184       0.00000000 NULL      -0.00476200       0.09787600      -0.07626700
P        3.83540360       4.15552316      17.31168640       0.00000000 NULL      -0.09152200       0.03501700       0.07626600
30
Lattice="5.585374289467084 0.21770733085030736 0.276726383098685 1.9469125352008254 5.239592924610056 0.27672638309868525 2.3507434914331258 1.7031631103460318 20.747725644225625" Properties=species:S:1:pos:R:3:initial_magmoms:R:1:castep_labels:S:1:forces:R:3 n_minim_iter=6 energy=-160.155693580743 stress="-0.000393624424079275 -0.0004407083628102234 -0.0005996208689780273 -0.0004407083628102234 -0.00010456544016661962 -0.00043443949194124957 -0.0005996208689780273 -0.00043443949194124957 6.366611328758886e-05" free_energy=-160.155693580743 pbc="T T T"
P        2.27572175       5.63075430       3.95313928       0.00000000 NULL       0.01241700       0.06186300       0.10586500
P        3.82352535       6.75217057      17.34803912       0.00000000 NULL      -0.06265800       0.00747100      -0.10586600
P        4.03436446       1.40128035      13.71878852       0.00000000 NULL       0.09282500      -0.19425400      -0.00885900
P        7.29463946       3.76341818       7.58238988       0.00000000 NULL       0.15566900      -0.14872500       0.00885900
P        5.15664327       4.06824718      15.55184718       0.00000000 NULL      -0.00235200      -0.03596500      -0.01114500
P        4.41076597       3.52784339       5.74933122       0.00000000 NULL       0.03490800      -0.00897000       0.01114300
P        3.85149232       1.64620297       4.34869768       0.00000000 NULL      -0.00066400       0.05380000       0.00003300
P        7.11887657       4.01349160      16.95248071       0.00000000 NULL      -0.05091700       0.01739000      -0.00003300
P        6.87968288       3.85710931       3.79910778       0.00000000 NULL      -0.05916800       0.01576200      -0.04919100
P        4.07460939       1.82477456      17.50207061       0.00000000 NULL       0.00345700       0.06113500       0.04919200
P        4.88479726       4.49240716       9.69186996       0.00000000 NULL      -0.08022400      -0.06674600       0.15643900
P        4.09240400       3.91830157      11.60930844       0.00000000 NULL       0.08841900       0.05543800      -0.15643900
P        5.39216258       2.71444111      19.86982605       0.00000000 NULL      -0.01617400       0.00160500      -0.05590600
P        5.62382695       2.88228683       1.43135235       0.00000000 NULL       0.00351500       0.01586400       0.05590700
P        8.26816819       4.64732412      19.92916576       0.00000000 NULL       0.01340200       0.04330500       0.02228700
P        2.89115812       0.75156721       1.37201263       0.00000000 NULL      -0.04532600       0.00075500      -0.02228700
P        6.25543871       4.68000081      18.93878972       0.00000000 NULL       0.03520800       0.01664600       0.01288900
P        3.48714324       2.67431251       2.36238867       0.00000000 NULL      -0.02678600      -0.02827000      -0.01288900
P        2.86979213       1.57883180       7.47540136       0.00000000 NULL       0.02004300      -0.02726400      -0.03965900
P        7.48872894       4.92534869      13.82577703       0.00000000 NULL       0.01966400      -0.02753800       0.03965800
P        2.80400202       1.44759881       9.70484827       0.00000000 NULL       0.01872700       0.02143700       0.10388500
P        7.63392701       4.94698106      11.59633012       0.00000000 NULL      -0.02620500      -0.01111500      -0.10388400
P        6.48547364       2.76713687       5.73624776       0.00000000 NULL       0.10861700       0.07956300      -0.04341800
P        5.23314898       1.85980130      15.56493063       0.00000000 NULL      -0.10944100      -0.07842500       0.04341700
P        0.65360878       0.59343294       1.45541856       0.00000000 NULL      -0.09347300       0.01431900      -0.02867300
P        9.11550776       6.72425676      19.84575983       0.00000000 NULL       0.01552000       0.09328000       0.02867200
P        5.95475562       1.64722770      12.49074816       0.00000000 NULL      -0.01654000      -0.04635000       0.05563400
P        6.46266274       2.01521710       8.81043023       0.00000000 NULL       0.04919200       0.00127700      -0.05563400
P        4.77853358       4.84077618       4.00326755       0.00000000 NULL      -0.02487900       0.06791100      -0.06618300
P        3.79447652       4.12780614      17.29791084       0.00000000 NULL      -0.05677700       0.04480000       0.06618400
30
Lattice="5.601137219729963 0.2238912303576195 0.27263088082604126 1.957699395191024 5.2526449066488405 0.2726308808260414 2.3469880198000603 1.7004421921468755 20.692436709406618" Properties=species:S:1:pos:R:3:initial_magmoms:R:1:castep_labels:S:1:forces:R:3 n_minim_iter=7 energy=-160.188223737289 stress="-0.00012580462125406374 -2.6663922131357088e-05 -4.9561943532938644e-05 -2.6663922131357088e-05 -0.00010830327009470516 -3.591055338750236e-05 -4.9561943532938644e-05 -3.591055338750236e-05 1.632450718130374e-05" free_energy=-160.188223737289 pbc="T T T"
P        2.29020730       5.64734538       3.95235256       0.00000000 NULL      -0.07417500       0.09066100       0.09490600
P        3.82604150       6.76008956      17.28534589       0.00000000 NULL      -0.06304200       0.09872800      -0.09490600
P        4.04867726       1.36365160      13.67965414       0.00000000 NULL      -0.01853200      -0.10722900      -0.01799100
P        7.34873100       3.75460995       7.55804432       0.00000000 NULL       0.10766500      -0.01579400       0.01799100
P        5.16446447       4.06273985      15.51146680       0.00000000 NULL      -0.07189800      -0.07948700       0.01202400
P        4.43635697       3.53521066       5.72623166       0.00000000 NULL       0.09793000       0.04355700      -0.01202500
P        3.85722622       1.67291447       4.33939900       0.00000000 NULL       0.04952500      -0.06485200       0.00187500
P        7.11450238       4.03287957      16.89829946       0.00000000 NULL       0.04619600      -0.06726400      -0.00187500
P        6.89097117       3.88910521       3.76566668       0.00000000 NULL      -0.01464600      -0.01723800       0.02675100
P        4.06348340       1.84053084      17.47203177       0.00000000 NULL       0.02094400       0.00854700      -0.02675100
P        4.88890512       4.50246005       9.67446064       0.00000000 NULL       0.08434300       0.00324100      -0.15301600
P        4.10436597       3.93404493      11.56323781       0.00000000 NULL      -0.02935400      -0.07913700       0.15301600
P        5.39813165       2.71748261      19.79682046       0.00000000 NULL      -0.04546400       0.07942400      -0.00457900
P        5.64187156       2.89407730       1.44087799       0.00000000 NULL      -0.06130800       0.06794700       0.00458000
P        8.29359369       4.67798588      19.87401572       0.00000000 NULL      -0.02939400      -0.01916700       0.01405300
P        2.87689564       0.75347420       1.36368273       0.00000000 NULL       0.02737000       0.02196000      -0.01405300
P        6.27528761       4.69127925      18.88893066       0.00000000 NULL      -0.02644800       0.05218400       0.02155600
P        3.49303677       2.67547999       2.34876780       0.00000000 NULL      -0.04134800       0.04138800      -0.02155600
P        2.89061520       1.56409487       7.44873842       0.00000000 NULL      -0.00096300      -0.04176200       0.04956200
P        7.51903969       4.91748578      13.78896003       0.00000000 NULL       0.03998200      -0.01209300      -0.04956300
P        2.80024554       1.44891948       9.68941553       0.00000000 NULL       0.09802900      -0.00021000       0.05521000
P        7.65663665       4.96747700      11.54828292       0.00000000 NULL      -0.03034200      -0.09321400      -0.05520900
P        6.52255287       2.78955916       5.71073627       0.00000000 NULL       0.02331500       0.05799300      -0.17781500
P        5.22308538       1.84806763      15.52696219       0.00000000 NULL      -0.06237000      -0.00408800       0.17781500
P        0.63851339       0.59937100       1.45695456       0.00000000 NULL      -0.02516400      -0.01418600      -0.05823000