10
Lattice="8.318209587179611 1.5105108231178865 -1.0488512103469152 3.1335514664657627 4.601006228400195 -1.2639011300981835 2.9795305093249786 0.6243966096243084 5.350852246099327" Properties=species:S:1:pos:R:3:initial_magmoms:R:1:castep_labels:S:1:forces:R:3 n_minim_iter=1 energy=-53.097727271616 stress="-0.005966809446080301 -0.002834311044999583 -0.0004907504702780056 -0.002834311044999583 0.0013666271689497503 0.001106796724294891 -0.0004907504702780056 0.001106796724294891 -0.0034823819463101254" free_energy=-53.097727271616 pbc="T T T"
P        4.03677907       2.21518486       0.08299410       0.00000000 NULL      -0.46461800       0.10443600      -0.29354000
P        9.98030826       3.82033686       3.98438460       0.00000000 NULL      -0.07780700       0.12248400      -0.22268100
P        5.95544177       5.07452345       1.23109360       0.00000000 NULL      -0.18557300       0.10404900      -0.24258300
P        8.30109801       3.47958257       2.51874936       0.00000000 NULL       0.19826500      -0.43421100      -0.01115200
P        6.05077601       2.95564404       0.54793605       0.00000000 NULL       0.12705800       0.10937800       0.11961700
P        8.15635240       5.32712132       1.37925257       0.00000000 NULL       0.39838900       0.16559500       0.19298700
P       11.29312320       4.80415255       0.60192255       0.00000000 NULL       0.20373800      -0.13959000       0.18689300
P        9.03681284       2.51438356      -0.86449207       0.00000000 NULL      -0.01488300      -0.19000300       0.08052200
P        6.43956946       4.00377129       3.57718221       0.00000000 NULL      -0.08862400       0.13282400       0.38690600
P        9.40089850       4.78286747      -0.40825112       0.00000000 NULL      -0.09594600       0.02503900      -0.19696900
10
Lattice="8.387700793763164 1.5399819528193959 -1.0504628874721522 3.1740212840172894 4.606254718176208 -1.2742208008808071 3.0083761425375384 0.6265917672268823 5.37605204026081" Properties=species:S:1:pos:R:3:initial_magmoms:R:1:castep_labels:S:1:forces:R:3 n_minim_iter=2 energy=-53.110620630754 stress="0.004766404602208258 -0.0015525048546988815 0.0002470057515465798 -0.0015525048546988815 0.002593842888979472 0.0003829128462839993 0.0002470057515465798 0.0003829128462839993 0.0024978450204744696" free_energy=-53.110620630754 pbc="T T T"
P        4.07319020       2.22672021       0.08077758       0.00000000 NULL      -0.27386300       0.17058000      -0.26317100
P       10.07389226       3.84546259       4.00177418       0.00000000 NULL      -0.11001200       0.08347200      -0.10129200
P        6.01990269       5.08644502       1.23153485       0.00000000 NULL      -0.00360200       0.16718900      -0.21159900
P        8.38131104       3.49749673       2.53036540       0.00000000 NULL       0.15181400      -0.36198500       0.02458300
P        6.10986063       2.97266767       0.55083552       0.00000000 NULL       0.04566200       0.04839800      -0.05938000
P        8.24288958       5.34691230       1.38434691       0.00000000 NULL       0.22179200       0.08319500       0.17046900
P       11.40027298       4.83547563       0.60621070       0.00000000 NULL       0.01947600      -0.15432400       0.06732200
P        9.11559294       2.54319201      -0.86570675       0.00000000 NULL      -0.10723500      -0.16636900       0.07963600
P        6.50600228       4.01618490       3.59432872       0.00000000 NULL       0.03705600       0.09563200       0.33980800
P        9.49060374       4.80981135      -0.41230121       0.00000000 NULL       0.01891100       0.03421300      -0.04637600
10
Lattice="8.374865566663427 1.589603712734757 -1.0522143172788445 3.197431801083938 4.597193023868858 -1.2830476159495328 3.0047505249143796 0.6308793923650423 5.369329247906541" Properties=species:S:1:pos:R:3:initial_magmoms:R:1:castep_labels:S:1:forces:R:3 n_minim_iter=3 energy=-53.123677657138 stress="0.0007917554249679964 0.0020406624633287082 0.0005174644569323675 0.0020406624633287082 -0.004527515291138102 -0.0008319639873277648 0.0005174644569323675 -0.0008319639873277648 -0.0011311904979120874" free_energy=-53.123677657138 pbc="T T T"
P        4.07120309       2.24106972       0.07100473       0.00000000 NULL      -0.05473800       0.07724400      -0.33309000
P       10.07118860       3.88014285       3.98709704       0.00000000 NULL      -0.17134800       0.10339500      -0.08051200
P        6.03763396       5.09064680       1.21521356       0.00000000 NULL      -0.01138500       0.37799000      -0.18493100
P        8.38553975       3.51762473       2.52075320       0.00000000 NULL       0.23348700      -0.42497000       0.00023100
P        6.11503932       2.99341394       0.54415060       0.00000000 NULL       0.01439600      -0.08865800      -0.13541400
P        8.26270129       5.36390004       1.37472604       0.00000000 NULL       0.10947000       0.10917100       0.20483100
P       11.40385604       4.87537822       0.59758429       0.00000000 NULL      -0.06184500      -0.08789000       0.19428900
P        9.10642283       2.58691476      -0.86839551       0.00000000 NULL      -0.04120000      -0.17468200       0.09546600
P        6.51613132       4.02574991       3.58851940       0.00000000 NULL      -0.01600700       0.08107000       0.28311600
P        9.49732531       4.84203181      -0.42384289       0.00000000 NULL      -0.00083100       0.02732900      -0.04398700
10
Lattice="8.275907840246937 1.6590079408830247 -1.0873304504694807 3.1889144330103627 4.66480625258966 -1.3043492233266019 2.9503394231142015 0.6515439045226048 5.38651382170196" Properties=species:S:1:pos:R:3:initial_magmoms:R:1:castep_labels:S:1:forces:R:3 n_minim_iter=4 energy=-53.148117126578 stress="-0.0039064557365446366 0.004624481377043368 -0.003930936240901426 0.004624481377043368 0.0072486151014751294 0.0003052801878052248 -0.003930936240901426 0.0003052801878052248 0.002143237037151768" free_energy=-53.148117126578 pbc="T T T"
P        4.01087125       2.29950302       0.02858638       0.00000000 NULL       0.20867800       0.03346500       0.04362300
P        9.93628627       3.98785145       3.95959932       0.00000000 NULL      -0.17396900       0.16896500       0.17874100
P        5.98205082       5.20037306       1.17785488       0.00000000 NULL       0.04475600       0.13679800      -0.36970800
P        8.30381126       3.56785348       2.50336024       0.00000000 NULL       0.02588300      -0.00807800      -0.21784700
P        6.05498786       3.06220339       0.51915198       0.00000000 NULL       0.01759400       0.13224300      -0.12173400
P        8.20138154       5.47906204       1.36656357       0.00000000 NULL       0.02606700      -0.35638800       0.29463700
P       11.28227379       4.98442671       0.57135414       0.00000000 NULL       0.06420100      -0.20973100       0.08547500
P        8.99781864       2.65499185      -0.89790148       0.00000000 NULL       0.12211100      -0.16525200       0.08923100
P        6.44174085       4.11280944       3.61142414       0.00000000 NULL      -0.01613100       0.19391500      -0.06313700
P        9.40134029       4.95348975      -0.46935496       0.00000000 NULL      -0.31919100       0.07406500       0.08071800
10
Lattice="8.238013326944241 1.5947361239541793 -1.042228537478736 3.1429898921614967 4.617036607966272 -1.287857584509932 2.9666612882042958 0.6255246404740297 5.394304827055019" Properties=species:S:1:pos:R:3:initial_magmoms:R:1:castep_labels:S:1:forces:R:3 n_minim_iter=5 energy=-53.17154859347 stress="-0.0016645358569121842 0.000953400797169609 -0.000259499343397519 0.000953400797169609 0.0036539959017724533 0.0007251733770680769 -0.000259499343397519 0.0007251733770680769 -0.0027084523717626394" free_energy=-53.17154859347 pbc="T T T"
P        3.97560951       2.26628039       0.03207506       0.00000000 NULL       0.28676200      -0.13887600       0.28068900
P        9.89614083       3.90371611       4.00032000       0.00000000 NULL       0.17311300       0.11298100       0.04190300
P        5.93674808       5.14505055       1.18977187       0.00000000 NULL       0.19391600       0.23028100      -0.34705300
P        8.28293755       3.46808351       2.54078918       0.00000000 NULL      -0.18296500       0.12093400      -0.22816800
P        6.02475088       3.00523254       0.54469067       0.00000000 NULL      -0.14237100       0.09815700       0.00224800
P        8.16310077       5.39452602       1.41966109       0.00000000 NULL      -0.05210100      -0.39773500       0.25200200
P       11.22490175       4.87093852       0.63777937       0.00000000 NULL      -0.08840800      -0.24091300       0.04634900
P        8.95010812       2.56849077      -0.84376394       0.00000000 NULL       0.01058600      -0.00686600       0.06894200
P        6.41631335       4.05148243       3.65645164       0.00000000 NULL      -0.01431600       0.06296400      -0.28483400
P        9.33811723       4.86457768      -0.42429678       0.00000000 NULL      -0.18421600       0.15907100       0.16792300
10
Lattice="8.192441948203813 1.5626148356324712 -1.0688753470573287 3.1154987250724337 4.579520711400298 -1.3149671321663883 2.9412327973901244 0.6017924632386927 5.44298060734417" Properties=species:S:1:pos:R:3:initial_magmoms:R:1:castep_labels:S:1:forces:R:3 n_minim_iter=6 energy=-53.183394272566 stress="-0.0037982876914600225 -0.000909200060338157 -0.003118067073701834 -0.000909200060338157 -0.00020037669304843472 -0.0005096537627536275 -0.003118067073701834 -0.0005096537627536275 0.0031549095143828193" free_energy=-53.183394272566 pbc="T T T"
P        3.94744012       2.24085709       0.01692919       0.00000000 NULL       0.14159600      -0.09160600       0.25943500
P        9.82664608       3.84631691       4.01448810       0.00000000 NULL       0.12181900       0.07201200       0.22549100
P        5.89245120       5.10427127       1.16829294       0.00000000 NULL       0.18132000       0.36793200      -0.35028300
P        8.22913704       3.40485706       2.54252744       0.00000000 NULL      -0.24620200       0.10491500      -0.14761100
P        5.98273617       2.96814114       0.53229966       0.00000000 NULL      -0.01475800       0.08338000      -0.20452800
P        8.10855196       5.32783843       1.42210868       0.00000000 NULL      -0.00045800      -0.32802500       0.15877300
P       11.15009681       4.79598325       0.62284745       0.00000000 NULL       0.01806000      -0.30647100      -0.03100700
P        8.89558919       2.52146597      -0.86701407       0.00000000 NULL       0.03502700       0.04577900       0.06460800
P        6.36561383       4.00249958       3.68062048       0.00000000 NULL      -0.00234500      -0.14996800      -0.25875700
P        9.27317326       4.80995714      -0.45176535       0.00000000 NULL      -0.23405900       0.20205200       0.28387800
10
Lattice="8.130412666893829 1.6011246286624647 -1.0173005426204382 3.1057712530008574 4.582152815017227 -1.3097859673432486 2.9638788192531624 0.6081227694703797 5.521866864230754" Properties=species:S:1:pos:R:3:initial_magmoms:R:1:castep_labels:S:1:forces:R:3 n_minim_iter=7 energy=-53.237467939551 stress="-0.005404434411854198 0.00035612222440439736 0.0021335822870746273 0.00035612222440439736 0.0004420411093956367 0.0001311365866889515 0.0021335822870746273 0.0001311365866889515 0.004788454826241579" free_energy=-53.237467939551 pbc="T T T"
P        3.92793121       2.25539902       0.03703031       0.00000000 NULL       0.20517200      -0.06126000       0.07932300
P        9.80486267       3.89776377       4.12527269       0.00000000 NULL       0.04422800      -0.01818800       0.07758200
P        5.89910451       5.17307347       1.16463571       0.00000000 NULL       0.24190400       0.40837500      -0.31324100
P        8.20560632       3.39881882       2.61348028       0.00000000 NULL      -0.14079200       0.07776700       0.10044900
P        5.95189238       2.99455267       0.56536295       0.00000000 NULL       0.01792000       0.17835600      -0.15753300
P        8.10338054       5.33027341       1.53588908       0.00000000 NULL      -0.16562300      -0.14962600      -0.03342900
P       11.08895851       4.79963335       0.72902792       0.00000000 NULL      -0.10979600      -0.36370600      -0.03508900
P        8.82721471       2.54345207      -0.79261783       0.00000000 NULL       0.09281500       0.14498400       0.01701100
P        6.36612081       4.02403037       3.77445544       0.00000000 NULL      -0.07555000      -0.35354800      -0.09781400
P        9.20984406       4.86153653      -0.37608267       0.00000000 NULL      -0.11027800       0.13684600       0.36274000
10
Lattice="8.156353922672382 1.6187517043166408 -1.06415963191853 3.131503621554921 4.567843344783995 -1.3376099098097711 2.94324672175648 0.5982108995106246 5.4988349185063266" Properties=species:S:1:pos:R:3:initial_magmoms:R:1:castep_labels:S:1:forces:R:3 n_minim_iter=8 energy=-53.288427676724 stress="-0.0031457416136393256 -0.00031536587485729816 -0.000714864503609581 -0.00031536587485729816 -0.004020057214812739 0.0010522927944820006 -0.000714864503609581 0.0010522927944820006 0.0015167119296902627" free_energy=-53.288427676724 pbc="T T T"
P        3.94178496       2.25549886       0.00004174       0.00000000 NULL       0.23446400      -0.10610000       0.10668900
P        9.81515745       3.90913546       4.05355426       0.00000000 NULL      -0.01812900      -0.11912000       0.06380800
P        5.93670579       5.21370376       1.06250607       0.00000000 NULL       0.33299000       0.41933700      -0.18435900
P        8.21993524       3.36352413       2.54605594       0.00000000 NULL      -0.23285200       0.03939400       0.27411100
P        5.96516348       3.00095673       0.50892015       0.00000000 NULL       0.07248700       0.15359300      -0.09295800
P        8.14073254       5.30072510       1.51378862       0.00000000 NULL      -0.31620300       0.05444300      -0.22573000
P       11.11251886       4.76390771       0.67264285       0.00000000 NULL       0.03235200      -0.32824500       0.03596900
P        8.84979650       2.54281736      -0.83070314       0.00000000 NULL       0.07391200       0.27726300       0.02651100
P        6.36901038       4.01066179       3.73732768       0.00000000 NULL      -0.07669000      -0.46486300      -0.34489800
P        9.23026439       4.87928512      -0.42235633       0.00000000 NULL      -0.10233000       0.07429800       0.34085600
10
Lattice="8.142798762040051 1.6306321349769528 -1.0692219848137163 3.126789711243491 4.577240155548737 -1.3791808825887026 2.9462568568650527 0.5487623592327381 5.508754529349559" Properties=species:S:1:pos:R:3:initial_magmoms:R:1:castep_labels:S:1:forces:R:3 n_minim_iter=9 energy=-53.308830436354 stress="-0.003465887549490644 -0.0017853852073144113 0.001097995795109709 -0.0017853852073144113 -0.0033117319184038643 -0.0031067191880582387 0.001097995795109709 -0.0031067191880582387 0.0019108644054857678" free_energy=-53.308830436354 pbc="T T T"
P        3.93786884       2.25631156      -0.02140898       0.00000000 NULL       0.27781000      -0.07681000      -0.10825900
P        9.80400661       3.87810538       4.03586873       0.00000000 NULL       0.02869900      -0.17256300       0.09318500
P        5.94299271       5.23068091       0.99751689       0.00000000 NULL       0.29916800       0.36792900      -0.09224300
P        8.21154688       3.32389854       2.53348777       0.00000000 NULL      -0.26287800       0.20590100       0.09918600
P        5.95817646       3.00288056       0.48448141       0.00000000 NULL       0.07195200       0.14265500      -0.12478800
P        8.13420070       5.28177184       1.49035238       0.00000000 NULL      -0.35123500      -0.00251400      -0.07934300
P       11.09654010       4.73748336       0.65548722       0.00000000 NULL       0.00550300      -0.19941900       0.09418900
P        8.83391648       2.54890377      -0.83567909       0.00000000 NULL       0.03755500       0.32924600       0.00954100
P        6.36366326       3.97182643       3.71807115       0.00000000 NULL      -0.08174000      -0.58838800      -0.22009300
P        9.21054025       4.88960577      -0.44625808       0.00000000 NULL      -0.02483300      -0.00603700       0.32862600
10
Lattice="8.131584161650656 1.6394034891654317 -1.058170513270653 3.130652247077195 4.555531550841904 -1.3714669763889735 2.9521816822657287 0.5640310224147143 5.547987996307785" Properties=species:S:1:pos:R:3:initial_magmoms:R:1:castep_labels:S:1:forces:R:3 n_minim_iter=10 energy=-53.328632016911 stress="-0.0035054743011427667 -0.0018280048261383652 0.0019701300856242968 -0.0018280048261383652 -0.006412932903086449 -0.0007775367750067699 0.0019701300856242968 -0.0007775367750067699 0.003784964390879894" free_energy=-53.328632016911 pbc="T T T"
P        3.94125477       2.25517979      -0.02224863       0.00000000 NULL       0.28135300      -0.07978700       0.12753600
P        9.79879457       3.89026285       4.08198828       0.00000000 NULL       0.05905000      -0.17315100       0.11663300
P        5.96235107       5.24583077       1.00090719       0.00000000 NULL       0.22577100       0.35034300       0.02300700
P        8.20871725       3.31558764       2.57275000       0.00000000 NULL      -0.24601400       0.19435700       0.13637500
P        5.95914892       3.01029553       0.49914165       0.00000000 NULL       0.02347500       0.03793100      -0.20211800
P        8.13326278       5.27234104       1.53647514       0.00000000 NULL      -0.28453600       0.05365500      -0.15866800
P       11.09199025       4.71880099       0.70302818       0.00000000 NULL       0.00921200      -0.17991800      -0.11697900
P        8.82265662       2.55514576      -0.81253688       0.00000000 NULL      -0.00408700       0.30941200      -0.05507600
P        6.36599546       3.96254549       3.76116380       0.00000000 NULL      -0.12772900      -0.48320700      -0.26205100
P        9.20023121       4.88659926      -0.41160591       0.00000000 NULL       0.06350500      -0.02963500       0.39134200
10
Lattice="8.20688154028386 1.7522480040936885 -1.125050457388541 3.2150710615152405 4.595711544447904 -1.4446617790888285 2.947399915028506 0.538138113972634 5.532892308180165" Properties=species:S:1:pos:R:3:initial_magmoms:R:1:castep_labels:S:1:forces:R:3 n_minim_iter=11 energy=-53.371124021088 stress="-0.002030065314489877 -0.0028850488135510294 0.0009009979614667003 -0.0028850488135510294 -0.0077962098090828685 0.00048296737574115916 0.0009009979614667003 0.00048296737574115916 0.0019336615897020805" free_energy=-53.371124021088 pbc="T T T"
P        4.04561951       2.31971600      -0.08559288       0.00000000 NULL       0.00811100      -0.10691300      -0.26954100
P        9.85110279       3.95203181       3.99039621       0.00000000 NULL       0.12305100      -0.09606000      -0.17275900
P        6.08989208       5.35899037       0.87925936       0.00000000 NULL       0.15081700       0.08695100       0.15858200
P        8.27621198       3.36133823       2.46643345       0.00000000 NULL      -0.37190700       0.20780000       0.27037200
P        6.03321763       3.08807850       0.39639430       0.00000000 NULL       0.13679000       0.12407000       0.17398700
P        8.22555318       5.34085883       1.48524877       0.00000000 NULL      -0.04328700       0.04033300      -0.32870000
P       11.25438094       4.80249857       0.59602576       0.00000000 NULL      -0.20044400      -0.00217200      -0.07596000
P        8.89004937       2.67834410      -0.89018481       0.00000000 NULL      -0.04557800       0.25601700      -0.04882700
P        6.39586072       3.98499201       3.66448037       0.00000000 NULL       0.14854800      -0.63487900      -0.09204100
P        9.31800963       4.95673909      -0.47192876       0.00000000 NULL       0.09389900       0.12485400       0.38488800
10
Lattice="8.286183536221886 1.8562912282904769 -1.1548030648109602 3.2800857505246594 4.681448556834572 -1.534752982543131 2.974739779128208 0.45988321987039743 5.501590164415432" Properties=species:S:1:pos:R:3:initial_magmoms:R:1:castep_labels:S:1:forces:R:3 n_minim_iter=12 energy=-53.412709234092 stress="0.0014434622685285728 -0.002866207479806654 0.0007664789342448819 -0.002866207479806654 -0.005790913249733713 0.0018310330095849955 0.0007664789342448819 0.0018310330095849955 0.00021473725588355724" free_energy=-53.412709234092 pbc="T T T"
P        4.14970641       2.39054764      -0.19111175       0.00000000 NULL      -0.12299300      -0.20447900       0.18396800
P        9.93738764       3.99014317       3.87304890       0.00000000 NULL       0.21786700      -0.15008000       0.01544000
P        6.21061858       5.46851400       0.75638420       0.00000000 NULL       0.20157400      -0.04543600       0.18591300
P        8.33263796       3.41033739       2.36082394       0.00000000 NULL      -0.18162100      -0.01635800       0.25538000
P        6.11864520       3.17919032       0.33384613       0.00000000 NULL       0.07149700       0.18720600      -0.15515600
P        8.33684451       5.39138243       1.41804306       0.00000000 NULL      -0.27399200       0.37779400      -0.16843100
P       11.39327337       4.90017314       0.50071517       0.00000000 NULL       0.03647800      -0.05809500      -0.11331400
P        8.95497417       2.79545450      -0.94064349       0.00000000 NULL      -0.11507200       0.21229400      -0.07074800
P        6.46732126       3.96928006       3.56115317       0.00000000 NULL       0.08688100      -0.36785200      -0.09098000
P        9.43484439       5.05186822      -0.49850623       0.00000000 NULL       0.07938200       0.06500600      -0.04207200
10
Lattice="8.32211537064235 1.8847854221088631 -1.1753816343438825 3.2989921041491876 4.7207433011444655 -1.5853639213375295 2.9841710900662 0.40855913761671464 5.488420755399473" Properties=species:S:1:pos:R:3:initial_magmoms:R:1:castep_labels:S:1:forces:R:3 n_minim_iter=13 energy=-53.434736154744 stress="0.0025342817969650853 -0.002242640107873269 0.0003933301543482838 -0.002242640107873269 -0.0019843762840338307 0.0017965998774975504 0.0003933301543482838 0.0017965998774975504 -0.00015693816146614882" free_energy=-53.434736154744 pbc="T T T"
P        4.18214274       2.39724774      -0.23422767       0.00000000 NULL       0.00827500      -0.14722400       0.28968600
P        9.98415287       3.97901071       3.82074745       0.00000000 NULL       0.14742000      -0.15099500      -0.29079600
P        6.26058185       5.49060781       0.70056738       0.00000000 NULL      -0.00189100       0.06824400       0.12728500
P        8.34661310       3.40993538       2.30492040       0.00000000 NULL      -0.05240300       0.03390800       0.22789600
P        6.15803071       3.23064682       0.27563920       0.00000000 NULL      -0.16701200       0.03655300       0.01529300
P        8.35892561       5.41046752       1.38587016       0.00000000 NULL      -0.03010000       0.30885400      -0.19685600
P       11.44817820       4.92184682       0.44259697       0.00000000 NULL       0.01759200      -0.07686000      -0.15207600
P        8.97626359       2.83082345      -0.97753709       0.00000000 NULL       0.00828600       0.15090200      -0.00843200
P        6.50102988       3.93389506       3.51945598       0.00000000 NULL      -0.02507400      -0.24801300      -0.12385100
P        9.47573805       5.08516798      -0.54520825       0.00000000 NULL       0.09490700       0.02463100       0.11185100
10
Lattice="8.338334705156067 1.8796874643449992 -1.1384288765507606 3.296676679542856 4.718953863325811 -1.5878684749073497 3.0188017797683973 0.3814176507081049 5.4924215362551445" Properties=species:S:1:pos:R:3:initial_magmoms:R:1:castep_labels:S:1:forces:R:3 n_minim_iter=14 energy=-53.461458046814 stress="0.003273477960317053 -0.0017120598688064755 0.0010358306930236167 -0.0017120598688064755 -0.00037385701922161574 0.0012894231137158165 0.0010358306930236167 0.0012894231137158165 -0.0002559769773871795" free_energy=-53.461458046814 pbc="T T T"
P        4.21014755       2.36589600      -0.21763408       0.00000000 NULL      -0.02220300      -0.13579300       0.12182800
P       10.03895310       3.94640664       3.80987837       0.00000000 NULL       0.07115200      -0.22701100      -0.13649400
P        6.28075199       5.48134092       0.72069748       0.00000000 NULL      -0.00293800       0.14301300       0.18377100
P        8.36586663       3.39197143       2.32192767       0.00000000 NULL       0.01033000       0.09034300       0.12869200
P        6.16135921       3.25143916       0.26996882       0.00000000 NULL       0.03597600       0.03225300      -0.06477700
P        8.38033217       5.41497289       1.42634479       0.00000000 NULL      -0.11869700       0.13091400      -0.17855000
P       11.48038310       4.89706612       0.46844885       0.00000000 NULL      -0.02982300      -0.01876700      -0.01275100
P        8.98712921       2.83037532      -0.94525194       0.00000000 NULL      -0.01104400       0.03361400       0.00223900
P        6.53329941       3.86971879       3.54347581       0.00000000 NULL      -0.07651300      -0.07293300      -0.09116000
P        9.49595801       5.07014418      -0.49942134       0.00000000 NULL       0.14376000       0.02436800       0.04720300
10
Lattice="8.347315827532501 1.8914034633135854 -1.1106091741859632 3.300884662772357 4.7151086776255395 -1.604736595153598 3.0486510180228095 0.34729163280310543 5.505588728359021" Properties=species:S:1:pos:R:3:initial_magmoms:R:1:castep_labels:S:1:forces:R:3 n_minim_iter=15 energy=-53.482280319866 stress="0.00374005383555746 -0.0009295823198741104 0.001834269753735714 -0.0009295823198741104 -0.0013152191762682678 0.0005473236839200635 0.001834269753735714 0.0005473236839200635 -0.0010444937874600246" free_energy=-53.482280319866 pbc="T T T"
P        4.22913920       2.33048038      -0.21277315       0.00000000 NULL       0.09006200       0.04086500      -0.00603300
P       10.08251424       3.89955464       3.80333469       0.00000000 NULL       0.13556500      -0.18418200      -0.20089300
P        6.29627367       5.48519535       0.74041621       0.00000000 NULL      -0.02295100       0.08075300       0.18215100
P        8.39078763       3.39078773       2.32965842       0.00000000 NULL      -0.05926900      -0.06466200       0.09621000
P        6.18301146       3.27438706       0.24670124       0.00000000 NULL      -0.18270300      -0.06581000       0.03189600
P        8.39658938       5.40758473       1.44193295       0.00000000 NULL      -0.09865800       0.24328300      -0.06855300
P       11.49997413       4.88762418       0.49323988       0.00000000 NULL       0.09093200       0.02198300       0.01513000
P        8.99609342       2.83216137      -0.91932271       0.00000000 NULL      -0.00054700       0.03321500       0.03245100
P        6.55576352       3.81492809       3.55972996       0.00000000 NULL      -0.00810700      -0.08613200      -0.00758000
P        9.52321890       5.07159836      -0.47064998       0.00000000 NULL       0.05567600      -0.01931200      -0.07477900
10
Lattice="8.355251494277306 1.9029310480159467 -1.103007045866923 3.305594633982112 4.716783386149763 -1.630086975951102 3.062831021453519 0.30807666980620674 5.493382424166874" Properties=species:S:1:pos:R:3:initial_magmoms:R:1:castep_labels:S:1:forces:R:3 n_minim_iter=16 energy=-53.497557377308 stress="0.0029776129230271228 -0.0003982860896076101 0.0014329419404859763 -0.0003982860896076101 -0.0018073569818377595 -0.0003082864919166052 0.0014329419404859763 -0.0003082864919166052 -0.0017337067016611391" free_energy=-53.497557377308 pbc="T T T"
P        4.25271837       2.31699457      -0.23062687       0.00000000 NULL       0.00333200      -0.00269500       0.02697200
P       10.11997507       3.84724116       3.76106132       0.00000000 NULL       0.03366200      -0.17927700      -0.20382900
P        6.30199465       5.49034866       0.73761878       0.00000000 NULL      -0.06920800       0.06333100       0.07039600
P        8.39202142       3.38008620       2.30416692       0.00000000 NULL       0.00308300      -0.11934200      -0.01548600
P        6.18644906       3.28511705       0.21326032       0.00000000 NULL      -0.08163700      -0.01229900       0.07305800
P        8.40207981       5.40155301       1.42360858       0.00000000 NULL      -0.02891700       0.24792700       0.07346800
P       11.52770468       4.88092509       0.48712033       0.00000000 NULL      -0.04618700       0.05739000      -0.06524800
P        9.00804538       2.83035653      -0.91096023       0.00000000 NULL       0.03748700       0.08002700       0.08401700
P        6.56926321       3.76458660       3.54198180       0.00000000 NULL      -0.05510300      -0.03717600      -0.01857600
P        9.53355591       5.07958540      -0.48553974       0.00000000 NULL       0.20348800      -0.09788600      -0.02477100
10
Lattice="8.350050415326091 1.8945819594360591 -1.0807806241083318 3.292032202507305 4.714029521977911 -1.6626662704287594 3.084582611076578 0.24156935392703896 5.47646284424129" Properties=species:S:1:pos:R:3:initial_magmoms:R:1:castep_labels:S:1:forces:R:3 n_minim_iter=17 energy=-53.519865464098 stress="0.0020972819643980513 -8.493812916978147e-05 0.0016558985802064157 -8.493812916978147e-05 -0.001944519712245828 -0.0012576951500874525 0.0016558985802064157 -0.0012576951500874525 -0.001583809120297283" free_energy=-53.519865464098 pbc="T T T"
P        4.26591917       2.28675051      -0.24908722       0.00000000 NULL       0.05747300      -0.01340400      -0.07055700
P       10.15308766       3.72080663       3.70533790       0.00000000 NULL       0.04000400      -0.19624200      -0.23077900