15
Lattice="6.566849999999999 0.0 0.0 0.0 7.4844899999999965 -5.141462325345801e-16 0.0 -3.742244999999998 6.48175847437059" Properties=species:S:1:pos:R:3:initial_magmoms:R:1:castep_labels:S:1 n_minim_iter=1 pbc="T T T"
P        0.42986403       4.11653574       0.12216754       0.00000000 NULL
P        4.80776403       1.78977807       2.85565019       0.00000000 NULL
P        2.61881403       5.32042232       3.50394011       0.00000000 NULL
P        0.03732007       3.23492756       6.10504386       0.00000000 NULL
P        4.41522007      -0.07258495       0.62770711       0.00000000 NULL
P        2.22627007      -3.16234147       6.23076534       0.00000000 NULL
P        1.70664814       5.52882607       0.82120185       0.00000000 NULL
P        6.08454814       1.68901438       1.28305373       0.00000000 NULL
P        3.89559814       4.00889568       4.37750226       0.00000000 NULL
P        2.84321358       1.26870675       3.11668550       0.00000000 NULL
P        0.65426358      -1.67746880       3.82468346       0.00000000 NULL
P        5.03216358       0.40876319       6.02214735       0.00000000 NULL
P        4.82097675       2.38124401       5.62469564       0.00000000 NULL
P        2.63202675      -0.06173694       1.60719286       0.00000000 NULL
P        0.44307675      -2.31950593       5.73162781       0.00000000 NULL
15
Lattice="6.585598778100974 0.0 0.0 0.0 7.502366378813019 1.4652200970431996e-15 0.0 -3.7511831894065106 6.49723987255034" Properties=species:S:1:pos:R:3:initial_magmoms:R:1:castep_labels:S:1 n_minim_iter=2 pbc="T T T"
P        0.43114209       4.12616620       0.12244280       0.00000000 NULL
P        4.82154127       1.79413941       2.86265373       0.00000000 NULL
P        2.62634168       5.33324509       3.51214271       0.00000000 NULL
P        0.03766270       3.24235077       6.11974315       0.00000000 NULL
P        4.42806189      -0.07250479       0.62941017       0.00000000 NULL
P        2.23286229      -3.16984484       6.24532578       0.00000000 NULL
P        1.71154943       5.54207441       0.82320377       0.00000000 NULL
P        6.10194862       1.69306212       1.28606076       0.00000000 NULL
P        3.90674903       4.01841418       4.38797470       0.00000000 NULL
P        2.85118901       1.27186426       3.12431069       0.00000000 NULL
P        0.65598942      -1.68138214       3.83361778       0.00000000 NULL
P        5.04638861       0.40951901       6.03655064       0.00000000 NULL
P        4.83456752       2.38679484       5.63781725       0.00000000 NULL
P        2.63936793      -0.06208690       1.61130629       0.00000000 NULL
P        0.44416834      -2.32470681       5.74535557       0.00000000 NULL
15
Lattice="6.893161325544219 0.0 0.0 0.0 7.796277885545542 -3.054688365238408e-16 0.0 -3.898138942772771 6.751774703845267" Properties=species:S:1:pos:R:3:initial_magmoms:R:1:castep_labels:S:1 n_minim_iter=3 pbc="T T T"
P        0.45210035       4.28433939       0.12694203       0.00000000 NULL
P        5.04754123       1.86590505       2.97795695       0.00000000 NULL
P        2.74982079       5.54417357       3.64687506       0.00000000 NULL
P        0.04350751       3.36412166       6.36150556       0.00000000 NULL
P        4.63894839      -0.07097357       0.65760712       0.00000000 NULL
P        2.34122795      -3.29314690       6.48443607       0.00000000 NULL
P        1.79189235       5.75989378       0.85612825       0.00000000 NULL
P        6.38733324       1.75962165       1.33549625       0.00000000 NULL
P        4.08961280       4.17490258       4.56014954       0.00000000 NULL
P        2.98197356       1.32389679       3.24975339       0.00000000 NULL
P        0.68425311      -1.74571757       3.98036976       0.00000000 NULL
P        5.27969400       0.42182195       6.27342559       0.00000000 NULL
P        5.05740696       2.47795564       5.85333268       0.00000000 NULL
P        2.75968651      -0.06798119       1.67913584       0.00000000 NULL
P        0.46196607      -2.40997327       5.97108023       0.00000000 NULL
15
Lattice="6.937581182319422 0.0 0.0 0.0 7.870275987865152 -1.2520707238354947e-15 0.0 -3.935137993932575 6.815858940285891" Properties=species:S:1:pos:R:3:initial_magmoms:R:1:castep_labels:S:1 n_minim_iter=4 pbc="T T T"
P        0.45468775       4.32222971       0.12786910       0.00000000 NULL
P        5.07974187       1.88476182       3.00876367       0.00000000 NULL
P        2.76721481       5.59842364       3.67922550       0.00000000 NULL
P        0.04676539       3.39208719       6.42319866       0.00000000 NULL
P        4.67181952      -0.06852759       0.66662594       0.00000000 NULL
P        2.35929246      -3.32355841       6.54189261       0.00000000 NULL
P        1.80205984       5.81462489       0.86412772       0.00000000 NULL
P        6.42711396       1.77618289       1.34818222       0.00000000 NULL
P        4.11458690       4.21460739       4.60354833       0.00000000 NULL
P        3.00091573       1.33817801       3.28158640       0.00000000 NULL
P        0.68838867      -1.76228903       4.01616960       0.00000000 NULL
P        5.31344279       0.42411220       6.33396122       0.00000000 NULL
P        5.08899891       2.49988848       5.90594462       0.00000000 NULL
P        2.77647185      -0.07038337       1.69791971       0.00000000 NULL
P        0.46394479      -2.42950392       6.02785288       0.00000000 NULL
15
Lattice="6.931231594993218 0.0 0.0 0.0 7.904032934190959 -5.983869476758076e-16 0.0 -3.952016467095479 6.845093313358228" Properties=species:S:1:pos:R:3:initial_magmoms:R:1:castep_labels:S:1 n_minim_iter=5 pbc="T T T"
P        0.45371610       4.33721228       0.12817960       0.00000000 NULL
P        5.07453716       1.89441791       3.02486751       0.00000000 NULL
P        2.76412663       5.62442041       3.69204553       0.00000000 NULL
P        0.05052027       3.40208509       6.45227639       0.00000000 NULL
P        4.67134134      -0.06522295       0.67266302       0.00000000 NULL
P        2.36093080      -3.33686094       6.56524654       0.00000000 NULL
P        1.79806369       5.83953555       0.86733865       0.00000000 NULL
P        6.41888475       1.78338679       1.35423786       0.00000000 NULL
P        4.10847422       4.23312826       4.62351613       0.00000000 NULL
P        2.99816653       1.34593489       3.29631206       0.00000000 NULL
P        0.68775600      -1.77029313       4.03132348       0.00000000 NULL
P        5.30857706       0.42435944       6.36255040       0.00000000 NULL
P        5.08344851       2.50873671       5.92828176       0.00000000 NULL
P        2.77303798      -0.07234142       1.70832272       0.00000000 NULL
P        0.46262744      -2.43639409       6.05358147       0.00000000 NULL
15
Lattice="6.900818058169917 0.0 0.0 0.0 7.917845160547238 4.0598522645228744e-16 0.0 -3.9589225802736197 6.8570550522655855" Properties=species:S:1:pos:R:3:initial_magmoms:R:1:castep_labels:S:1 n_minim_iter=6 pbc="T T T"
P        0.45109468       4.33967438       0.12817482       0.00000000 NULL
P        5.05164006       1.90008883       3.03469939       0.00000000 NULL
P        2.75136737       5.63700573       3.69418017       0.00000000 NULL
P        0.05580081       3.40210966       6.46556417       0.00000000 NULL
P        4.65634618      -0.06063380       0.67795958       0.00000000 NULL
P        2.35607350      -3.34147467       6.57058568       0.00000000 NULL
P        1.78652210       5.84967078       0.86790606       0.00000000 NULL
P        6.38706747       1.78571668       1.35713853       0.00000000 NULL
P        4.08679478       4.24138148       4.63200979       0.00000000 NULL
P        2.98496672       1.35096602       3.30264377       0.00000000 NULL
P        0.68469403      -1.77423139       4.03576228       0.00000000 NULL
P        5.28523941       0.42326656       6.37570338       0.00000000 NULL
P        5.05996723       2.51058128       5.93499204       0.00000000 NULL
P        2.75969455      -0.07435855       1.71533188       0.00000000 NULL
P        0.45942186      -2.43622153       6.06378551       0.00000000 NULL
15
Lattice="6.840688086251331 0.0 0.0 0.0 7.927223159025152 -8.578985063565581e-16 0.0 -3.9636115795125755 6.865176637184111" Properties=species:S:1:pos:R:3:initial_magmoms:R:1:castep_labels:S:1 n_minim_iter=7 pbc="T T T"
P        0.44633278       4.32952357       0.12788240       0.00000000 NULL
P        5.00679151       1.90960000       3.05175805       0.00000000 NULL
P        2.72656215       5.65171238       3.68553551       0.00000000 NULL
P        0.07174312       3.39014723       6.47863604       0.00000000 NULL
P        4.63220185      -0.04802100       0.68990501       0.00000000 NULL
P        2.35197249      -3.34212502       6.56181155       0.00000000 NULL
P        1.76006764       5.85649254       0.86576220       0.00000000 NULL
P        6.32052636       1.78513816       1.36042423       0.00000000 NULL
P        4.04029700       4.24920524       4.63898954       0.00000000 NULL
P        2.95787049       1.35999710       3.30797751       0.00000000 NULL
P        0.67764113      -1.77881678       4.03339585       0.00000000 NULL
P        5.23809985       0.41882088       6.38897924       0.00000000 NULL
P        5.01225474       2.50647777       5.93253192       0.00000000 NULL
P        2.73202538      -0.07912631       1.72823726       0.00000000 NULL
P        0.45179602      -2.42735025       6.06958341       0.00000000 NULL
15
Lattice="6.8428418417858525 0.0 0.0 0.0 7.894630347889331 1.2648733015987013e-15 0.0 -3.947315173944667 6.83695043475974" Properties=species:S:1:pos:R:3:initial_magmoms:R:1:castep_labels:S:1 n_minim_iter=8 pbc="T T T"
P        0.44820615       4.28698055       0.12710175       0.00000000 NULL
P        5.01010071       1.91389903       3.06076551       0.00000000 NULL
P        2.72915343       5.64106713       3.64908251       0.00000000 NULL
P        0.09778943       3.35486183       6.45847228       0.00000000 NULL
P        4.65968400      -0.03154423       0.70231873       0.00000000 NULL
P        2.37873671      -3.32331640       6.51310919       0.00000000 NULL
P        1.74310372       5.83280463       0.85613976       0.00000000 NULL
P        6.30499828       1.77235244       1.35752358       0.00000000 NULL
P        4.02405100       4.23678965       4.62328642       0.00000000 NULL
P        2.95372409       1.36508495       3.29672754       0.00000000 NULL
P        0.67277681      -1.77480706       4.00638843       0.00000000 NULL
P        5.23467137       0.40972330       6.37078423       0.00000000 NULL
P        5.00867199       2.48706650       5.89717539       0.00000000 NULL
P        2.72772471      -0.08374394       1.73449998       0.00000000 NULL
P        0.44677743      -2.40332137       6.04222483       0.00000000 NULL
15
Lattice="6.7122513579691105 0.0 0.0 0.0 7.863458625533318 -2.964662481119013e-16 0.0 -3.931729312766659 6.8099549313197185" Properties=species:S:1:pos:R:3:initial_magmoms:R:1:castep_labels:S:1 n_minim_iter=9 pbc="T T T"
P        0.43988122       4.24983684       0.12545259       0.00000000 NULL
P        4.91471546       1.91545682       3.06676198       0.00000000 NULL
P        2.67729834       5.62989548       3.61773969       0.00000000 NULL
P        0.11420975       3.32527330       6.43602163       0.00000000 NULL
P        4.58904399      -0.02060695       0.71217297       0.00000000 NULL
P        2.35162687      -3.30466516       6.47171459       0.00000000 NULL
P        1.69552202       5.81065244       0.84702992       0.00000000 NULL
P        6.17035626       1.75995331       1.35426735       0.00000000 NULL
P        3.93293914       4.22458338       4.60865699       0.00000000 NULL
P        2.89359859       1.36922394       3.28660913       0.00000000 NULL
P        0.65618147      -1.77005350       3.98086766       0.00000000 NULL
P        5.13101571       0.40083074       6.35243241       0.00000000 NULL
P        4.91264171       2.47295826       5.86817111       0.00000000 NULL
P        2.67522460      -0.08622240       1.73422471       0.00000000 NULL
P        0.43780748      -2.38673467       6.01751337       0.00000000 NULL
15
Lattice="6.777754992353399 0.0 0.0 0.0 7.906073489206905 -1.6917706201663303e-16 0.0 -3.9530367446034527 6.846860485839856" Properties=species:S:1:pos:R:3:initial_magmoms:R:1:castep_labels:S:1 n_minim_iter=10 pbc="T T T"
P        0.44526123       4.26833523       0.12597353       0.00000000 NULL
P        4.96376456       1.92796620       3.08738699       0.00000000 NULL
P        2.70451289       5.66281000       3.63349930       0.00000000 NULL
P        0.11958882       3.34010621       6.47126582       0.00000000 NULL
P        4.63809215      -0.01880846       0.71861075       0.00000000 NULL
P        2.37884048      -3.32129655       6.50384372       0.00000000 NULL
P        1.70945311       5.84257366       0.85048129       0.00000000 NULL
P        6.22795644       1.76828912       1.36180264       0.00000000 NULL
P        3.96870478       4.24824866       4.63457588       0.00000000 NULL
P        2.91975831       1.37836117       3.30543319       0.00000000 NULL
P        0.66050665      -1.77962742       4.00044811       0.00000000 NULL
P        5.17900998       0.40126745       6.38783900       0.00000000 NULL
P        4.95992506       2.48534137       5.89872842       0.00000000 NULL
P        2.70067340      -0.08725798       1.74512753       0.00000000 NULL
P        0.44142173      -2.39808219       6.04986435       0.00000000 NULL
15
Lattice="6.764102562094903 0.0 0.0 0.0 7.898022524356381 1.915041203118527e-15 0.0 -3.949011262178192 6.839888145754324" Properties=species:S:1:pos:R:3:initial_magmoms:R:1:castep_labels:S:1 n_minim_iter=11 pbc="T T T"
P        0.44476612       4.26033270       0.12565900       0.00000000 NULL
P        4.95416783       1.92766959       3.08750231       0.00000000 NULL
P        2.69946698       5.65903270       3.62672616       0.00000000 NULL
P        0.12262801       3.33416221       6.46487990       0.00000000 NULL
P        4.63202972      -0.01734135       0.71997903       0.00000000 NULL
P        2.37732886      -3.31681966       6.49491668       0.00000000 NULL
P        1.70336606       5.83684938       0.84838708       0.00000000 NULL
P        6.21276776       1.76531213       1.36083477       0.00000000 NULL
P        3.95806691       4.24487347       4.63066562       0.00000000 NULL
P        2.91281560       1.37840881       3.30249331       0.00000000 NULL
P        0.65811475      -1.77817177       3.99490446       0.00000000 NULL
P        5.16751645       0.39976416       6.38237785       0.00000000 NULL
P        4.94995758       2.48201061       5.89213967       0.00000000 NULL
P        2.69525672      -0.08727313       1.74433408       0.00000000 NULL
P        0.44055587      -2.39473628       6.04330187       0.00000000 NULL
15
Lattice="6.757314954229928 0.0 0.0 0.0 7.896538825230839 -5.01834135201686e-16 0.0 -3.948269412615419 6.838603224620034" Properties=species:S:1:pos:R:3:initial_magmoms:R:1:castep_labels:S:1 n_minim_iter=12 pbc="T T T"
P        0.44486212       4.25519596       0.12540102       0.00000000 NULL
P        4.94973875       1.92927270       3.09079492       0.00000000 NULL
P        2.69730043       5.66034078       3.62240660       0.00000000 NULL
P        0.12638311       3.33054191       6.46385848       0.00000000 NULL
P        4.63125975      -0.01567392       0.72234010       0.00000000 NULL
P        2.37882143      -3.31486679       6.49100720       0.00000000 NULL
P        1.69860690       5.83605264       0.84679604       0.00000000 NULL
P        6.20348353       1.76359077       1.36103537       0.00000000 NULL
P        3.95104522       4.24516603       4.63077114       0.00000000 NULL
P        2.90853220       1.37986174       3.30244862       0.00000000 NULL
P        0.65609388      -1.77819509       3.99238361       0.00000000 NULL
P        5.16097052       0.39833455       6.38237355       0.00000000 NULL
P        4.94498029       2.48061358       5.89032844       0.00000000 NULL
P        2.69254198      -0.08740135       1.74516463       0.00000000 NULL
P        0.44010366      -2.39321104       6.04171270       0.00000000 NULL
15
Lattice="6.7041270662058565 0.0 0.0 0.0 7.894390148427307 8.916496906089107e-16 0.0 -3.9471950742136546 6.836742415923652" Properties=species:S:1:pos:R:3:initial_magmoms:R:1:castep_labels:S:1 n_minim_iter=13 pbc="T T T"
P        0.44549950       4.22127173       0.12349612       0.00000000 NULL
P        4.91491754       1.94351078       3.11926581       0.00000000 NULL
P        2.68020852       5.67680391       3.59397982       0.00000000 NULL
P        0.15427183       3.30728553       6.46308409       0.00000000 NULL
P        4.62368988      -0.00364204       0.74100710       0.00000000 NULL
P        2.38898085      -3.30364229       6.46939298       0.00000000 NULL
P        1.66235972       5.83683079       0.83555250       0.00000000 NULL
P        6.13177777       1.75239016       1.36412244       0.00000000 NULL
P        3.89706874       4.25236547       4.63706681       0.00000000 NULL
P        2.87528344       1.39234699       3.30590789       0.00000000 NULL
P        0.64057442      -1.78036756       3.97798061       0.00000000 NULL
P        5.10999246       0.38802176       6.38959565       0.00000000 NULL
P        4.90626752       2.47297796       5.88379524       0.00000000 NULL
P        2.67155850      -0.08816711       1.75318306       0.00000000 NULL
P        0.43684948      -2.38480965       6.03650585       0.00000000 NULL
15
Lattice="6.560884884867204 0.0 0.0 0.0 7.947956759038908 -2.155446882909056e-15 0.0 -3.973978379519452 6.883132461507929" Properties=species:S:1:pos:R:3:initial_magmoms:R:1:castep_labels:S:1 n_minim_iter=14 pbc="T T T"
P        0.44486363       4.19037439       0.12026918       0.00000000 NULL
P        4.81878688       1.98294815       3.19402720       0.00000000 NULL
P        2.63182525       5.74861380       3.56883540       0.00000000 NULL
P        0.19929920       3.29331018       6.50229963       0.00000000 NULL
P        4.57322246       0.01052399       0.77989238       0.00000000 NULL
P        2.38626083      -3.30383296       6.48407224       0.00000000 NULL
P        1.58618454       5.88123354       0.81859680       0.00000000 NULL
P        5.96010780       1.74228803       1.38053642       0.00000000 NULL
P        3.77314617       4.29841477       4.68399857       0.00000000 NULL
P        2.79334344       1.42368113       3.33534423       0.00000000 NULL
P        0.60638181      -1.79732531       3.98251633       0.00000000 NULL
P        4.98030507       0.37364539       6.44840368       0.00000000 NULL
P        4.80539519       2.47680807       5.91974953       0.00000000 NULL
P        2.61843356      -0.08572814       1.77827900       0.00000000 NULL
P        0.43147193      -2.39107872       6.06823572       0.00000000 NULL
15
Lattice="6.699164147998462 0.0 0.0 0.0 7.968210692660548 1.6763079848190005e-16 0.0 -3.9841053463302742 6.90067288255083" Properties=species:S:1:pos:R:3:initial_magmoms:R:1:castep_labels:S:1 n_minim_iter=15 pbc="T T T"
P        0.46712683       4.16207183       0.11964681       0.00000000 NULL
P        4.93323626       2.00668741       3.23638955       0.00000000 NULL
P        2.70018154       5.78355801       3.54463585       0.00000000 NULL
P        0.23487193       3.28377748       6.50790892       0.00000000 NULL
P        4.70098136       0.01002116       0.80288371       0.00000000 NULL
P        2.46792665      -3.29379744       6.49055245       0.00000000 NULL
P        1.59214632       5.89665015       0.80346262       0.00000000 NULL
P        6.05825575       1.73160012       1.39229276       0.00000000 NULL
P        3.82520104       4.32406699       4.70491682       0.00000000 NULL
P        2.83262130       1.43720707       3.34527266       0.00000000 NULL
P        0.59956658      -1.80561697       3.98337873       0.00000000 NULL
P        5.06567601       0.36841111       6.47269369       0.00000000 NULL
P        4.90948053       2.46851972       5.93498005       0.00000000 NULL
P        2.67642581      -0.07852091       1.79538208       0.00000000 NULL
P        0.44337109      -2.38999760       6.07098295       0.00000000 NULL
15
Lattice="6.5087725653154465 0.0 0.0 0.0 7.910461669380335 -1.0409041059454856e-15 0.0 -3.955230834690167 6.850660761346427" Properties=species:S:1:pos:R:3:initial_magmoms:R:1:castep_labels:S:1 n_minim_iter=16 pbc="T T T"
P        0.45295320       4.12831506       0.11806180       0.00000000 NULL
P        4.79213491       1.99331862       3.21640415       0.00000000 NULL
P        2.62254405       5.74406002       3.51619413       0.00000000 NULL
P        0.23038556       3.25823084       6.45889443       0.00000000 NULL
P        4.56956727       0.00922119       0.79950288       0.00000000 NULL
P        2.39997641      -3.26745083       6.44292354       0.00000000 NULL
P        1.54329625       5.85344266       0.79531615       0.00000000 NULL
P        5.88247796       1.71727429       1.38377265       0.00000000 NULL
P        3.71288711       4.29497675       4.67157129       0.00000000 NULL
P        2.75254908       1.42873607       3.32079178       0.00000000 NULL
P        0.58295823      -1.79370804       3.95294315       0.00000000 NULL
P        4.92213994       0.36497316       6.42758592       0.00000000 NULL
P        4.77183067       2.44935734       5.89255792       0.00000000 NULL
P        2.60223982      -0.07680386       1.78317613       0.00000000 NULL
P        0.43264896      -2.37255228       6.02558680       0.00000000 NULL
15
Lattice="6.531117677973408 0.0 0.0 0.0 7.952469732048304 -5.626868018895295e-16 0.0 -3.976234866024152 6.8870408107806576" Properties=species:S:1:pos:R:3:initial_magmoms:R:1:castep_labels:S:1 n_minim_iter=17 pbc="T T T"
P        0.45523013       4.14676423       0.11841803       0.00000000 NULL
P        4.80930859       2.00540658       3.23662863       0.00000000 NULL
P        2.63226936       5.77653500       3.53199346       0.00000000 NULL
P        0.23344562       3.27427797       6.49159021       0.00000000 NULL
P        4.58752407       0.00850898       0.80563782       0.00000000 NULL
P        2.41048485      -3.28278574       6.47685292       0.00000000 NULL
P        1.54669576       5.88426089       0.79834118       0.00000000 NULL
P        5.90077422       1.72548896       1.39195082       0.00000000 NULL
P        3.72373499       4.31895595       4.69674814       0.00000000 NULL
P        2.76055834       1.43769778       3.33884291       0.00000000 NULL
P        0.58351912      -1.80356018       3.97253657       0.00000000 NULL
P        4.93759757       0.36586360       6.46270147       0.00000000 NULL
P        4.78856087       2.46125913       5.92362155       0.00000000 NULL
P        2.61152165      -0.07685689       1.79371711       0.00000000 NULL
P        0.43448242      -2.38440104       6.05674228       0.00000000 NULL
15
Lattice="6.515123706842688 0.0 0.0 0.0 7.962599699934991 -1.4591091863508712e-15 0.0 -3.9812998499674945 6.895813620310049" Properties=species:S:1:pos:R:3:initial_magmoms:R:1:castep_labels:S:1 n_minim_iter=18 pbc="T T T"
P        0.45463168       4.14897866       0.11830391       0.00000000 NULL
P        4.79804749       2.00926551       3.24354075       0.00000000 NULL
P        2.62633959       5.78565658       3.53396828       0.00000000 NULL
P        0.23494789       3.27726264       6.49833360       0.00000000 NULL
P        4.57836369       0.00779161       0.80845413       0.00000000 NULL
P        2.40665579      -3.28505304       6.48483883       0.00000000 NULL
P        1.54083851       5.89142017       0.79802342       0.00000000 NULL
P        5.88425431       1.72669912       1.39468239       0.00000000 NULL
P        3.71254641       4.32578147       4.70310713       0.00000000 NULL
P        2.75276475       1.44071758       3.34323848       0.00000000 NULL
P        0.58105685      -1.80632838       3.97649636       0.00000000 NULL
P        4.92447265       0.36561201       6.47189171       0.00000000 NULL
P        4.77734679       2.46320274       5.93113661       0.00000000 NULL
P        2.60563889      -0.07638545       1.79704918       0.00000000 NULL
P        0.43393099      -2.38681609       6.06344078       0.00000000 NULL
15
Lattice="6.494543092899427 0.0 0.0 0.0 7.983442612169868 1.6066088837730776e-15 0.0 -3.9917213060849357 6.9138641117943" Properties=species:S:1:pos:R:3:initial_magmoms:R:1:castep_labels:S:1 n_minim_iter=19 pbc="T T T"
P        0.45460775       4.15291048       0.11809677       0.00000000 NULL
P        4.78430315       2.01754167       3.25828977       0.00000000 NULL
P        2.61945545       5.80471298       3.53747690       0.00000000 NULL
P        0.23895342       3.28322083       6.51181642       0.00000000 NULL
P        4.56864881       0.00606753       0.81460326       0.00000000 NULL
P        2.40380111      -3.28928715       6.50130786       0.00000000 NULL
P        1.53132685       5.90601492       0.79709458       0.00000000 NULL
P        5.86102225       1.72901881       1.40055788       0.00000000 NULL
P        3.69617455       4.34013141       4.71621097       0.00000000 NULL
P        2.74153740       1.44703407       3.35225407       0.00000000 NULL
P        0.57668970      -1.81210035       3.98456882       0.00000000 NULL
P        4.90638509       0.36506749       6.49090465       0.00000000 NULL
P        4.76327168       2.46677295       5.94654064       0.00000000 NULL
P        2.59842398      -0.07525172       1.80430576       0.00000000 NULL
P        0.43357628      -2.39152002       6.07688115       0.00000000 NULL
15
Lattice="6.466929785751951 0.0 0.0 0.0 8.002378084205963 1.8003145818806496e-16 0.0 -4.0011890421029825 6.930262711610209" Properties=species:S:1:pos:R:3:initial_magmoms:R:1:castep_labels:S:1 n_minim_iter=20 pbc="T T T"
P        0.45627244       4.14797434       0.11746468       0.00000000 NULL
P        4.76755896       2.02893007       3.27927922       0.00000000 NULL
P        2.61191570       5.82666392       3.53351812       0.00000000 NULL
P        0.24829330       3.28554997       6.51923863       0.00000000 NULL
P        4.55957983       0.00186305       0.82527366       0.00000000 NULL
P        2.40393657      -3.28741180       6.51601244       0.00000000 NULL
P        1.51468555       5.91788237       0.79234237       0.00000000 NULL
P        5.82597207       1.72843729       1.40905507       0.00000000 NULL
P        3.67032881       4.35724869       4.72886459       0.00000000 NULL
P        2.72411860       1.45555966       3.36044767       0.00000000 NULL
P        0.56847534      -1.81873502       3.98948724       0.00000000 NULL
P        4.87976186       0.36317657       6.51058983       0.00000000 NULL
P        4.74495877       2.46571996       5.96028558       0.00000000 NULL
P        2.58931550      -0.07228950       1.81474381       0.00000000 NULL
P        0.43367224      -2.39342925       6.08549536       0.00000000 NULL
