24
Lattice="8.809219999999925 5.788949068620116e-07 9.242869076211943e-07 -5.788949068620075e-07 8.809219999999984 -7.539615699286086e-14 -4.404610448429108 -4.4046113167714855 7.032575500052177" Properties=species:S:1:pos:R:3:initial_magmoms:R:1:castep_labels:S:1 n_minim_iter=1 pbc="T T T"
P        3.51144256      -1.38546451       2.64580946       0.00000000 NULL
P       -0.89316809       5.79007278       4.38676538       0.00000000 NULL
P        5.71083655       6.06834269       2.20302886       0.00000000 NULL
P        1.30622678      -1.66373413       4.82954644       0.00000000 NULL
P       -1.52891981       4.12330650       5.37211640       0.00000000 NULL
P        2.87569083       0.28130168       1.66045831       0.00000000 NULL
P        5.14372531       3.40260907       0.45089837       0.00000000 NULL
P        0.73911483       1.00199941       6.58167681       0.00000000 NULL
P        0.31139688       6.40807692       2.42297351       0.00000000 NULL
P        4.71600720      -2.00346849       4.60960158       0.00000000 NULL
P        2.52774058       5.90766339       3.82275244       0.00000000 NULL
P       -1.87686887      -1.50305525       3.20982220       0.00000000 NULL
P        6.21671693       4.91757338       3.77728722       0.00000000 NULL
P        1.81210734      -0.51296476       3.25528818       0.00000000 NULL
P       -0.39310843      -2.04451166       6.20298513       0.00000000 NULL
P        4.01150158       6.44911999       0.82958981       0.00000000 NULL
P       -0.08023381       2.41466071       1.46819228       0.00000000 NULL
P        4.32437579       1.98994766       5.56438273       0.00000000 NULL
P        6.54547382       0.90837590       3.18902353       0.00000000 NULL
P        2.14086358       3.49623277       3.84355195       0.00000000 NULL
P        2.84151425       1.40727116       4.15640108       0.00000000 NULL
P       -1.56309572       2.99733702       2.87617362       0.00000000 NULL
P        0.62041728       2.59204053       4.79745953       0.00000000 NULL
P        5.02502760       1.81256794       2.23511563       0.00000000 NULL
24
Lattice="8.836330317775058 5.806764522227228e-07 9.271313946064929e-07 -5.806887254701806e-07 8.846162907802272 -0.006041325725708615 -4.4181656086743715 -4.427905686648991 7.060105096563422" Properties=species:S:1:pos:R:3:initial_magmoms:R:1:castep_labels:S:1 n_minim_iter=2 pbc="T T T"
P        3.52263014      -1.39322740       2.65604691       0.00000000 NULL
P       -0.89553568       5.81148420       4.39801620       0.00000000 NULL
P        5.72824775       6.09225429       2.20616409       0.00000000 NULL
P        1.31008283      -1.67399719       4.84789948       0.00000000 NULL
P       -1.53357824       4.13661953       5.38829487       0.00000000 NULL
P        2.88458756       0.28163719       1.66576810       0.00000000 NULL
P        5.15972990       3.41661470       0.45034361       0.00000000 NULL
P        0.74156425       1.00164232       6.60371984       0.00000000 NULL
P        0.31230863       6.43325894       2.42700892       0.00000000 NULL
P        4.73047411      -2.01500198       4.62705444       0.00000000 NULL
P        2.53570473       5.92943365       3.83200900       0.00000000 NULL
P       -1.88245988      -1.51117698       3.22205390       0.00000000 NULL
P        6.23547673       4.93523867       3.78710019       0.00000000 NULL
P        1.81731198      -0.51698151       3.26696349       0.00000000 NULL
P       -0.39450704      -2.05742013       6.22599850       0.00000000 NULL
P        4.02365812       6.47567700       0.82806472       0.00000000 NULL
P       -0.08049714       2.42380398       1.47166314       0.00000000 NULL
P        4.33766762       1.99445293       5.58240014       0.00000000 NULL
P        6.56577327       0.90997888       3.19963085       0.00000000 NULL
P        2.14760787       3.50827832       3.85443289       0.00000000 NULL
P        2.85028867       1.41039573       4.16994879       0.00000000 NULL
P       -1.56787646       3.00786099       2.88411418       0.00000000 NULL
P        0.62214112       2.59954733       4.81248313       0.00000000 NULL
P        5.04030660       1.81870967       2.24158029       0.00000000 NULL
24
Lattice="9.15291394161803 6.014806374047339e-07 9.603481947209594e-07 -6.020380079109537e-07 9.287676708675551 -0.07909176869131829 -4.576457436422895 -4.706980274059018 7.385738500318721" Properties=species:S:1:pos:R:3:initial_magmoms:R:1:castep_labels:S:1 n_minim_iter=3 pbc="T T T"
P        3.65354878      -1.48631350       2.77714514       0.00000000 NULL
P       -0.92290887       6.06700950       4.52950091       0.00000000 NULL
P        5.93144722       6.37783722       2.24166031       0.00000000 NULL
P        1.35499049      -1.79714092       5.06498622       0.00000000 NULL
P       -1.58791632       4.29506756       5.57841066       0.00000000 NULL
P        2.98854131       0.28562835       1.72823524       0.00000000 NULL
P        5.34676173       3.58396454       0.44322547       0.00000000 NULL
P        0.77030425       0.99673169       6.86342093       0.00000000 NULL
P        0.32290373       6.73399194       2.47338104       0.00000000 NULL
P        4.89936104      -2.15329577       4.83326527       0.00000000 NULL
P        2.62887559       6.18899515       3.94004091       0.00000000 NULL
P       -1.94758081      -1.60829928       3.36660492       0.00000000 NULL
P        6.45422432       5.14569430       3.90197870       0.00000000 NULL
P        1.87776777      -0.56499793       3.40466794       0.00000000 NULL
P       -0.41095552      -2.21232795       6.49786734       0.00000000 NULL
P        4.16550146       6.79302402       0.80877881       0.00000000 NULL
P       -0.08362924       2.53299008       1.51215503       0.00000000 NULL
P        4.49282731       2.04770603       5.79449119       0.00000000 NULL
P        6.80290713       0.92894821       3.32461397       0.00000000 NULL
P        2.22644992       3.65174820       3.98203274       0.00000000 NULL
P        2.95278540       1.44749836       4.32950784       0.00000000 NULL
P       -1.62367154       3.13319755       2.97713806       0.00000000 NULL
P        0.64218171       2.68878422       4.98919741       0.00000000 NULL
P        5.21863901       1.89191198       2.31744896       0.00000000 NULL
24
Lattice="9.162931591463774 6.021389438429064e-07 9.613992733434018e-07 -6.066332499355476e-07 9.413251442624949 -0.11394466544387159 -4.581466264637481 -4.797591418373865 7.473862390500725" Properties=species:S:1:pos:R:3:initial_magmoms:R:1:castep_labels:S:1 n_minim_iter=4 pbc="T T T"
P        3.66054390      -1.51707241       2.80996740       0.00000000 NULL
P       -0.92092258       6.13273199       4.54994963       0.00000000 NULL
P        5.93677315       6.45550059       2.23680532       0.00000000 NULL
P        1.35530759      -1.83984070       5.12311219       0.00000000 NULL
P       -1.58897151       4.33080186       5.61724009       0.00000000 NULL
P        2.99249496       0.28485764       1.74267680       0.00000000 NULL
P        5.35398508       3.63116578       0.43565671       0.00000000 NULL
P        0.77251878       0.98449403       6.92426068       0.00000000 NULL
P        0.32261295       6.81602863       2.47341405       0.00000000 NULL
P        4.90407908      -2.20036888       4.88650324       0.00000000 NULL
P        2.63350875       6.25525518       3.95516519       0.00000000 NULL
P       -1.94795647      -1.63959573       3.40475162       0.00000000 NULL
P        6.45796361       5.19742836       3.92151208       0.00000000 NULL
P        1.87649825      -0.58176841       3.43840554       0.00000000 NULL
P       -0.41258964      -2.26637086       6.56817098       0.00000000 NULL
P        4.16887617       6.88203051       0.79174615       0.00000000 NULL
P       -0.08448226       2.56227549       1.51798522       0.00000000 NULL
P        4.49698312       2.05338421       5.84193198       0.00000000 NULL
P        6.81113230       0.93096141       3.35343956       0.00000000 NULL
P        2.22966625       3.68469859       4.00647813       0.00000000 NULL
P        2.95631458       1.45340497       4.36617129       0.00000000 NULL
P       -1.62515119       3.16225452       2.99374559       0.00000000 NULL
P        0.64208167       2.70634319       5.02741793       0.00000000 NULL
P        5.22354780       1.90931660       2.33249942       0.00000000 NULL
24
Lattice="9.097948135963517 5.978685781013444e-07 9.545810354960609e-07 -6.076786597662097e-07 9.478628802373182 -0.1449278752899078 -4.548974538735501 -4.855014617893231 7.527441813360553" Properties=species:S:1:pos:R:3:initial_magmoms:R:1:castep_labels:S:1 n_minim_iter=5 pbc="T T T"
P        3.63797032      -1.53699281       2.83015017       0.00000000 NULL
P       -0.91100444       6.16060656       4.55236306       0.00000000 NULL
P        5.89357809       6.49256491       2.22407613       0.00000000 NULL
P        1.34460426      -1.86895087       5.15843758       0.00000000 NULL
P       -1.57676136       4.34071973       5.63268963       0.00000000 NULL
P        2.97221339       0.28289392       1.74982347       0.00000000 NULL
P        5.31751603       3.65566329       0.42750490       0.00000000 NULL
P        0.76854146       0.96795068       6.95500868       0.00000000 NULL
P        0.31943787       6.85564090       2.46557453       0.00000000 NULL
P        4.86841228      -2.23202699       4.91693896       0.00000000 NULL
P        2.61698018       6.28262979       3.95525566       0.00000000 NULL
P       -1.93199331      -1.65901618       3.42725736       0.00000000 NULL
P        6.40820603       5.21676290       3.92600864       0.00000000 NULL
P        1.85923239      -0.59314880       3.45650518       0.00000000 NULL
P       -0.41092576      -2.30366390       6.60881572       0.00000000 NULL
P        4.13804831       6.92727770       0.77369762       0.00000000 NULL
P       -0.08496913       2.57591906       1.51828457       0.00000000 NULL
P        4.46400452       2.04769479       5.86422884       0.00000000 NULL
P        6.76357770       0.92902072       3.36767457       0.00000000 NULL
P        2.21460338       3.69459343       4.01483932       0.00000000 NULL
P        2.93557772       1.45255701       4.38422915       0.00000000 NULL
P       -1.61339632       3.17105664       2.99828394       0.00000000 NULL
P        0.63685554       2.70813028       5.04449096       0.00000000 NULL
P        5.18582995       1.91548366       2.33802259       0.00000000 NULL
24
Lattice="8.96022414254178 5.888180925620808e-07 9.40130666059219e-07 -6.074574696633601e-07 9.533085423046451 -0.18114300737027725 -4.48011254553981 -4.91115419204402 7.596105441737211" Properties=species:S:1:pos:R:3:initial_magmoms:R:1:castep_labels:S:1 n_minim_iter=6 pbc="T T T"
P        3.58893698      -1.55679017       2.85664193       0.00000000 NULL
P       -0.89117578       6.17872095       4.55831978       0.00000000 NULL
P        5.80276387       6.52023586       2.20916368       0.00000000 NULL
P        1.32265204      -1.89830478       5.20579850       0.00000000 NULL
P       -1.55103355       4.34123267       5.65555666       0.00000000 NULL
P        2.92907919       0.28069803       1.75940491       0.00000000 NULL
P        5.23958336       3.67685833       0.41902118       0.00000000 NULL
P        0.75947077       0.94507267       6.99594088       0.00000000 NULL
P        0.31287753       6.88654485       2.45956412       0.00000000 NULL
P        4.79298994      -2.26461391       4.95539784       0.00000000 NULL
P        2.58137752       6.29808145       3.95882827       0.00000000 NULL
P       -1.89873397      -1.67615080       3.45613323       0.00000000 NULL
P        6.30382597       5.22474899       3.93525212       0.00000000 NULL
P        1.82371433      -0.60281785       3.47971016       0.00000000 NULL
P       -0.40696432      -2.34234181       6.66163432       0.00000000 NULL
P        4.07314775       6.96427265       0.75332749       0.00000000 NULL
P       -0.08556036       2.58636121       1.52042587       0.00000000 NULL
P        4.39455128       2.03556968       5.89453601       0.00000000 NULL
P        6.66254567       0.92628077       3.38708591       0.00000000 NULL
P        2.18243335       3.69565042       4.02787645       0.00000000 NULL
P        2.89129119       1.45059557       4.40909807       0.00000000 NULL
P       -1.58882085       3.17133512       3.00586350       0.00000000 NULL
P        0.62606720       2.70321267       5.06874061       0.00000000 NULL
P        5.10617961       1.91871831       2.34622142       0.00000000 NULL
24
Lattice="8.752846909434522 5.751903679812294e-07 9.183720924841651e-07 -6.078309377194242e-07 9.588865771240334 -0.21251962511450562 -4.376423941525783 -4.964092945357137 7.748774594396097" Properties=species:S:1:pos:R:3:initial_magmoms:R:1:castep_labels:S:1 n_minim_iter=7 pbc="T T T"
P        3.51888913      -1.57551763       2.91670227       0.00000000 NULL
P       -0.85753501       6.20029000       4.61955194       0.00000000 NULL
P        5.66607134       6.54774479       2.21807787       0.00000000 NULL
P        1.28964811      -1.92297214       5.31817679       0.00000000 NULL
P       -1.51082813       4.34272314       5.74775561       0.00000000 NULL
P        2.86559601       0.28204915       1.78849846       0.00000000 NULL
P        5.12335233       3.70259256       0.42007582       0.00000000 NULL
P        0.74692836       0.92218002       7.11617873       0.00000000 NULL
P        0.30170117       6.92154016       2.48967575       0.00000000 NULL
P        4.67812496      -2.29676764       5.04657870       0.00000000 NULL
P        2.53039439       6.31058211       4.01317198       0.00000000 NULL
P       -1.84602849      -1.68580987       3.52308202       0.00000000 NULL
P        6.14126769       5.22779803       3.99561133       0.00000000 NULL
P        1.76484467      -0.60302532       3.54064343       0.00000000 NULL
P       -0.40252299      -2.37871512       6.78967854       0.00000000 NULL
P        3.97390048       7.00348754       0.74657576       0.00000000 NULL
P       -0.08671722       2.59966205       1.54325975       0.00000000 NULL
P        4.28970580       2.02511042       5.99299462       0.00000000 NULL
P        6.51164824       0.93029925       3.44699183       0.00000000 NULL
P        2.13522454       3.69447351       4.08926301       0.00000000 NULL
P        2.82399891       1.45876626       4.48644828       0.00000000 NULL
P       -1.55242451       3.16600601       3.04980579       0.00000000 NULL
P        0.60863508       2.69946705       5.15425595       0.00000000 NULL
P        4.98505888       1.92530551       2.38199856       0.00000000 NULL
24
Lattice="8.558039852634154 5.62388688276187e-07 8.979324155020659e-07 -6.0206511729395e-07 9.470953389055957 -0.193622357543008 -4.279020434115263 -4.890050668641578 7.902449701999415" Properties=species:S:1:pos:R:3:initial_magmoms:R:1:castep_labels:S:1 n_minim_iter=8 pbc="T T T"
P        3.45577249      -1.55168497       2.97931000       0.00000000 NULL
P       -0.82324812       6.13258723       4.72951654       0.00000000 NULL
P        5.53924734       6.46643834       2.26744508       0.00000000 NULL
P        1.26022763      -1.88553580       5.44138190       0.00000000 NULL
P       -1.47166181       4.29428360       5.88315286       0.00000000 NULL
P        2.80735881       0.28661857       1.82567354       0.00000000 NULL
P        5.01387713       3.66668052       0.44113673       0.00000000 NULL
P        0.73485667       0.91422195       7.26769014       0.00000000 NULL
P        0.28975187       6.84534881       2.56547764       0.00000000 NULL
P        4.56877212      -2.26444641       5.14334913       0.00000000 NULL
P        2.48425324       6.22884065       4.11653439       0.00000000 NULL
P       -1.79476612      -1.64793852       3.59229194       0.00000000 NULL
P        5.98425563       5.15473784       4.09838962       0.00000000 NULL
P        1.70523613      -0.57383524       3.61043744       0.00000000 NULL
P       -0.39887428      -2.33941409       6.92996061       0.00000000 NULL
P        3.88014568       6.92031641       0.77886602       0.00000000 NULL
P       -0.08732977       2.57402807       1.58509794       0.00000000 NULL
P        4.19168972       2.00687429       6.12372875       0.00000000 NULL
P        6.37108605       0.93477280       3.52544238       0.00000000 NULL
P        2.09206587       3.64612985       4.18338477       0.00000000 NULL
P        2.75994300       1.46498924       4.58798867       0.00000000 NULL
P       -1.51907688       3.11591293       3.12083772       0.00000000 NULL
P        0.59059223       2.67124493       5.27329018       0.00000000 NULL
P        4.86961251       1.90965752       2.43553665       0.00000000 NULL
24
Lattice="8.558430560099731 5.624143634941441e-07 8.979734095453334e-07 -6.033636482154565e-07 9.520668220859624 -0.21238343497852752 -4.279215799098942 -4.9298854325247605 8.034629122549067" Properties=species:S:1:pos:R:3:initial_magmoms:R:1:castep_labels:S:1 n_minim_iter=9 pbc="T T T"
P        3.46188588      -1.56562186       3.02992874       0.00000000 NULL
P       -0.81733009       6.15640419       4.79231612       0.00000000 NULL
P        5.53951738       6.49423580       2.28671100       0.00000000 NULL
P        1.26030231      -1.90345320       5.53553429       0.00000000 NULL
P       -1.46960729       4.30428534       5.96954364       0.00000000 NULL
P        2.80960869       0.28649690       1.85270109       0.00000000 NULL
P        5.01542605       3.68825998       0.44256206       0.00000000 NULL
P        0.73621023       0.90252256       7.37968313       0.00000000 NULL
P        0.28771624       6.87835987       2.59533808       0.00000000 NULL
P        4.56693184      -2.28757740       5.22690701       0.00000000 NULL
P        2.48807646       6.24994431       4.17212494       0.00000000 NULL
P       -1.79113825      -1.65916211       3.65011971       0.00000000 NULL
P        5.97659689       5.16838379       4.15587367       0.00000000 NULL
P        1.69738204      -0.57760113       3.66637172       0.00000000 NULL
P       -0.40069996      -2.36476330       7.04334575       0.00000000 NULL
P        3.87851536       6.95554568       0.77889920       0.00000000 NULL
P       -0.08781213       2.58576465       1.60633507       0.00000000 NULL
P        4.19140271       2.00501777       6.21590994       0.00000000 NULL
P        6.37320361       0.93568553       3.58123023       0.00000000 NULL
P        2.09398808       3.65509719       4.24101524       0.00000000 NULL
P        2.75996682       1.46948826       4.65889627       0.00000000 NULL
P       -1.51924842       3.12129398       3.16334844       0.00000000 NULL
P        0.58803695       2.67397621       5.35305861       0.00000000 NULL
P        4.86725259       1.91680630       2.46918654       0.00000000 NULL
24
Lattice="8.491742320019126 5.580319684027377e-07 8.909763011464052e-07 -6.00009197549153e-07 9.468526598425816 -0.21169704008612994 -4.245871682254442 -4.90326665030816 8.04841601914327" Properties=species:S:1:pos:R:3:initial_magmoms:R:1:castep_labels:S:1 n_minim_iter=10 pbc="T T T"
P        3.43759074      -1.55725321       3.03598119       0.00000000 NULL
P       -0.80828111       6.12251270       4.80073695       0.00000000 NULL
P        5.49641002       6.45786001       2.28896553       0.00000000 NULL
P        1.25053907      -1.89260025       5.54775304       0.00000000 NULL
P       -1.45705869       4.27982878       5.98086264       0.00000000 NULL
P        2.78881317       0.28543063       1.85585537       0.00000000 NULL
P        4.97680629       3.66981027       0.44361024       0.00000000 NULL
P        0.73093458       0.89544942       7.39310823       0.00000000 NULL
P        0.28434810       6.84176732       2.60146469       0.00000000 NULL
P        4.53021958      -2.27650768       5.23525368       0.00000000 NULL
P        2.47052391       6.21411179       4.18116322       0.00000000 NULL
P       -1.77534668      -1.64885243       3.65555472       0.00000000 NULL
P        5.92644367       5.13744925       4.16504646       0.00000000 NULL
P        1.68057294      -0.57218943       3.67167221       0.00000000 NULL
P       -0.39819669      -2.35226925       7.05605972       0.00000000 NULL
P        3.84767452       6.91752880       0.78065851       0.00000000 NULL
P       -0.08747950       2.57208706       1.61003699       0.00000000 NULL
P        4.15839121       1.99317253       6.22668131       0.00000000 NULL
P        6.32415191       0.93191561       3.58843799       0.00000000 NULL
P        2.07828050       3.63334426       4.24828075       0.00000000 NULL
P        2.73835993       1.46402279       4.66826795       0.00000000 NULL
P       -1.50751118       3.10123661       3.16845005       0.00000000 NULL
P        0.58249604       2.65844427       5.36340154       0.00000000 NULL
P        4.82836756       1.90681541       2.47331689       0.00000000 NULL
24
Lattice="8.46047290764787 5.559771095687598e-07 8.876954308262781e-07 -5.985440497817088e-07 9.453749939210562 -0.21640626639553234 -4.230236980805016 -4.899637787204128 8.091283141608548" Properties=species:S:1:pos:R:3:initial_magmoms:R:1:castep_labels:S:1 n_minim_iter=11 pbc="T T T"
P        3.42784125      -1.55651873       3.05275983       0.00000000 NULL
P       -0.80239589       6.11063042       4.82211620       0.00000000 NULL
P        5.47622022       6.44571062       2.29539179       0.00000000 NULL
P        1.24598397      -1.89159865       5.57948466       0.00000000 NULL
P       -1.45058601       4.26942407       6.01005345       0.00000000 NULL
P        2.77965114       0.28468754       1.86482245       0.00000000 NULL
P        4.95898319       3.66562161       0.44437979       0.00000000 NULL
P        0.72874618       0.88849029       7.43049656       0.00000000 NULL
P        0.28218383       6.83090133       2.61255428       0.00000000 NULL
P        4.51242061      -2.27678949       5.26232198       0.00000000 NULL
P        2.46331740       6.20061975       4.20096714       0.00000000 NULL
P       -1.76691849      -1.64650818       3.67390869       0.00000000 NULL
P        5.90076616       5.12460783       4.18537695       0.00000000 NULL
P        1.67053014      -0.57049581       3.68949960       0.00000000 NULL
P       -0.39745142      -2.35237438       7.09335118       0.00000000 NULL
P        3.83278509       6.90648613       0.78152494       0.00000000 NULL
P       -0.08740232       2.56782114       1.61768777       0.00000000 NULL
P        4.14283369       1.98629065       6.25718841       0.00000000 NULL
P        6.30156676       0.92985950       3.60734694       0.00000000 NULL
P        2.07133006       3.62425257       4.26752969       0.00000000 NULL
P        2.72824406       1.46197750       4.69239312       0.00000000 NULL
P       -1.50199234       3.09213410       3.18248277       0.00000000 NULL
P        0.57915856       2.65086226       5.39034464       0.00000000 NULL
P        4.80939537       1.90324962       2.48453168       0.00000000 NULL
24
Lattice="8.059836481285501 5.296494226536628e-07 8.45659586307946e-07 -5.779412508094078e-07 9.243733669070036 -0.2812316344045407 -4.029918830524128 -4.846380998232915 8.657419577377555" Properties=species:S:1:pos:R:3:initial_magmoms:R:1:castep_labels:S:1 n_minim_iter=12 pbc="T T T"
P        3.30172832      -1.54542867       3.27471750       0.00000000 NULL
P       -0.72819061       5.94278090       5.10146947       0.00000000 NULL
P        5.21752134       6.27496367       2.37622022       0.00000000 NULL
P        1.18760325      -1.87761119       5.99996716       0.00000000 NULL
P       -1.36809936       4.12442688       6.39324367       0.00000000 NULL
P        2.66181959       0.27292527       1.98294317       0.00000000 NULL
P        4.73000421       3.60389698       0.45200264       0.00000000 NULL
P        0.70008537       0.79345543       7.92418463       0.00000000 NULL
P        0.25480875       6.67582730       2.75598460       0.00000000 NULL
P        4.28472728      -2.27847494       5.62020257       0.00000000 NULL
P        2.37021938       6.01287243       4.46157340       0.00000000 NULL
P       -1.65969830      -1.61552032       3.91461338       0.00000000 NULL
P        5.57358132       4.94732531       4.45317383       0.00000000 NULL
P        1.54366349      -0.54997279       3.92301362       0.00000000 NULL
P       -0.38717824      -2.35217361       7.58614099       0.00000000 NULL
P        3.64274011       6.74952588       0.79004605       0.00000000 NULL
P       -0.08604998       2.50668338       1.71821730       0.00000000 NULL
P        3.94386778       1.89066893       6.65796981       0.00000000 NULL
P        6.01128104       0.89844182       3.85749532       0.00000000 NULL
P        1.98136256       3.49891077       4.51869222       0.00000000 NULL
P        2.59895173       1.42896800       5.01127972       0.00000000 NULL
P       -1.43096644       2.96838414       3.36490711       0.00000000 NULL
P        0.53679719       2.54558277       5.74520107       0.00000000 NULL
P        4.56671580       1.85176962       2.63098617       0.00000000 NULL
24
Lattice="7.743132386354409 5.088373202267518e-07 8.124301461006982e-07 -5.499634287985181e-07 8.86203567114224 -0.3088202148527146 -3.871566791465948 -4.677556458176173 8.631811392627185" Properties=species:S:1:pos:R:3:initial_magmoms:R:1:castep_labels:S:1 n_minim_iter=13 pbc="T T T"
P        3.20175337      -1.49797716       3.27181674       0.00000000 NULL
P       -0.66981348       5.68245596       5.05117345       0.00000000 NULL
P        5.01172041       5.99668028       2.31879608       0.00000000 NULL
P        1.14015434      -1.81220124       6.00419450       0.00000000 NULL
P       -1.30326452       3.93308433       6.34273660       0.00000000 NULL
P        2.56830237       0.25139438       1.98025346       0.00000000 NULL
P        4.54578236       3.47444391       0.42131178       0.00000000 NULL
P        0.67421556       0.71003507       7.90167869       0.00000000 NULL
P        0.23410055       6.40782498       2.72332530       0.00000000 NULL
P        4.10566701      -2.22334607       5.59966508       0.00000000 NULL
P        2.29497630       5.73946997       4.44045284       0.00000000 NULL
P       -1.57658936      -1.55499128       3.88253717       0.00000000 NULL
P        5.31741955       4.70136563       4.43640153       0.00000000 NULL
P        1.44585376      -0.51688655       3.88658911       0.00000000 NULL
P       -0.37385396      -2.28613630       7.56914624       0.00000000 NULL
P        3.49771237       6.47061514       0.75384402       0.00000000 NULL
P       -0.08198492       2.40337528       1.71468604       0.00000000 NULL
P        3.78958080       1.78110360       6.60830428       0.00000000 NULL
P        5.77468345       0.84537976       3.85712663       0.00000000 NULL
P        1.90311703       3.33909938       4.46586411       0.00000000 NULL
P        2.50105844       1.36249022       5.00793915       0.00000000 NULL
P       -1.37050768       2.82198849       3.31505090       0.00000000 NULL
P        0.50132877       2.41733117       5.72036038       0.00000000 NULL
P        4.37289533       1.76714778       2.60263006       0.00000000 NULL
24
Lattice="7.967152201305916 5.235587066636024e-07 8.359349037379922e-07 -5.613290401765225e-07 9.081709548524204 -0.3380816003107926 -3.983576716842897 -4.8107533772639846 8.885847842015728" Properties=species:S:1:pos:R:3:initial_magmoms:R:1:castep_labels:S:1 n_minim_iter=14 pbc="T T T"
P        3.29718676      -1.54244863       3.36796003       0.00000000 NULL
P       -0.68639001       5.81340438       5.17980521       0.00000000 NULL
P        5.15653400       6.13879535       2.36734618       0.00000000 NULL
P        1.17295803      -1.86783935       6.18041944       0.00000000 NULL
P       -1.34042289       4.01711795       6.51351935       0.00000000 NULL
P        2.64315393       0.25383772       2.03424575       0.00000000 NULL
P        4.67800393       3.56052333       0.42622772       0.00000000 NULL
P        0.69442721       0.71043260       8.12153781       0.00000000 NULL
P        0.24070837       6.56150047       2.78309572       0.00000000 NULL
P        4.22428474      -2.29054459       5.76466971       0.00000000 NULL
P        2.36264823       5.86988749       4.55310358       0.00000000 NULL
P       -1.62092732      -1.59893186       3.99466145       0.00000000 NULL
P        5.46774841       4.80571803       4.55126448       0.00000000 NULL
P        1.48417272      -0.53476199       3.99650121       0.00000000 NULL
P       -0.38578800      -2.35933858       7.78836615       0.00000000 NULL
P        3.59778825       6.63029438       0.75939915       0.00000000 NULL
P       -0.08345271       2.45955815       1.75686082       0.00000000 NULL
P        3.90012290       1.81139769       6.79090454       0.00000000 NULL
P        5.94179043       0.85599830       3.96757707       0.00000000 NULL
P        1.95821410       3.41495780       4.58018872       0.00000000 NULL
P        2.57420708       1.38468035       5.14710602       0.00000000 NULL
P       -1.40936893       2.88627531       3.40065906       0.00000000 NULL
P        0.51374964       2.46511238       5.87773721       0.00000000 NULL
P        4.49732612       1.80584353       2.67002827       0.00000000 NULL
24
Lattice="7.926158146306494 5.208647962390006e-07 8.316336979219649e-07 -5.594944850281927e-07 9.043701191509298 -0.33176122034714145 -3.963079688390795 -4.78670350763781 8.861707972968107" Properties=species:S:1:pos:R:3:initial_magmoms:R:1:castep_labels:S:1 n_minim_iter=15 pbc="T T T"
P        3.28171118      -1.53454932       3.35973644       0.00000000 NULL