13
Lattice="6.789612479820985 -0.2956347275279316 0.08942537847782613 -0.14496727527127132 4.404499378515818 1.4586743509571363 2.159842490797226 4.3519426050238295 10.317518777176492" Properties=species:S:1:pos:R:3:initial_magmoms:R:1:castep_labels:S:1:forces:R:3 n_minim_iter=1 energy=-70.778042067877 stress="0.009299171932967932 0.0013880416002331351 -0.001301668994086346 0.0013880416002331351 0.0008227627225210207 0.00239445535905307 -0.001301668994086346 0.00239445535905307 0.0028227084480430898" free_energy=-70.778042067877 pbc="T T T"
P        6.13548352      -0.00558710       1.25449536       0.00000000 NULL      -0.12277700      -0.24554000      -0.00404800
P       -0.04292890       5.31663808       8.49983972       0.00000000 NULL       0.03787600      -0.05962400      -0.04189900
P        5.88800030       1.75529883      -0.03267345       0.00000000 NULL      -0.35695100       0.19605400       0.11867100
P        2.80626040       0.75102813       1.92888143       0.00000000 NULL       0.13891200       0.25573800      -0.07935400
P        1.41679266       2.24519606       2.85772306       0.00000000 NULL       0.29405000       0.14542300       0.02418800
P        1.72654573       4.87757196       7.19964467       0.00000000 NULL      -0.12758700      -0.14772800       0.04113300
P        2.38000007       2.46125225       4.88198417       0.00000000 NULL      -0.28047700       0.06942100      -0.15681600
P        4.00562662       2.41259981       1.00906025       0.00000000 NULL       0.09725400      -0.12457000       0.01094000
P        1.27286644       4.27185484       1.89085570       0.00000000 NULL       0.11810000      -0.10104300      -0.07565500
P        5.57835837       6.71796276       7.79269618       0.00000000 NULL       0.21817700       0.08359400       0.00586300
P        5.18253018       3.32981276       8.25076553       0.00000000 NULL      -0.00517900       0.11314500      -0.06518400
P        7.42623549       3.56793397       5.60715731       0.00000000 NULL      -0.00191200      -0.15020200       0.12417000
P        6.14648640       5.31821089       4.74931229       0.00000000 NULL      -0.00948700      -0.03466500       0.09799000
13
Lattice="6.7252772994082415 -0.30529856817184003 0.09897720387787266 -0.14791884544960812 4.39738200919064 1.4433654371751774 2.1467924283748525 4.319706345606676 10.279671698918108" Properties=species:S:1:pos:R:3:initial_magmoms:R:1:castep_labels:S:1:forces:R:3 n_minim_iter=2 energy=-70.795097084575 stress="-0.0002291005178432135 0.0004860828267300455 0.00012774019460177157 0.0004860828267300455 -0.0036182785600872625 0.0005923340166324537 0.00012774019460177157 0.0005923340166324537 -0.0030989609465193126" free_energy=-70.795097084575 pbc="T T T"
P        6.07806724      -0.01840087       1.25905535       0.00000000 NULL      -0.28988500      -0.23215200      -0.02860400
P       -0.03859203       5.29098549       8.46178478       0.00000000 NULL      -0.02186100      -0.02400000      -0.00335200
P        5.82780122       1.74625966      -0.02857602       0.00000000 NULL      -0.18239200       0.14857300       0.10733400
P        2.78149168       0.74262729       1.92486166       0.00000000 NULL       0.25678700       0.20072800      -0.01929600
P        1.40501420       2.23478818       2.84586262       0.00000000 NULL       0.34328500       0.23392300       0.00578900
P        1.71222022       4.85262929       7.16914494       0.00000000 NULL       0.06742500      -0.13254700       0.02929800
P        2.35918356       2.44399564       4.86428405       0.00000000 NULL      -0.15637700       0.08797400      -0.12164100
P        3.96563584       2.40186166       1.00557276       0.00000000 NULL       0.04527800      -0.04312200       0.06447000
P        1.25759367       4.26136229       1.87622011       0.00000000 NULL       0.17220300      -0.14763400      -0.18318500
P        5.52673590       6.68540677       7.76094233       0.00000000 NULL       0.04770800      -0.00266800      -0.03562000
P        5.13927100       3.29967241       8.22523676       0.00000000 NULL      -0.11646700       0.11712900      -0.02600400
P        7.35767613       3.53988202       5.59246970       0.00000000 NULL       0.03477400      -0.14192700       0.03947600
P        6.08647904       5.29307792       4.73098135       0.00000000 NULL      -0.20047500      -0.06427400       0.17133500
13
Lattice="6.700061915049476 -0.3165768788137978 0.10252494672486502 -0.1529674633414909 4.4184773515173825 1.4396726339320816 2.136518181173713 4.319201443117208 10.309517528349337" Properties=species:S:1:pos:R:3:initial_magmoms:R:1:castep_labels:S:1:forces:R:3 n_minim_iter=3 energy=-70.802269381043 stress="-0.00036317313303642866 -0.00013438938298436623 0.0006396137794489676 -0.00013438938298436623 0.0018408050860267335 -0.0011326174766056977 0.0006396137794489676 -0.0011326174766056977 0.0006725215559551166" free_energy=-70.802269381043 pbc="T T T"
P        6.05342991      -0.03142092       1.26586422       0.00000000 NULL      -0.33882400      -0.10055700      -0.05742400
P       -0.04265611       5.30225052       8.48204323       0.00000000 NULL      -0.06373000       0.04110800      -0.01617900
P        5.80138284       1.74886664      -0.02916428       0.00000000 NULL      -0.11465000       0.01295800       0.17273100
P        2.77234304       0.74051156       1.93123201       0.00000000 NULL       0.25671800       0.22663500      -0.02828100
P        1.40016639       2.24082228       2.85239367       0.00000000 NULL       0.33758200       0.22874500       0.01846900
P        1.70184438       4.86086994       7.18655604       0.00000000 NULL       0.10093900      -0.03624100      -0.02956500
P        2.34721239       2.44471481       4.87708269       0.00000000 NULL      -0.15551500       0.03879000      -0.11180000
P        3.94794922       2.40678800       1.00631441       0.00000000 NULL      -0.02044300       0.00746900      -0.01401200
P        1.24877051       4.27779075       1.87369017       0.00000000 NULL       0.18989000      -0.18343900      -0.13190400
P        5.49991011       6.69822920       7.77779022       0.00000000 NULL       0.03095200      -0.06032100       0.04406700
P        5.11749197       3.29454679       8.25046109       0.00000000 NULL      -0.07745200       0.03836600       0.01538200
P        7.32698989       3.53624328       5.60910738       0.00000000 NULL       0.06270200      -0.10115200       0.01153600
P        6.05642666       5.30314779       4.74115335       0.00000000 NULL      -0.20817000      -0.11235900       0.12698100
13
Lattice="6.661392176430011 -0.3301164197578649 0.07780163809732192 -0.16646576932314655 4.419356011920806 1.4599769380697012 2.078573735247055 4.345510381615645 10.350569838812762" Properties=species:S:1:pos:R:3:initial_magmoms:R:1:castep_labels:S:1:forces:R:3 n_minim_iter=4 energy=-70.817828976078 stress="-0.0015121448475586745 -0.0008788678738734694 -0.0013928095072042017 -0.0008788678738734694 -9.088554916171836e-05 0.002077372996363913 -0.0013928095072042017 0.002077372996363913 0.0019090578803613735" free_energy=-70.817828976078 pbc="T T T"
P        6.00103818      -0.04648252       1.24638081       0.00000000 NULL      -0.19813900      -0.07356500       0.04701100
P       -0.08530912       5.32655742       8.52756827       0.00000000 NULL      -0.00244500       0.00528800      -0.04287800
P        5.75745954       1.73782033      -0.03765877       0.00000000 NULL       0.00628300      -0.02052000       0.16640900
P        2.75812611       0.75005152       1.92884834       0.00000000 NULL       0.16828100       0.12159100       0.03426100
P        1.39125886       2.25497953       2.86501245       0.00000000 NULL       0.15589300      -0.00643000      -0.00716800
P        1.65931617       4.87364093       7.22046791       0.00000000 NULL       0.12450000      -0.00823000       0.03558800
P        2.30416334       2.45646563       4.88791454       0.00000000 NULL       0.00494800       0.05071800       0.00311700
P        3.91678459       2.39863468       1.00420247       0.00000000 NULL       0.02428000       0.09499600      -0.06664600
P        1.23342390       4.27007735       1.88375866       0.00000000 NULL       0.04454300      -0.00845300      -0.06384400
P        5.42854993       6.70511233       7.80724332       0.00000000 NULL      -0.15149900      -0.00884100       0.10679500
P        5.04812672       3.31156294       8.27037087       0.00000000 NULL      -0.10820300      -0.02607200      -0.11334100
P        7.25918021       3.53117155       5.61471787       0.00000000 NULL       0.05101100       0.00076900      -0.02850000
P        5.98538653       5.29729689       4.75915322       0.00000000 NULL      -0.11945300      -0.12125200      -0.07080400
13
Lattice="6.672833217596023 -0.32126243029611345 0.0900620872314062 -0.15834344814758758 4.412923509004182 1.4395546899764882 2.1055861873234725 4.310764122228985 10.306555849136116" Properties=species:S:1:pos:R:3:initial_magmoms:R:1:castep_labels:S:1:forces:R:3 n_minim_iter=5 energy=-70.826259874499 stress="0.00018714699105560565 0.0007451222792028743 -0.00046228387399640863 0.0007451222792028743 8.244479585392009e-05 -0.00020613124344046442 -0.00046228387399640863 -0.00020613124344046442 -0.00039354778777536827" free_energy=-70.826259874499 pbc="T T T"
P        6.00471914      -0.04698736       1.25235236       0.00000000 NULL      -0.08651200      -0.05391700       0.00352000
P       -0.06488572       5.29546209       8.48130086       0.00000000 NULL       0.00377600       0.00179600      -0.02866100
P        5.76647048       1.74672495      -0.02867505       0.00000000 NULL       0.05694900      -0.08559100       0.12001700
P        2.77454133       0.75322763       1.92452336       0.00000000 NULL       0.13933600       0.03351100      -0.00740200
P        1.41075696       2.25136270       2.85074477       0.00000000 NULL      -0.09324400      -0.12222100      -0.02232500
P        1.68394199       4.84739959       7.18385977       0.00000000 NULL       0.11125200       0.03289800      -0.00316600
P        2.31608861       2.44365312       4.86520774       0.00000000 NULL       0.05028800       0.01528900       0.07884900
P        3.92905459       2.40041975       0.99886006       0.00000000 NULL      -0.06223800       0.17723800      -0.04167300
P        1.24906508       4.26008993       1.86093857       0.00000000 NULL      -0.00703700       0.03635600      -0.01280500
P        5.45996603       6.68248155       7.77003962       0.00000000 NULL      -0.09826700      -0.03922600       0.01840900
P        5.07246851       3.28979440       8.24026201       0.00000000 NULL      -0.07347600      -0.00047700      -0.02194200
P        7.28787965       3.51761136       5.59752246       0.00000000 NULL       0.01385000       0.02792300      -0.02951500
P        6.00561168       5.28395216       4.73835477       0.00000000 NULL       0.04532300      -0.02357700      -0.05330800
13
Lattice="6.674743152869368 -0.3391257534962882 0.10635293974719008 -0.16661777449871143 4.4098067950401365 1.4402841836320495 2.118971617707702 4.302046711109962 10.317818022754047" Properties=species:S:1:pos:R:3:initial_magmoms:R:1:castep_labels:S:1:forces:R:3 n_minim_iter=6 energy=-70.828645649742 stress="0.000734058890096669 -0.0007129152211216914 0.0009909409885722608 -0.0007129152211216914 -0.000588094399358664 0.00022449261649388686 0.0009909409885722608 0.00022449261649388686 3.466175241799591e-05" free_energy=-70.828645649742 pbc="T T T"
P        6.00468837      -0.06520055       1.26759834       0.00000000 NULL      -0.06238900      -0.06663900       0.02729600
P       -0.05896922       5.29191149       8.48560898       0.00000000 NULL      -0.02161600       0.03516300      -0.02859500
P        5.76255327       1.72848144      -0.01103981       0.00000000 NULL       0.05609100      -0.06621200       0.08207400
P        2.78172865       0.74748191       1.93221831       0.00000000 NULL       0.06060400      -0.01645600      -0.01353700
P        1.41283111       2.24522932       2.85566932       0.00000000 NULL      -0.05784500      -0.09386500      -0.00408300
P        1.69105678       4.83928293       7.19235750       0.00000000 NULL       0.08289500       0.01893900      -0.02260600
P        2.32129486       2.43635736       4.87433281       0.00000000 NULL       0.05100900       0.05048000       0.03219800
P        3.92464235       2.39099348       1.00829382       0.00000000 NULL      -0.03920700       0.22601700      -0.08355300
P        1.24352182       4.25278340       1.86401265       0.00000000 NULL      -0.00585400       0.05385500       0.01868900
P        5.45974203       6.66166075       7.78897014       0.00000000 NULL      -0.07800100      -0.09383600       0.04943600
P        5.08199945       3.27408880       8.25679972       0.00000000 NULL      -0.05402700      -0.04268200       0.01614900
P        7.29350732       3.49494178       5.61827898       0.00000000 NULL       0.03609300       0.04484000      -0.04434700
P        6.00283337       5.26217833       4.75582309       0.00000000 NULL       0.03224600      -0.04960500      -0.02912000
13
Lattice="6.598461634277252 -0.36220832198278935 0.08387812733682173 -0.18411492211711852 4.422237270824017 1.4300126598427407 2.0448629871026034 4.280424938278539 10.314265998584057" Properties=species:S:1:pos:R:3:initial_magmoms:R:1:castep_labels:S:1:forces:R:3 n_minim_iter=7 energy=-70.841729871935 stress="0.0008470257203504231 -0.0005095177139071411 -0.0006138940415773017 -0.0005095177139071411 0.0010731808900330772 0.00028305247715379976 -0.0006138940415773017 0.00028305247715379976 -0.0011098850795257032" free_energy=-70.841729871935 pbc="T T T"
P        5.90191269      -0.10605803       1.25010686       0.00000000 NULL       0.06748200      -0.04480700       0.00893600
P       -0.10807532       5.29029785       8.47715389       0.00000000 NULL       0.07604200       0.04844900      -0.02441100
P        5.69487401       1.70349216      -0.00786935       0.00000000 NULL       0.04716100      -0.00882000      -0.01430500
P        2.77194372       0.74920866       1.92084135       0.00000000 NULL      -0.07149200      -0.02947000      -0.00116000
P        1.38229772       2.22969693       2.84655395       0.00000000 NULL       0.08672400       0.10493500      -0.05232100
P        1.65366767       4.83211670       7.18174233       0.00000000 NULL       0.02402100       0.13357600       0.02526200
P        2.27201295       2.43176547       4.87273646       0.00000000 NULL       0.14579800      -0.00137800      -0.01962900
P        3.85889601       2.42163148       0.97670150       0.00000000 NULL       0.11379000       0.00484700       0.08329100
P        1.21575368       4.25938069       1.84274401       0.00000000 NULL      -0.09861600      -0.06957000       0.17813400
P        5.33157289       6.63251138       7.77129045       0.00000000 NULL      -0.00305900       0.02792700      -0.08883200
P        4.96758215       3.24426917       8.23914102       0.00000000 NULL      -0.13355900      -0.00666700      -0.14921900
P        7.18551297       3.46920490       5.58503554       0.00000000 NULL      -0.12619400      -0.06278600       0.06218200
P        5.89681892       5.23536366       4.72304517       0.00000000 NULL      -0.12810000      -0.09623600      -0.00792700
13
Lattice="6.577303355126254 -0.35222365961194724 0.08808217223928155 -0.17679620819490743 4.411119832681328 1.432239070055418 2.049716595901832 4.26500750671995 10.354717472823282" Properties=species:S:1:pos:R:3:initial_magmoms:R:1:castep_labels:S:1:forces:R:3 n_minim_iter=8 energy=-70.844204204883 stress="5.9991060446914464e-05 0.0008826757127981652 0.000326109231562658 0.0008826757127981652 -4.18307653051577e-05 0.0003970042299045161 0.000326109231562658 0.0003970042299045161 0.0006894703505955862" free_energy=-70.844204204883 pbc="T T T"
P        5.87972245      -0.10201380       1.25893495       0.00000000 NULL       0.07980400      -0.03736800       0.03470800
P       -0.09586892       5.27253870       8.50659329       0.00000000 NULL       0.08879700       0.00175900       0.00068700
P        5.68073037       1.70543946      -0.00157995       0.00000000 NULL       0.06170700      -0.00690400      -0.03300800
P        2.76973105       0.75163087       1.92931206       0.00000000 NULL      -0.06500000      -0.05611500      -0.05080000
P        1.38378885       2.22368267       2.85633982       0.00000000 NULL       0.07786900       0.12139100       0.04128200
P        1.66296385       4.81957997       7.20841326       0.00000000 NULL       0.00910700       0.10133100      -0.02539500
P        2.27283303       2.42679811       4.89303532       0.00000000 NULL       0.15697600      -0.02123500      -0.09376700
P        3.85019800       2.42741081       0.97971437       0.00000000 NULL       0.07032300       0.01076200       0.05758000
P        1.21877843       4.24954310       1.84845374       0.00000000 NULL      -0.06323300      -0.07479700       0.20592300
P        5.32504353       6.61685417       7.80151976       0.00000000 NULL      -0.02004500       0.08101800      -0.07534600
P        4.95654649       3.23674945       8.27122930       0.00000000 NULL      -0.12012900       0.00392300      -0.14226300
P        7.17048464       3.46653760       5.60888904       0.00000000 NULL      -0.13553600      -0.04526400       0.12344300
P        5.88599915       5.22494176       4.74092376       0.00000000 NULL      -0.14063900      -0.07850200      -0.04304200
13
Lattice="6.542837775548097 -0.3747169743716037 0.0635161328682945 -0.1966582164066133 4.39098749423797 1.4209923654686718 1.983861649408974 4.1995269511759 10.376868117734015" Properties=species:S:1:pos:R:3:initial_magmoms:R:1:castep_labels:S:1:forces:R:3 n_minim_iter=9 energy=-70.85067728581 stress="0.00119789002706843 -0.0006429736282423639 -0.001197422466558255 -0.0006429736282423639 -0.001318247895062653 -0.0011413541687130993 -0.001197422466558255 -0.0011413541687130993 0.0012006174633777847" free_energy=-70.85067728581 pbc="T T T"
P        5.83426620      -0.13796930       1.24380696       0.00000000 NULL       0.05779100      -0.04424900      -0.02069400
P       -0.14380116       5.22255439       8.52082580       0.00000000 NULL       0.10504600       0.03202000      -0.05255100
P        5.65017366       1.67275825      -0.01998505       0.00000000 NULL      -0.00450300       0.04111000       0.01342300
P        2.75525301       0.73418815       1.92121907       0.00000000 NULL      -0.03217400       0.05069800       0.01951500
P        1.36289436       2.20086577       2.85374543       0.00000000 NULL       0.04825600       0.02413500       0.11130500
P        1.62097884       4.77484300       7.21347546       0.00000000 NULL      -0.02114300       0.10802400       0.02379100
P        2.24317985       2.39290309       4.89568333       0.00000000 NULL       0.13581400       0.05776100      -0.06647900
P        3.81760312       2.41987855       0.95659667       0.00000000 NULL       0.09095700      -0.05271200      -0.02741600
P        1.18926827       4.21923626       1.84262649       0.00000000 NULL      -0.11699700      -0.12594600       0.13108900
P        5.23464933       6.53976314       7.78801875       0.00000000 NULL      -0.01586000       0.02853000      -0.05499700
P        4.87228792       3.17272596       8.26673552       0.00000000 NULL      -0.06283700      -0.04543500      -0.09202200
P        7.09450814       3.40381378       5.59420597       0.00000000 NULL      -0.10321800      -0.04034200       0.05261300
P        5.80911445       5.15582822       4.71432666       0.00000000 NULL      -0.08113200      -0.03359600      -0.03757700
13
Lattice="6.4866961155561365 -0.38266753558876065 0.06014130235356198 -0.20051207928969908 4.412451199102198 1.4289245085098148 1.957244314309669 4.2348009227031795 10.382148447372076" Properties=species:S:1:pos:R:3:initial_magmoms:R:1:castep_labels:S:1:forces:R:3 n_minim_iter=10 energy=-70.859044161122 stress="0.0007381673485971522 -7.793462673968236e-05 -0.00021016123102227756 -7.793462673968236e-05 0.00045821333029368244 0.00028371179036123443 -0.00021016123102227756 0.00028371179036123443 -1.604881816337005e-05" free_energy=-70.859044161122 pbc="T T T"
P        5.77283736      -0.15487089       1.24315537       0.00000000 NULL      -0.01227900      -0.00474200       0.03091500
P       -0.14759546       5.26542590       8.52380677       0.00000000 NULL       0.01678500       0.00740600       0.01177500
P        5.60658043       1.66645324      -0.00476046       0.00000000 NULL       0.00890900       0.06594700      -0.09468400
P        2.74208972       0.74285648       1.91818513       0.00000000 NULL      -0.06344700       0.10751600       0.07195900
P        1.35411546       2.21611062       2.85799977       0.00000000 NULL      -0.03087800      -0.10594000       0.11319400
P        1.61191434       4.81814445       7.21879610       0.00000000 NULL      -0.02572300       0.04881300      -0.00700900
P        2.23278600       2.41478917       4.89620560       0.00000000 NULL       0.12992500       0.08467900      -0.05076600
P        3.78285624       2.44969446       0.95608767       0.00000000 NULL       0.09091100      -0.16659300      -0.03819100
P        1.17049106       4.23238022       1.86163691       0.00000000 NULL      -0.03910700      -0.08372200       0.05090400
P        5.16760794       6.57340828       7.79528071       0.00000000 NULL      -0.03681600       0.01927900      -0.04519000
P        4.80488211       3.19527950       8.25670555       0.00000000 NULL      -0.00398000      -0.00931300      -0.06514800
P        7.02108460       3.41892502       5.60046107       0.00000000 NULL       0.00063800       0.05058200       0.01003500
P        5.73935068       5.16743770       4.71640818       0.00000000 NULL      -0.03493900      -0.01391300       0.01220700
13
Lattice="6.410355716208378 -0.40262550653212237 0.03293292671454391 -0.21777081234779944 4.411960806206739 1.4346159754078616 1.8778005097932902 4.223393520194293 10.421937078195423" Properties=species:S:1:pos:R:3:initial_magmoms:R:1:castep_labels:S:1:forces:R:3 n_minim_iter=11 energy=-70.868258971056 stress="-0.0002704896514974139 0.00010299110345644974 -0.0005149555172822486 0.00010299110345644974 0.00014214507196037566 0.0004495017532172768 -0.0005149555172822486 0.0004495017532172768 -0.0001685237274781264" free_energy=-70.868258971056 pbc="T T T"
P        5.67722474      -0.19041513       1.23187606       0.00000000 NULL       0.01934600       0.06773000      -0.06758100
P       -0.19278094       5.26760465       8.55861624       0.00000000 NULL      -0.00313100       0.00765000      -0.04549700
P        5.54556609       1.64684780      -0.02175842       0.00000000 NULL       0.08494500      -0.05483500      -0.06970700
P        2.71254950       0.75746991       1.92216512       0.00000000 NULL      -0.08694500      -0.07867600       0.03996100
P        1.32181037       2.19282879       2.88527731       0.00000000 NULL      -0.03823600       0.14222700      -0.02625000
P        1.56532308       4.82719403       7.23948016       0.00000000 NULL      -0.02554900       0.07158900       0.03395700
P        2.21004433       2.42463503       4.89982422       0.00000000 NULL       0.05197100       0.05546500       0.11911500
P        3.73542403       2.44532094       0.93017328       0.00000000 NULL      -0.01457700      -0.03914400      -0.11938100
P        1.13151838       4.20789331       1.87970007       0.00000000 NULL      -0.01546500      -0.09534700       0.07050800
P        5.03156095       6.54845980       7.80281894       0.00000000 NULL       0.04529900       0.02548000      -0.02157000
P        4.68161271       3.17325105       8.25372116       0.00000000 NULL       0.06458100      -0.03228100       0.03487900
P        6.90115646       3.40074091       5.59861930       0.00000000 NULL       0.01963000      -0.02990300      -0.01232800
P        5.61797421       5.12917909       4.70944806       0.00000000 NULL      -0.10186900      -0.03995400       0.06389400
13
Lattice="6.346352944850986 -0.43831684737801374 0.027328219342541874 -0.240440365457673 4.416828227423448 1.4263055309962003 1.824177786990473 4.18781634589937 10.446207752100086" Properties=species:S:1:pos:R:3:initial_magmoms:R:1:castep_labels:S:1:forces:R:3 n_minim_iter=12 energy=-70.877556997161 stress="-0.0012817599963150439 0.00023013364092829605 -0.0005504745981578023 0.00023013364092829605 0.0003824203883423725 0.0005214355279563147 -0.0005504745981578023 0.0005214355279563147 -0.0001945181919362943" free_energy=-70.877556997161 pbc="T T T"
P        5.59804428      -0.23080009       1.22562614       0.00000000 NULL       0.00388900       0.06698800      -0.03316500
P       -0.22781819       5.25792318       8.56428572       0.00000000 NULL      -0.02134700       0.04412300      -0.05326600
P        5.49742671       1.60981947      -0.03446138       0.00000000 NULL       0.09209800      -0.05412400      -0.06345500
P        2.68252193       0.74920118       1.93502361       0.00000000 NULL      -0.06917300       0.02328100      -0.02001400
P        1.28892963       2.18418787       2.90293229       0.00000000 NULL      -0.00480200       0.00781800       0.06017000
P        1.52632454       4.82590085       7.24879148       0.00000000 NULL       0.02413600       0.09292200       0.00222300
P        2.19563932       2.42649917       4.91717407       0.00000000 NULL      -0.03083000      -0.01489900       0.07031000
P        3.68524017       2.43188196       0.88925311       0.00000000 NULL       0.00608300      -0.14514500       0.07868400
P        1.09430553       4.17409437       1.89073340       0.00000000 NULL      -0.04378500       0.03759800       0.01745600
P        4.92525339       6.50413657       7.80172593       0.00000000 NULL       0.06639300      -0.03505800       0.00639000
P        4.60029894       3.11953350       8.26447700       0.00000000 NULL       0.00766400      -0.00629700      -0.05579900
P        6.81030165       3.35400233       5.59957461       0.00000000 NULL       0.01888700       0.02079200      -0.00985200
P        5.50401581       5.07487873       4.71480673       0.00000000 NULL      -0.04921500      -0.03799800       0.00031700
13
Lattice="6.325190829961004 -0.45778216301447905 0.02597544646830109 -0.2524369253225656 4.425405413201466 1.4190066518609774 1.8022461088989494 4.172536247856353 10.446366954644356" Properties=species:S:1:pos:R:3:initial_magmoms:R:1:castep_labels:S:1:forces:R:3 n_minim_iter=13 energy=-70.881835421717 stress="-0.0013057823309252977 0.00021938062529217468 -0.0005400900545713599 0.00021938062529217468 0.000582531645916721 0.0006077746839064456 -0.0005400900545713599 0.0006077746839064456 -0.0001250263498549153" free_energy=-70.881835421717 pbc="T T T"
P        5.56977873      -0.24897792       1.21893056       0.00000000 NULL      -0.00124400       0.03316600      -0.00279000
P       -0.24700009       5.26363483       8.55048187       0.00000000 NULL       0.03492200      -0.09065100       0.03494600
P        5.48602117       1.58857664      -0.04335232       0.00000000 NULL       0.00053200       0.00769800      -0.02440300
P        2.66807125       0.74803290       1.93358201       0.00000000 NULL      -0.08502300       0.01862400       0.04455800
P        1.27543682       2.18046841       2.91512903       0.00000000 NULL      -0.02529500       0.02791600      -0.01953100
P        1.51074917       4.83561582       7.24298181       0.00000000 NULL       0.02128800       0.04244700       0.00327200
P        2.18389057       2.42591841       4.92431962       0.00000000 NULL       0.00538800       0.01122800       0.04617000
P        3.66554718       2.41796750       0.87904371       0.00000000 NULL       0.06881800      -0.06234100      -0.01998500
P        1.07409556       4.17098253       1.89199019       0.00000000 NULL      -0.04502000      -0.02545300      -0.01714800
P        4.89092839       6.48085712       7.79407668       0.00000000 NULL      -0.01033500       0.07108800      -0.04481500
P        4.57029671       3.09379829       8.25879355       0.00000000 NULL       0.05205300      -0.03478200       0.00892000
P        6.77873648       3.33431504       5.59332541       0.00000000 NULL       0.00365000       0.02536600       0.01056200
P        5.45847776       5.05167215       4.71189866       0.00000000 NULL      -0.01973500      -0.02430700      -0.01975600
13
Lattice="6.333269114783446 -0.46924793959206557 0.022298779625406624 -0.2606731312490365 4.427520741737017 1.4135368259697985 1.791364705006341 4.159138433805711 10.441167072782733" Properties=species:S:1:pos:R:3:initial_magmoms:R:1:castep_labels:S:1:forces:R:3 n_minim_iter=14 energy=-70.885504584603 stress="-0.0005807168061117896 0.00020061126029316369 -0.00040225068789711437 0.00020061126029316369 0.0005430700645783594 0.0004989775049042261 -0.00040225068789711437 0.0004989775049042261 8.130430734530741e-05" free_energy=-70.885504584603 pbc="T T T"
P        5.57103132      -0.26029119       1.20930435       0.00000000 NULL      -0.00920000       0.00120500       0.03214500
P       -0.25646799       5.24855415       8.54230168       0.00000000 NULL       0.01369200       0.03507500      -0.01131400
P        5.49270146       1.57628545      -0.05055439       0.00000000 NULL       0.02718500       0.00296600      -0.04154400
P        2.65614955       0.75158069       1.93198959       0.00000000 NULL      -0.04396300      -0.00805600       0.03504300
P        1.26734893       2.17992044       2.92091626       0.00000000 NULL      -0.05210900       0.04088300      -0.06048200