15
Lattice="5.365189999999998 8.935213670981136e-16 -7.930420588755525e-16 -1.2818974462486783 6.94489373722889 4.073664572547639e-16 -1.408947173367252 -1.6504176431790736 8.914458901926894" Properties=species:S:1:pos:R:3:initial_magmoms:R:1:castep_labels:S:1 n_minim_iter=1 pbc="T T T"
P        2.70027794       4.58053901       5.65954213       0.00000000 NULL
P        0.98485398       3.55243371       5.80542458       0.00000000 NULL
P        1.42968589       4.28940272       3.71108746       0.00000000 NULL
P        4.65684620      -0.04753475       3.44427770       0.00000000 NULL
P       -0.89336785      -1.55996320       8.77897428       0.00000000 NULL
P       -0.09177870       5.70596274       5.78016724       0.00000000 NULL
P        1.70155399       1.16215658       2.92807615       0.00000000 NULL
P        2.45751063       2.30238547       6.76085133       0.00000000 NULL
P        0.50871326       2.49825987       7.48735209       0.00000000 NULL
P        2.25699718       3.14505018       1.43561299       0.00000000 NULL
P        3.51452781       0.18699459       8.35746479       0.00000000 NULL
P        0.77801934       1.53637881       5.63929740       0.00000000 NULL
P        2.19839882       4.13390869       7.57154737       0.00000000 NULL
P        2.94434273       0.38615566       4.44959957       0.00000000 NULL
P        3.42640765       0.58139356       6.38584322       0.00000000 NULL
15
Lattice="5.3788652927342895 -0.0009517723633763641 0.0006839870339008146 -1.2863968732509794 6.965414456266134 0.002599426412164623 -1.4111091785970709 -1.6514439066650022 8.938181445442144" Properties=species:S:1:pos:R:3:initial_magmoms:R:1:castep_labels:S:1 n_minim_iter=2 pbc="T T T"
P        2.70757789       4.59602239       5.67689902       0.00000000 NULL
P        0.98709436       3.56523083       5.82270236       0.00000000 NULL
P        1.43305909       4.30316037       3.72315336       0.00000000 NULL
P        4.66937130      -0.04718806       3.45424609       0.00000000 NULL
P       -0.89401350      -1.56086275       8.80259094       0.00000000 NULL
P       -0.09236200       5.72490603       5.79828907       0.00000000 NULL
P        1.70595119       1.16651985       2.93670880       0.00000000 NULL
P        2.46441962       2.31125911       6.78062994       0.00000000 NULL
P        0.51015249       2.50836893       7.50953855       0.00000000 NULL
P        2.26235611       3.15436738       1.44130373       0.00000000 NULL
P        3.52442452       0.19032068       8.38127314       0.00000000 NULL
P        0.78025102       1.54261716       5.65529097       0.00000000 NULL
P        2.20413725       4.14876935       7.59472365       0.00000000 NULL
P        2.95222719       0.38845671       4.46210063       0.00000000 NULL
P        3.43614835       0.58483253       6.40417350       0.00000000 NULL
15
Lattice="5.596638826957594 -0.015454797873579191 0.012112551381477661 -1.357202438089888 7.291261571125257 0.04647114517250577 -1.4448481308265546 -1.6644289534018213 9.308000473379787" Properties=species:S:1:pos:R:3:initial_magmoms:R:1:castep_labels:S:1 n_minim_iter=3 pbc="T T T"
P        2.82526688       4.84475131       5.95046631       0.00000000 NULL
P        1.02353518       3.77108923       6.09442979       0.00000000 NULL
P        1.48771462       4.52329109       3.91409869       0.00000000 NULL
P        4.86925259      -0.03985479       3.61065413       0.00000000 NULL
P       -0.90351304      -1.57175013       9.17096649       0.00000000 NULL
P       -0.10042672       6.02803120       6.08428856       0.00000000 NULL
P        1.77633400       1.23729741       3.07240263       0.00000000 NULL
P        2.57545701       2.45498553       7.09114126       0.00000000 NULL
P        0.53391818       2.67190233       7.85800680       0.00000000 NULL
P        2.34819276       3.30314412       1.53246204       0.00000000 NULL
P        3.68285891       0.24681629       8.75423132       0.00000000 NULL
P        0.81641930       1.64378775       5.90592300       0.00000000 NULL
P        2.29676723       4.38832668       7.95972267       0.00000000 NULL
P        3.07825145       0.42697855       4.65772219       0.00000000 NULL
P        3.59216597       0.64221326       6.69155017       0.00000000 NULL
15
Lattice="5.676784629250606 -0.012293195347546342 0.0329299137245365 -1.3722590727485529 7.379501127696492 0.08863314372111059 -1.4322788919242924 -1.6259048563444651 9.34182721780195" Properties=species:S:1:pos:R:3:initial_magmoms:R:1:castep_labels:S:1 n_minim_iter=4 pbc="T T T"
P        2.89604340       4.94762819       6.01932909       0.00000000 NULL
P        1.05792131       3.85956022       6.15105734       0.00000000 NULL
P        1.52679563       4.60364603       3.97019920       0.00000000 NULL
P        4.95379373      -0.01451948       3.64772313       0.00000000 NULL
P       -0.88189496      -1.53140151       9.20742025       0.00000000 NULL
P       -0.07688970       6.13965148       6.15477419       0.00000000 NULL
P        1.81260678       1.27519231       3.10271471       0.00000000 NULL
P        2.64168515       2.52894998       7.15310679       0.00000000 NULL
P        0.56790571       2.75336030       7.92352081       0.00000000 NULL
P        2.38848641       3.35322582       1.57546496       0.00000000 NULL
P        3.76744828       0.30713649       8.81897808       0.00000000 NULL
P        0.84863667       1.69940292       5.94940426       0.00000000 NULL
P        2.36121161       4.49765010       8.04386989       0.00000000 NULL
P        3.13922225       0.46241734       4.69218251       0.00000000 NULL
P        3.67185648       0.69326380       6.74636820       0.00000000 NULL
15
Lattice="5.735866587510966 -0.004904540919198904 0.07227830728608396 -1.376811305110749 7.414102202349349 0.14158549488989686 -1.3846884219604252 -1.5564501880288812 9.298599788838073" Properties=species:S:1:pos:R:3:initial_magmoms:R:1:castep_labels:S:1 n_minim_iter=5 pbc="T T T"
P        2.98030264       5.03108956       6.06304899       0.00000000 NULL
P        1.10961182       3.93530885       6.17168691       0.00000000 NULL
P        1.57701137       4.66042215       4.01246647       0.00000000 NULL
P        5.03192769       0.02275401       3.67475249       0.00000000 NULL
P       -0.82748365      -1.45979743       9.16956526       0.00000000 NULL
P       -0.02870556       6.22036599       6.19280397       0.00000000 NULL
P        1.85302979       1.31317268       3.11872110       0.00000000 NULL
P        2.72375467       2.60070077       7.17601912       0.00000000 NULL
P        0.62682512       2.83164414       7.93889618       0.00000000 NULL
P        2.42679626       3.38344173       1.62423291       0.00000000 NULL
P        3.86742104       0.38593706       8.83280241       0.00000000 NULL
P        0.89819281       1.75680377       5.95605581       0.00000000 NULL
P        2.44703100       4.59575038       8.08814522       0.00000000 NULL
P        3.20439723       0.50613564       4.70168717       0.00000000 NULL
P        3.76154656       0.75665916       6.76543873       0.00000000 NULL
15
Lattice="5.788206943866336 0.004555015514647096 0.13776843391105384 -1.3770721262397927 7.395725928751272 0.20476388284127425 -1.2925291459039836 -1.4539236527350212 9.202096335463013" Properties=species:S:1:pos:R:3:initial_magmoms:R:1:castep_labels:S:1 n_minim_iter=6 pbc="T T T"
P        3.09283863       5.09598425       6.10146014       0.00000000 NULL
P        1.18612029       3.99988746       6.17251392       0.00000000 NULL
P        1.64625627       4.69380305       4.05461945       0.00000000 NULL
P        5.12140076       0.07081043       3.70856172       0.00000000 NULL
P       -0.72896602      -1.35489228       9.08169908       0.00000000 NULL
P        0.04944326       6.27094647       6.21567984       0.00000000 NULL
P        1.90542973       1.35218608       3.13119627       0.00000000 NULL
P        2.83722058       2.66974742       7.18300654       0.00000000 NULL
P        0.72025380       2.90681229       7.92840664       0.00000000 NULL
P        2.46971273       3.39246871       1.68845220       0.00000000 NULL
P        4.00409828       0.48294507       8.82650252       0.00000000 NULL
P        0.97411961       1.81670253       5.94383633       0.00000000 NULL
P        2.56967338       4.68466813       8.12100856       0.00000000 NULL
P        3.28731015       0.55701387       4.70231539       0.00000000 NULL
P        3.88043910       0.83200282       6.77209855       0.00000000 NULL
15
Lattice="5.87161451358654 0.003691862428740761 0.271768870918671 -1.3981178780365984 7.31422080412264 0.28634872689870744 -1.0915205903762784 -1.2884600783368583 9.088939798628754" Properties=species:S:1:pos:R:3:initial_magmoms:R:1:castep_labels:S:1 n_minim_iter=7 pbc="T T T"
P        3.29199153       5.14522946       6.19549753       0.00000000 NULL
P        1.32421686       4.06415046       6.19322705       0.00000000 NULL
P        1.76629547       4.70214314       4.14120351       0.00000000 NULL
P        5.28339772       0.12720287       3.80633182       0.00000000 NULL
P       -0.51712611      -1.18813823       8.98418449       0.00000000 NULL
P        0.18799418       6.29419374       6.26937710       0.00000000 NULL
P        2.00063817       1.39809841       3.17205758       0.00000000 NULL
P        3.04892070       2.74091326       7.23708099       0.00000000 NULL
P        0.89975919       2.98826150       7.95079484       0.00000000 NULL
P        2.53683437       3.37032271       1.81061903       0.00000000 NULL
P        4.26833675       0.61039316       8.88279993       0.00000000 NULL
P        1.12101466       1.88896546       5.95609809       0.00000000 NULL
P        2.79752745       4.77770206       8.22498192       0.00000000 NULL
P        3.44077551       0.61648643       4.73918200       0.00000000 NULL
P        4.10659904       0.92595253       6.83101624       0.00000000 NULL
15
Lattice="5.899039766062306 -0.06622628224218735 0.4218876356109567 -1.4951751017612402 7.187679171903276 0.3056769108114622 -0.8277869731425819 -1.165207682061075 9.032812002366965" Properties=species:S:1:pos:R:3:initial_magmoms:R:1:castep_labels:S:1 n_minim_iter=8 pbc="T T T"
P        3.41810358       5.06774889       6.28922625       0.00000000 NULL
P        1.41999234       4.04185269       6.21135263       0.00000000 NULL
P        1.82825697       4.62424560       4.21171485       0.00000000 NULL
P        5.40745695       0.09241991       3.93630380       0.00000000 NULL
P       -0.24928964      -1.07405946       8.94107783       0.00000000 NULL
P        0.27369297       6.21776541       6.30392124       0.00000000 NULL
P        2.07172126       1.38847421       3.22184530       0.00000000 NULL
P        3.22542131       2.70647502       7.31588377       0.00000000 NULL
P        1.06443838       2.97544960       7.99403863       0.00000000 NULL
P        2.54616597       3.27786827       1.92551380       0.00000000 NULL
P        4.51980902       0.62331290       8.99731747       0.00000000 NULL
P        1.25733679       1.89118932       5.99040652       0.00000000 NULL
P        2.97562830       4.74350478       8.34719273       0.00000000 NULL
P        3.56700740       0.59798571       4.80686729       0.00000000 NULL
P        4.31035342       0.91504858       6.92530647       0.00000000 NULL
15
Lattice="5.91824744098474 -0.19719555822980928 0.5701739195190795 -1.6692956779211294 7.162068124332117 0.2943022599521529 -0.5461597822818933 -1.086413972865308 9.110747039693466" Properties=species:S:1:pos:R:3:initial_magmoms:R:1:castep_labels:S:1 n_minim_iter=9 pbc="T T T"
P        3.48460377       4.98865934       6.44447496       0.00000000 NULL
P        1.46663089       4.03718095       6.29889551       0.00000000 NULL
P        1.83696475       4.56800011       4.30479065       0.00000000 NULL
P        5.52573119      -0.01588299       4.11102482       0.00000000 NULL
P        0.03396307      -1.01058486       9.02763101       0.00000000 NULL
P        0.29730063       6.18558761       6.39314514       0.00000000 NULL
P        2.12522614       1.35794287       3.30585700       0.00000000 NULL
P        3.37192110       2.64534883       7.48115786       0.00000000 NULL
P        1.19902104       2.95454805       8.13243803       0.00000000 NULL
P        2.51942484       3.19550177       2.04909988       0.00000000 NULL
P        4.76256272       0.56355833       9.22963720       0.00000000 NULL
P        1.37252755       1.87340105       6.09722941       0.00000000 NULL
P        3.10015780       4.69915208       8.55804911       0.00000000 NULL
P        3.67509811       0.53481409       4.93700216       0.00000000 NULL
P        4.50206794       0.84027988       7.10752653       0.00000000 NULL
15
Lattice="5.847593979214331 -0.23436065726780692 0.6188029663682517 -1.7005223765730633 7.076811336185832 0.2918550130533539 -0.43537403751056775 -1.0425103266621902 9.018079031792766" Properties=species:S:1:pos:R:3:initial_magmoms:R:1:castep_labels:S:1 n_minim_iter=10 pbc="T T T"
P        3.47174203       4.91577101       6.42552302       0.00000000 NULL
P        1.47133897       4.00015395       6.25550259       0.00000000 NULL
P        1.82324825       4.50516960       4.28335716       0.00000000 NULL
P        5.49720626      -0.04669370       4.12225499       0.00000000 NULL
P        0.13535957      -0.97042733       8.93820470       0.00000000 NULL
P        0.31490960       6.11376638       6.34714624       0.00000000 NULL
P        2.11984531       1.33579704       3.29556889       0.00000000 NULL
P        3.38702963       2.60459186       7.44650975       0.00000000 NULL
P        1.24073694       2.92292886       8.07674030       0.00000000 NULL
P        2.48224575       3.13897802       2.07055654       0.00000000 NULL
P        4.79368724       0.54642154       9.19334346       0.00000000 NULL
P        1.40189459       1.85227562       6.05927450       0.00000000 NULL
P        3.11266995       4.64148263       8.52385290       0.00000000 NULL
P        3.66704975       0.51597838       4.92258828       0.00000000 NULL
P        4.51628405       0.81467558       7.08534557       0.00000000 NULL
15
Lattice="5.8627391427261974 -0.26050252343372715 0.6504065737865218 -1.737979955716399 7.10166519187785 0.2900015210674614 -0.378799093974843 -1.0327539634418783 9.072183007499008" Properties=species:S:1:pos:R:3:initial_magmoms:R:1:castep_labels:S:1 n_minim_iter=11 pbc="T T T"
P        3.49359003       4.92054851       6.48434766       0.00000000 NULL
P        1.48339129       4.01669788       6.30132342       0.00000000 NULL
P        1.82865117       4.51314594       4.31599687       0.00000000 NULL
P        5.53275321      -0.06979271       4.17328480       0.00000000 NULL
P        0.19296945      -0.96252062       8.99370138       0.00000000 NULL
P        0.32268849       6.13256828       6.39107276       0.00000000 NULL
P        2.13485740       1.33372845       3.32644096       0.00000000 NULL
P        3.42482469       2.60344326       7.51085324       0.00000000 NULL
P        1.27185439       2.93058021       8.13805157       0.00000000 NULL
P        2.48268666       3.13780843       2.10281398       0.00000000 NULL
P        4.85342661       0.53633739       9.27772092       0.00000000 NULL
P        1.42855669       1.85480079       6.10562869       0.00000000 NULL
P        3.14395714       4.65035630       8.59947459       0.00000000 NULL
P        3.69494165       0.50720644       4.96998728       0.00000000 NULL
P        4.56457747       0.80276627       7.15217850       0.00000000 NULL
15
Lattice="5.8523598572252515 -0.2826305146596888 0.6776191223160205 -1.7641433102490653 7.0927588604553105 0.28927221940969455 -0.3240518366403447 -1.0161603343668157 9.076137687941506" Properties=species:S:1:pos:R:3:initial_magmoms:R:1:castep_labels:S:1 n_minim_iter=12 pbc="T T T"
P        3.50077237       4.90535949       6.50952951       0.00000000 NULL
P        1.48977169       4.01626871       6.31396912       0.00000000 NULL
P        1.82723372       4.50182117       4.32653609       0.00000000 NULL
P        5.54281494      -0.08891561       4.20079697       0.00000000 NULL
P        0.24568411      -0.94759895       8.99902137       0.00000000 NULL
P        0.33058322       6.12459882       6.40214938       0.00000000 NULL
P        2.14049046       1.32712276       3.33938506       0.00000000 NULL
P        3.44663593       2.59359181       7.53431477       0.00000000 NULL
P        1.29704700       2.92727818       8.15491156       0.00000000 NULL
P        2.47346795       3.12372904       2.12417078       0.00000000 NULL
P        4.88986271       0.52792090       9.31023144       0.00000000 NULL
P        1.44848475       1.85124609       6.11933956       0.00000000 NULL
P        3.16150361       4.64089951       8.62841791       0.00000000 NULL
P        3.70598829       0.49907026       4.98993111       0.00000000 NULL
P        4.59130173       0.79109419       7.17987347       0.00000000 NULL
15
Lattice="5.851658504683531 -0.2840843827952582 0.6792975046278514 -1.7658576759429774 7.092212942329036 0.2892585399974002 -0.32063172878889373 -1.0150690683439498 9.076545841884293" Properties=species:S:1:pos:R:3:initial_magmoms:R:1:castep_labels:S:1 n_minim_iter=13 pbc="T T T"
P        3.50112177       4.90439243       6.51122212       0.00000000 NULL
P        1.49008112       4.01625292       6.31488005       0.00000000 NULL
P        1.82705002       4.50110253       4.32724534       0.00000000 NULL
P        5.54339224      -0.09017270       4.20255283       0.00000000 NULL
P        0.24896934      -0.94661364       8.99950878       0.00000000 NULL
P        0.33098159       6.12411952       6.40296993       0.00000000 NULL
P        2.14079542       1.32668572       3.34025094       0.00000000 NULL
P        3.44792169       2.59297318       7.53590343       0.00000000 NULL
P        1.29855525       2.92709088       8.15611321       0.00000000 NULL
P        2.47282212       3.12283417       2.12553706       0.00000000 NULL
P        4.89207119       0.52738050       9.31240053       0.00000000 NULL
P        1.44967657       1.85102757       6.12029999       0.00000000 NULL
P        3.16248375       4.64029884       8.63036413       0.00000000 NULL
P        3.70662052       0.49855363       4.99125142       0.00000000 NULL
P        4.59290903       0.79033950       7.18171395       0.00000000 NULL
15
Lattice="5.84325766883621 -0.30154573983941924 0.6994135922028422 -1.78645308060907 7.085693580972508 0.2890853126015225 -0.27963058966514426 -1.0019957893761526 9.081606645199802" Properties=species:S:1:pos:R:3:initial_magmoms:R:1:castep_labels:S:1 n_minim_iter=14 pbc="T T T"
P        3.50528627       4.89277829       6.53162533       0.00000000 NULL
P        1.49373483       4.01607374       6.32588636       0.00000000 NULL
P        1.82479524       4.49247626       4.33577857       0.00000000 NULL
P        5.55032663      -0.10529059       4.22365703       0.00000000 NULL
P        0.28834536      -0.93481016       9.00551391       0.00000000 NULL
P        0.33571974       6.11837465       6.41290804       0.00000000 NULL
P        2.14443992       1.32142755       3.35068355       0.00000000 NULL
P        3.46332319       2.58553785       7.55507224       0.00000000 NULL
P        1.31663189       2.92484349       8.17065315       0.00000000 NULL
P        2.46507730       3.11211152       2.14194931       0.00000000 NULL
P        4.91855501       0.52086821       9.33856221       0.00000000 NULL
P        1.46395752       1.84839690       6.13191140       0.00000000 NULL
P        3.17420448       4.63308212       8.65382941       0.00000000 NULL
P        3.71418851       0.49235682       5.00714901       0.00000000 NULL
P        4.61218268       0.78125319       7.20390612       0.00000000 NULL
15
Lattice="5.8069007441762635 -0.37701352518942804 0.7828811999243395 -1.8754545700185365 7.0581666649768 0.2894374193377394 -0.10818336983868562 -0.9453000480243549 9.10905838250814" Properties=species:S:1:pos:R:3:initial_magmoms:R:1:castep_labels:S:1 n_minim_iter=15 pbc="T T T"
P        3.51985294       4.84305946       6.62183235       0.00000000 NULL
P        1.50540675       4.01586774       6.37610316       0.00000000 NULL
P        1.81194397       4.45550755       4.37298311       0.00000000 NULL
P        5.57830824      -0.17091239       4.31346639       0.00000000 NULL
P        0.45259660      -0.88343432       9.03662387       0.00000000 NULL
P        0.35240535       6.09431650       6.45939940       0.00000000 NULL
P        2.15824999       1.29847852       3.39652786       0.00000000 NULL
P        3.52556364       2.55405861       7.64014494       0.00000000 NULL
P        1.39032642       2.91588104       8.23728797       0.00000000 NULL
P        2.43080754       3.06662637       2.21230838       0.00000000 NULL
P        5.02773638       0.49308337       9.45374601       0.00000000 NULL
P        1.52211531       1.83731182       6.18452171       0.00000000 NULL
P        3.21965179       4.60230250       8.75761395       0.00000000 NULL
P        3.74403197       0.46643933       5.07637632       0.00000000 NULL
P        4.69149549       0.74212785       7.30135667       0.00000000 NULL
15
Lattice="5.710203463624667 -0.5070189065566622 0.8878121013390051 -2.0206344353849177 7.012922093865465 0.3070870985454278 0.13154844644840594 -0.8381893893856893 9.180948782589189" Properties=species:S:1:pos:R:3:initial_magmoms:R:1:castep_labels:S:1 n_minim_iter=16 pbc="T T T"
P        3.49047282       4.76484179       6.77673924       0.00000000 NULL
P        1.47540542       4.02460170       6.47137105       0.00000000 NULL
P        1.75067291       4.39627186       4.42941864       0.00000000 NULL
P        5.57403047      -0.28420046       4.43792221       0.00000000 NULL
P        0.67706917      -0.78317631       9.10999241       0.00000000 NULL
P        0.33926774       6.06106019       6.55817853       0.00000000 NULL
P        2.15034717       1.25885340       3.47241414       0.00000000 NULL
P        3.56892164       2.50958993       7.78438705       0.00000000 NULL
P        1.46094491       2.90945363       8.36686673       0.00000000 NULL
P        2.34659739       2.99480706       2.32481794       0.00000000 NULL
P        5.13337216       0.45461425       9.64192547       0.00000000 NULL
P        1.57603776       1.82309441       6.28078145       0.00000000 NULL
P        3.22574823       4.55755656       8.93605339       0.00000000 NULL
P        3.74540624       0.43198289       5.18415331       0.00000000 NULL
P        4.76149955       0.68033819       7.45886139       0.00000000 NULL
15
Lattice="5.640669815652314 -0.6066137042459195 0.9272872542198101 -2.132939923348737 7.10536358261022 0.35811754175548477 0.24603495597425262 -0.7507389240873109 9.256144767807351" Properties=species:S:1:pos:R:3:initial_magmoms:R:1:castep_labels:S:1 n_minim_iter=17 pbc="T T T"
P        3.43134236       4.81188640       6.90750983       0.00000000 NULL
P        1.40790291       4.11843876       6.56181025       0.00000000 NULL
P        1.67524983       4.44232476       4.48127999       0.00000000 NULL
P        5.54987757      -0.36368561       4.50032042       0.00000000 NULL
P        0.78403325      -0.69776160       9.18598028       0.00000000 NULL
P        0.28079741       6.16316246       6.67207015       0.00000000 NULL
P        2.12488216       1.25702815       3.53148360       0.00000000 NULL
P        3.55412855       2.54567163       7.89892255       0.00000000 NULL
P        1.45834957       2.98035365       8.48768592       0.00000000 NULL
P        2.27016328       3.00944033       2.40620009       0.00000000 NULL
P        5.15183328       0.46333251       9.77278693       0.00000000 NULL
P        1.57330331       1.86165020       6.36191376       0.00000000 NULL
P        3.16934778       4.62761778       9.07871848       0.00000000 NULL
P        3.72157498       0.43608874       5.25530337       0.00000000 NULL
P        4.76973541       0.66751892       7.56849411       0.00000000 NULL
15
Lattice="5.557075598866092 -0.6134897895811319 0.9232115942347926 -2.1218675231097457 7.068027139889568 0.38400578610438096 0.263330884835931 -0.7076897997346255 9.229703712198898" Properties=species:S:1:pos:R:3:initial_magmoms:R:1:castep_labels:S:1 n_minim_iter=18 pbc="T T T"
P        3.38512786       4.80379116       6.91163688       0.00000000 NULL
P        1.37575804       4.12321679       6.55593146       0.00000000 NULL
P        1.64319031       4.42844571       4.47453065       0.00000000 NULL
P        5.47641963      -0.36458931       4.48421943       0.00000000 NULL
P        0.79232957      -0.65257366       9.15874264       0.00000000 NULL
P        0.27109602       6.14997908       6.68039376       0.00000000 NULL
P        2.09400027       1.25556294       3.52873662       0.00000000 NULL
P        3.51045570       2.55466065       7.88900852       0.00000000 NULL
P        1.44057463       2.98995303       8.48160857       0.00000000 NULL
P        2.22932528       2.99955827       2.41869108       0.00000000 NULL
P        5.09263163       0.48722766       9.75276262       0.00000000 NULL
P        1.55301983       1.86996603       6.35274107       0.00000000 NULL
P        3.12150397       4.62887006       9.07362195       0.00000000 NULL
P        3.67131042       0.45186912       5.24303867       0.00000000 NULL
P        4.71503554       0.68040516       7.55561751       0.00000000 NULL
15
Lattice="5.550300384789996 -0.624130057244431 0.9244169295318079 -2.1340218734002927 7.1013190288126475 0.39920943874800696 0.2703859408860258 -0.6923180005888965 9.272048104502963" Properties=species:S:1:pos:R:3:initial_magmoms:R:1:castep_labels:S:1 n_minim_iter=19 pbc="T T T"
P        3.37863023       4.83236199       6.95321399       0.00000000 NULL
P        1.36204972       4.15430948       6.59065979       0.00000000 NULL
P        1.63291650       4.45211415       4.49586741       0.00000000 NULL
P        5.47323598      -0.37191242       4.50027896       0.00000000 NULL
P        0.79907724      -0.63621375       9.20072629       0.00000000 NULL
P        0.26126218       6.18683527       6.72436132       0.00000000 NULL
P        2.08971184       1.26198192       3.54775609       0.00000000 NULL
P        3.50714147       2.57493193       7.93000751       0.00000000 NULL
P        1.43510535       3.01489583       8.52935534       0.00000000 NULL
P        2.22005718       3.01571542       2.43811372       0.00000000 NULL
P        5.09073997       0.49981875       9.79964900       0.00000000 NULL
P        1.54868949       1.88589039       6.38492446       0.00000000 NULL
P        3.11067884       4.66035583       9.12385248       0.00000000 NULL
P        3.66683261       0.46166926       5.26654182       0.00000000 NULL
P        4.71412103       0.68842573       7.59247910       0.00000000 NULL
15
Lattice="5.5256965075532145 -0.6317381715970259 0.922209460096677 -2.1379915181513303 7.110419596586527 0.4152184553970567 0.2755197262484732 -0.6721786010890292 9.282388341731902" Properties=species:S:1:pos:R:3:initial_magmoms:R:1:castep_labels:S:1 n_minim_iter=20 pbc="T T T"
P        3.36145182       4.84667686       6.97256361       0.00000000 NULL
P        1.34462770       4.17294711       6.60403831       0.00000000 NULL
P        1.61805278       4.46198689       4.50351326       0.00000000 NULL
P        5.45185666      -0.37591356       4.50081011       0.00000000 NULL
P        0.80188132      -0.61514011       9.21068939       0.00000000 NULL
P        0.25129554       6.20458583       6.74718323       0.00000000 NULL
P        2.07865425       1.26549243       3.55483599       0.00000000 NULL
P        3.49214470       2.58901567       7.94445214       0.00000000 NULL
P        1.42505879       3.03207571       8.54853012       0.00000000 NULL
P        2.20418844       3.02238484       2.45022172       0.00000000 NULL
P        5.07183590       0.51370042       9.81274431       0.00000000 NULL
P        1.53925614       1.89754616       6.39593469       0.00000000 NULL
P        3.09011201       4.67879660       9.14396435       0.00000000 NULL
P        3.65051511       0.47148133       5.27215272       0.00000000 NULL
P        4.69762519       0.69674618       7.60367733       0.00000000 NULL
15
Lattice="5.406426323810217 -0.669162957498668 0.9091039609740058 -2.1579384384415135 7.1613304683592345 0.4975780797081912 0.29657834334827177 -0.5706268054499158 9.342364302950344" Properties=species:S:1:pos:R:3:initial_magmoms:R:1:castep_labels:S:1 n_minim_iter=21 pbc="T T T"
P        3.27545803       4.92378093       7.07473443       0.00000000 NULL
P        1.25654107       4.27029264       6.67631303       0.00000000 NULL
P        1.54392084       4.51526079       4.54554935       0.00000000 NULL
P        5.34674501      -0.39534480       4.50405994       0.00000000 NULL
P        0.81183577      -0.50897506       9.26890034       0.00000000 NULL
P        0.19969326       6.29944154       6.86879491       0.00000000 NULL
P        2.02377656       1.28485363       3.59235994       0.00000000 NULL
P        3.41669432       2.66302152       8.02248433       0.00000000 NULL
P        1.37269411       3.12255956       8.65217378       0.00000000 NULL
P        2.12595162       3.05951199       2.51242420       0.00000000 NULL
P        4.97620705       0.58619010       9.88459336       0.00000000 NULL
P        1.49077887       1.95894143       6.45590597       0.00000000 NULL
P        2.98652491       4.77655490       9.25171635       0.00000000 NULL
P        3.56982134       0.52275738       5.30311113       0.00000000 NULL
P        4.61468376       0.74085690       7.66441245       0.00000000 NULL
15