24
Lattice="4.34881 0.0 0.0 0.0 6.86015 0.0 0.0 0.0 17.00853" Properties=species:S:1:pos:R:3:initial_magmoms:R:1:castep_labels:S:1 n_minim_iter=1 pbc="T T T"
P        0.91894617       3.85648683      13.63205105       0.00000000 NULL
P        3.42986383       3.00366317       5.12778605       0.00000000 NULL
P        3.42986383       3.85648683      11.88074395       0.00000000 NULL
P        0.91894617       3.00366317       3.37647895       0.00000000 NULL
P        3.34721643       4.90941901       6.79846422       0.00000000 NULL
P        1.00159357       1.95073099      15.30272922       0.00000000 NULL
P        1.00159357       4.90941901       1.70580078       0.00000000 NULL
P        3.34721643       1.95073099      10.21006578       0.00000000 NULL
P        2.79837791       6.19712816      15.94834410       0.00000000 NULL
P        1.55043209       0.66302184       7.44407910       0.00000000 NULL
P        1.55043209       6.19712816       9.56445090       0.00000000 NULL
P        2.79837791       0.66302184       1.06018590       0.00000000 NULL
P        4.02868453       2.22231541      13.77152100       0.00000000 NULL
P        0.32012547       4.63783459       5.26725600       0.00000000 NULL
P        0.32012547       2.22231541      11.74127400       0.00000000 NULL
P        4.02868453       4.63783459       3.23700900       0.00000000 NULL
P        4.00510398       5.19582273      14.44579526       0.00000000 NULL
P        0.34370602       1.66432727       5.94153026       0.00000000 NULL
P        0.34370602       5.19582273      11.06699974       0.00000000 NULL
P        4.00510398       1.66432727       2.56273474       0.00000000 NULL
P        1.56567249       6.71760294      13.56423464       0.00000000 NULL
P        2.78313751       0.14254706       5.05996964       0.00000000 NULL
P        2.78313751       6.71760294      11.94856036       0.00000000 NULL
P        1.56567249       0.14254706       3.44429536       0.00000000 NULL
24
Lattice="4.356614598227956 0.0 0.0 0.0 6.874622351740413 0.0 0.0 0.0 17.028158717950816" Properties=species:S:1:pos:R:3:initial_magmoms:R:1:castep_labels:S:1 n_minim_iter=2 pbc="T T T"
P        0.92094771       3.86461623      13.64782359       0.00000000 NULL
P        3.43566689       3.01000612       5.13374423       0.00000000 NULL
P        3.43566689       3.86461623      11.89441448       0.00000000 NULL
P        0.92094771       3.01000612       3.38033512       0.00000000 NULL
P        3.35308376       4.91982175       6.80637501       0.00000000 NULL
P        1.00353084       1.95480060      15.32045437       0.00000000 NULL
P        1.00353084       4.91982175       1.70770435       0.00000000 NULL
P        3.35308376       1.95480060      10.22178371       0.00000000 NULL
P        2.80335816       6.21020486      15.96665422       0.00000000 NULL
P        1.55325644       0.66441749       7.45257487       0.00000000 NULL
P        1.55325644       6.21020486       9.57558385       0.00000000 NULL
P        2.80335816       0.66441749       1.06150449       0.00000000 NULL
P        4.03560289       2.22678412      13.78749284       0.00000000 NULL
P        0.32101171       4.64783823       5.27341348       0.00000000 NULL
P        0.32101171       2.22678412      11.75474524       0.00000000 NULL
P        4.03560289       4.64783823       3.24066588       0.00000000 NULL
P        4.01219910       5.20703974      14.46255489       0.00000000 NULL
P        0.34441549       1.66758262       5.94847553       0.00000000 NULL
P        0.34441549       5.20703974      11.07968319       0.00000000 NULL
P        4.01219910       1.66758262       2.56560383       0.00000000 NULL
P        1.56835239       6.73178082      13.58018984       0.00000000 NULL
P        2.78826221       0.14284153       5.06611048       0.00000000 NULL
P        2.78826221       6.73178082      11.96204824       0.00000000 NULL
P        1.56835239       0.14284153       3.44796888       0.00000000 NULL
24
Lattice="4.464607449457195 0.0 0.0 0.0 7.0776667309307415 0.0 0.0 0.0 17.288153663931354" Properties=species:S:1:pos:R:3:initial_magmoms:R:1:castep_labels:S:1 n_minim_iter=3 pbc="T T T"
P        0.94891812       3.97864518      13.85685870       0.00000000 NULL
P        3.51568933       3.09902155       5.21278187       0.00000000 NULL
P        3.51568933       3.97864518      12.07537179       0.00000000 NULL
P        0.94891812       3.09902155       3.43129496       0.00000000 NULL
P        3.43416096       5.06578836       6.91118043       0.00000000 NULL
P        1.03044649       2.01187837      15.55525726       0.00000000 NULL
P        1.03044649       5.06578836       1.73289640       0.00000000 NULL
P        3.43416096       2.01187837      10.37697323       0.00000000 NULL
P        2.87224134       6.39366839      16.20900210       0.00000000 NULL
P        1.59236611       0.68399834       7.56492527       0.00000000 NULL
P        1.59236611       6.39366839       9.72322839       0.00000000 NULL
P        2.87224134       0.68399834       1.07915156       0.00000000 NULL
P        4.13108310       2.28933570      13.99916804       0.00000000 NULL
P        0.33352435       4.78833103       5.35509121       0.00000000 NULL
P        0.33352435       2.28933570      11.93306246       0.00000000 NULL
P        4.13108310       4.78833103       3.28898563       0.00000000 NULL
P        4.11032469       5.36461573      14.68463965       0.00000000 NULL
P        0.35428276       1.71305100       6.04056281       0.00000000 NULL
P        0.35428276       5.36461573      11.24759085       0.00000000 NULL
P        4.11032469       1.71305100       2.60351402       0.00000000 NULL
P        1.60533593       6.93067957      13.79194283       0.00000000 NULL
P        2.85927152       0.14698717       5.14786599       0.00000000 NULL
P        2.85927152       6.93067957      12.14028767       0.00000000 NULL
P        1.60533593       0.14698717       3.49621084       0.00000000 NULL
24
Lattice="4.489728006810671 0.0 0.0 0.0 7.166017916408235 0.0 0.0 0.0 17.193333888162424" Properties=species:S:1:pos:R:3:initial_magmoms:R:1:castep_labels:S:1 n_minim_iter=4 pbc="T T T"
P        0.95830378       4.02780879      13.78228491       0.00000000 NULL
P        3.53142422       3.13820913       5.18561797       0.00000000 NULL
P        3.53142422       4.02780879      12.00771592       0.00000000 NULL
P        0.95830378       3.13820913       3.41104897       0.00000000 NULL
P        3.45184885       5.12940291       6.87308237       0.00000000 NULL
P        1.03787915       2.03661501      15.46974931       0.00000000 NULL
P        1.03787915       5.12940291       1.72358457       0.00000000 NULL
P        3.45184885       2.03661501      10.32025152       0.00000000 NULL
P        2.88792747       6.47365778      16.11809487       0.00000000 NULL
P        1.60180054       0.69236013       7.52142793       0.00000000 NULL
P        1.60180054       6.47365778       9.67190596       0.00000000 NULL
P        2.88792747       0.69236013       1.07523902       0.00000000 NULL
P        4.15057918       2.31539417      13.92361603       0.00000000 NULL
P        0.33914883       4.85062375       5.32694908       0.00000000 NULL
P        0.33914883       2.31539417      11.86638481       0.00000000 NULL
P        4.15057918       4.85062375       3.26971786       0.00000000 NULL
P        4.13280802       5.43514534      14.60494722       0.00000000 NULL
P        0.35691999       1.73087258       6.00828027       0.00000000 NULL
P        0.35691999       5.43514534      11.18505361       0.00000000 NULL
P        4.13280802       1.73087258       2.58838667       0.00000000 NULL
P        1.61282175       7.01691975      13.72050720       0.00000000 NULL
P        2.87690625       0.14909816       5.12384025       0.00000000 NULL
P        2.87690625       7.01691975      12.06949364       0.00000000 NULL
P        1.61282175       0.14909816       3.47282669       0.00000000 NULL
24
Lattice="4.504392364686835 0.0 0.0 0.0 7.254284260227401 0.0 0.0 0.0 16.941897912845196" Properties=species:S:1:pos:R:3:initial_magmoms:R:1:castep_labels:S:1 n_minim_iter=5 pbc="T T T"
P        0.96706366       4.07619206      13.58332324       0.00000000 NULL
P        3.53732870       3.17809220       5.11237428       0.00000000 NULL
P        3.53732870       4.07619206      11.82952363       0.00000000 NULL
P        0.96706366       3.17809220       3.35857467       0.00000000 NULL
P        3.46043651       5.19318325       6.77217532       0.00000000 NULL
P        1.04395586       2.06110101      15.24312428       0.00000000 NULL
P        1.04395586       5.19318325       1.69877364       0.00000000 NULL
P        3.46043651       2.06110101      10.16972259       0.00000000 NULL
P        2.89649271       6.55375559      15.87887476       0.00000000 NULL
P        1.60789966       0.70052867       7.40792581       0.00000000 NULL
P        1.60789966       6.55375559       9.53397211       0.00000000 NULL
P        2.89649271       0.70052867       1.06302315       0.00000000 NULL
P        4.15817637       2.34046744      13.72219721       0.00000000 NULL
P        0.34621599       4.91381682       5.25124826       0.00000000 NULL
P        0.34621599       2.34046744      11.69064966       0.00000000 NULL
P        4.15817637       4.91381682       3.21970070       0.00000000 NULL
P        4.14584939       5.50769692      14.39238394       0.00000000 NULL
P        0.35854298       1.74658734       5.92143498       0.00000000 NULL
P        0.35854298       5.50769692      11.02046293       0.00000000 NULL
P        4.14584939       1.74658734       2.54951397       0.00000000 NULL
P        1.61560781       7.10271049      13.52670178       0.00000000 NULL
P        2.88878455       0.15157377       5.05575282       0.00000000 NULL
P        2.88878455       7.10271049      11.88614509       0.00000000 NULL
P        1.61560781       0.15157377       3.41519613       0.00000000 NULL
24
Lattice="4.5310299771473295 0.0 0.0 0.0 7.341580596563525 0.0 0.0 0.0 16.452368299796184" Properties=species:S:1:pos:R:3:initial_magmoms:R:1:castep_labels:S:1 n_minim_iter=6 pbc="T T T"
P        0.98266363       4.12182391      13.19645203       0.00000000 NULL
P        3.54836635       3.21975668       4.97026788       0.00000000 NULL
P        3.54836635       4.12182391      11.48210042       0.00000000 NULL
P        0.98266363       3.21975668       3.25591627       0.00000000 NULL
P        3.47450315       5.25719242       6.57651711       0.00000000 NULL
P        1.05652683       2.08438817      14.80270126       0.00000000 NULL
P        1.05652683       5.25719242       1.64966704       0.00000000 NULL
P        3.47450315       2.08438817       9.87585119       0.00000000 NULL
P        2.91120651       6.63328826      15.41238911       0.00000000 NULL
P        1.61982346       0.70829234       7.18620496       0.00000000 NULL
P        1.61982346       6.63328826       9.26616334       0.00000000 NULL
P        2.91120651       0.70829234       1.03997919       0.00000000 NULL
P        4.16951169       2.36295059      13.33111539       0.00000000 NULL
P        0.36151828       4.97863000       5.10493124       0.00000000 NULL
P        0.36151828       2.36295059      11.34743706       0.00000000 NULL
P        4.16951169       4.97863000       3.12125291       0.00000000 NULL
P        4.17078322       5.58520216      13.97778355       0.00000000 NULL
P        0.36024675       1.75637844       5.75159940       0.00000000 NULL
P        0.36024675       5.58520216      10.70076890       0.00000000 NULL
P        4.17078322       1.75637844       2.47458475       0.00000000 NULL
P        1.61972941       7.18657071      13.15035677       0.00000000 NULL
P        2.91130057       0.15500989       4.92417262       0.00000000 NULL
P        2.91130057       7.18657071      11.52819568       0.00000000 NULL
P        1.61972941       0.15500989       3.30201153       0.00000000 NULL
24
Lattice="4.588816627491687 0.0 0.0 0.0 7.3287883847755575 0.0 0.0 0.0 16.31646287054909" Properties=species:S:1:pos:R:3:initial_magmoms:R:1:castep_labels:S:1 n_minim_iter=7 pbc="T T T"
P        1.00068244       4.11177453      13.09138532       0.00000000 NULL
P        3.58813419       3.21701385       4.93315388       0.00000000 NULL
P        3.58813419       4.11177453      11.38330899       0.00000000 NULL
P        1.00068244       3.21701385       3.22507755       0.00000000 NULL
P        3.51329090       5.24937145       6.52328015       0.00000000 NULL
P        1.07552573       2.07941694      14.68151159       0.00000000 NULL
P        1.07552573       5.24937145       1.63495128       0.00000000 NULL
P        3.51329090       2.07941694       9.79318272       0.00000000 NULL
P        2.94572174       6.62191182      15.27962248       0.00000000 NULL
P        1.64309489       0.70687656       7.12139105       0.00000000 NULL
P        1.64309489       6.62191182       9.19507182       0.00000000 NULL
P        2.94572174       0.70687656       1.03684039       0.00000000 NULL
P        4.21204195       2.35632506      13.22588282       0.00000000 NULL
P        0.37677468       4.97246332       5.06765138       0.00000000 NULL
P        0.37677468       2.35632506      11.24881149       0.00000000 NULL
P        4.21204195       4.97246332       3.09058005       0.00000000 NULL
P        4.22562629       5.58229996      13.86239628       0.00000000 NULL
P        0.36319034       1.74648843       5.70416485       0.00000000 NULL
P        0.36319034       5.58229996      10.61229802       0.00000000 NULL
P        4.22562629       1.74648843       2.45406659       0.00000000 NULL
P        1.63634243       7.17296511      13.05202991       0.00000000 NULL
P        2.95247420       0.15582327       4.89379847       0.00000000 NULL
P        2.95247420       7.17296511      11.42266440       0.00000000 NULL
P        1.63634243       0.15582327       3.26443297       0.00000000 NULL
24
Lattice="4.591176236647212 0.0 0.0 0.0 7.324255447481274 0.0 0.0 0.0 16.297743849351484" Properties=species:S:1:pos:R:3:initial_magmoms:R:1:castep_labels:S:1 n_minim_iter=8 pbc="T T T"
P        1.00150444       4.10904763      13.07660414       0.00000000 NULL
P        3.58967179       3.21520781       4.92773221       0.00000000 NULL
P        3.58967179       4.10904763      11.37001164       0.00000000 NULL
P        1.00150444       3.21520781       3.22113971       0.00000000 NULL
P        3.51479033       5.24619540       6.51582542       0.00000000 NULL
P        1.07638591       2.07806004      14.66469735       0.00000000 NULL
P        1.07638591       5.24619540       1.63304650       0.00000000 NULL
P        3.51479033       2.07806004       9.78191843       0.00000000 NULL
P        2.94706100       6.61782681      15.26176469       0.00000000 NULL
P        1.64411523       0.70642864       7.11289276       0.00000000 NULL
P        1.64411523       6.61782681       9.18485108       0.00000000 NULL
P        2.94706100       0.70642864       1.03597916       0.00000000 NULL
P        4.21361283       2.35474579      13.21100048       0.00000000 NULL
P        0.37756341       4.96950965       5.06212855       0.00000000 NULL
P        0.37756341       2.35474579      11.23561530       0.00000000 NULL
P        4.21361283       4.96950965       3.08674337       0.00000000 NULL
P        4.22792617       5.57922016      13.84648334       0.00000000 NULL
P        0.36325006       1.74503529       5.69761142       0.00000000 NULL
P        0.36325006       5.57922016      10.60013243       0.00000000 NULL
P        4.22792617       1.74503529       2.45126051       0.00000000 NULL
P        1.63697566       7.16847248      13.03762961       0.00000000 NULL
P        2.95420057       0.15578297       4.88875768       0.00000000 NULL
P        2.95420057       7.16847248      11.40898617       0.00000000 NULL
P        1.63697566       0.15578297       3.26011424       0.00000000 NULL
24
Lattice="4.596625135138703 0.0 0.0 0.0 7.315143570757427 0.0 0.0 0.0 16.260351436316743" Properties=species:S:1:pos:R:3:initial_magmoms:R:1:castep_labels:S:1 n_minim_iter=9 pbc="T T T"
P        1.00334076       4.10355369      13.04709616       0.00000000 NULL
P        3.59328438       3.21158988       4.91692044       0.00000000 NULL
P        3.59328438       4.10355369      11.34343099       0.00000000 NULL
P        1.00334076       3.21158988       3.21325527       0.00000000 NULL
P        3.51831744       5.23981823       6.50093878       0.00000000 NULL
P        1.07830770       2.07532534      14.63111450       0.00000000 NULL
P        1.07830770       5.23981823       1.62923693       0.00000000 NULL
P        3.51831744       2.07532534       9.75941265       0.00000000 NULL
P        2.95018848       6.60961534      15.22606936       0.00000000 NULL
P        1.64643666       0.70552823       7.09589365       0.00000000 NULL
P        1.64643666       6.60961534       9.16445779       0.00000000 NULL
P        2.95018848       0.70552823       1.03428207       0.00000000 NULL
P        4.21736521       2.35156334      13.18129857       0.00000000 NULL
P        0.37925992       4.96358023       5.05112285       0.00000000 NULL
P        0.37925992       2.35156334      11.20922858       0.00000000 NULL
P        4.21736521       4.96358023       3.07905286       0.00000000 NULL
P        4.23321000       5.57305252      13.81469500       0.00000000 NULL
P        0.36341514       1.74209105       5.68451928       0.00000000 NULL
P        0.36341514       5.57305252      10.57583215       0.00000000 NULL
P        4.23321000       1.74209105       2.44565644       0.00000000 NULL
P        1.63848297       7.15944113      13.00890866       0.00000000 NULL
P        2.95814216       0.15570245       4.87873294       0.00000000 NULL
P        2.95814216       7.15944113      11.38161850       0.00000000 NULL
P        1.63848297       0.15570245       3.25144278       0.00000000 NULL
24
Lattice="4.713416270321093 0.0 0.0 0.0 7.162572192547734 0.0 0.0 0.0 15.649233177288894" Properties=species:S:1:pos:R:3:initial_magmoms:R:1:castep_labels:S:1 n_minim_iter=10 pbc="T T T"
P        1.04095138       4.01127286      12.56524749       0.00000000 NULL
P        3.67246489       3.15129933       4.74063090       0.00000000 NULL
P        3.67246489       4.01127286      10.90860228       0.00000000 NULL
P        1.04095138       3.15129933       3.08398569       0.00000000 NULL
P        3.59576745       5.13321865       6.25775653       0.00000000 NULL
P        1.11764882       2.02935354      14.08237312       0.00000000 NULL
P        1.11764882       5.13321865       1.56686006       0.00000000 NULL
P        3.59576745       2.02935354       9.39147665       0.00000000 NULL
P        3.01819410       6.47211215      14.64219736       0.00000000 NULL
P        1.69522217       0.69046005       6.81758077       0.00000000 NULL
P        1.69522217       6.47211215       8.83165240       0.00000000 NULL
P        3.01819410       0.69046005       1.00703581       0.00000000 NULL
P        4.30136359       2.29810938      12.69650551       0.00000000 NULL
P        0.41205268       4.86446281       4.87188892       0.00000000 NULL
P        0.41205268       2.29810938      10.77734426       0.00000000 NULL
P        4.30136359       4.86446281       2.95272767       0.00000000 NULL
P        4.34569662       5.47027138      13.29512937       0.00000000 NULL
P        0.36771965       1.69230082       5.47051279       0.00000000 NULL
P        0.36771965       5.47027138      10.17872039       0.00000000 NULL
P        4.34569662       1.69230082       2.35410380       0.00000000 NULL
P        1.67208933       7.00825366      12.54048452       0.00000000 NULL
P        3.04132694       0.15431853       4.71586793       0.00000000 NULL
P        3.04132694       7.00825366      10.93336525       0.00000000 NULL
P        1.67208933       0.15431853       3.10874866       0.00000000 NULL
24
Lattice="5.117319034062173 0.0 0.0 0.0 7.029363487711597 0.0 0.0 0.0 15.413107997911881" Properties=species:S:1:pos:R:3:initial_magmoms:R:1:castep_labels:S:1 n_minim_iter=11 pbc="T T T"
P        1.14786576       3.92957097      12.38442125       0.00000000 NULL
P        3.96945328       3.09979252       4.67786726       0.00000000 NULL
P        3.96945328       3.92957097      10.73524074       0.00000000 NULL
P        1.14786576       3.09979252       3.02868674       0.00000000 NULL
P        3.88927622       5.04106379       6.16500869       0.00000000 NULL
P        1.22804282       1.98829970      13.87156269       0.00000000 NULL
P        1.22804282       5.04106379       1.54154531       0.00000000 NULL
P        3.88927622       1.98829970       9.24809930       0.00000000 NULL
P        3.26572210       6.35169182      14.41113157       0.00000000 NULL
P        1.85159694       0.67767167       6.70457757       0.00000000 NULL
P        1.85159694       6.35169182       8.70853043       0.00000000 NULL
P        3.26572210       0.67767167       1.00197643       0.00000000 NULL
P        4.64070107       2.25147113      12.51763787       0.00000000 NULL
P        0.47661796       4.77789236       4.81108387       0.00000000 NULL
P        0.47661796       2.25147113      10.60202413       0.00000000 NULL
P        4.64070107       4.77789236       2.89547013       0.00000000 NULL
P        4.72459139       5.38066216      13.09394076       0.00000000 NULL
P        0.39272764       1.64870132       5.38738677       0.00000000 NULL
P        0.39272764       5.38066216      10.02572123       0.00000000 NULL
P        4.72459139       1.64870132       2.31916723       0.00000000 NULL
P        1.80666616       6.87831618      12.37101982       0.00000000 NULL
P        3.31065288       0.15104730       4.66446582       0.00000000 NULL
P        3.31065288       6.87831618      10.74864218       0.00000000 NULL
P        1.80666616       0.15104730       3.04208818       0.00000000 NULL
24
Lattice="5.095934457439459 0.0 0.0 0.0 6.885411677554599 0.0 0.0 0.0 14.99118625568165" Properties=species:S:1:pos:R:3:initial_magmoms:R:1:castep_labels:S:1 n_minim_iter=12 pbc="T T T"
P        1.14580257       3.84764211      12.04672508       0.00000000 NULL
P        3.95013189       3.03776957       4.55113195       0.00000000 NULL
P        3.95013189       3.84764211      10.44005431       0.00000000 NULL
P        1.14580257       3.03776957       2.94446118       0.00000000 NULL
P        3.87211909       4.93806350       5.99544576       0.00000000 NULL
P        1.22381536       1.94734818      13.49103888       0.00000000 NULL
P        1.22381536       4.93806350       1.50014737       0.00000000 NULL
P        3.87211909       1.94734818       8.99574050       0.00000000 NULL
P        3.24987656       6.22156186      14.01491718       0.00000000 NULL
P        1.84605790       0.66384982       6.51932406       0.00000000 NULL
P        1.84605790       6.22156186       8.47186220       0.00000000 NULL
P        3.24987656       0.66384982       0.97626907       0.00000000 NULL
P        4.61912575       2.20510990      12.17665780       0.00000000 NULL
P        0.47680871       4.68030178       4.68106467       0.00000000 NULL
P        0.47680871       2.20510990      10.31012158       0.00000000 NULL
P        4.61912575       4.68030178       2.81452846       0.00000000 NULL
P        4.70596624       5.27206990      12.73538830       0.00000000 NULL
P        0.38996822       1.61334177       5.23979518       0.00000000 NULL
P        0.38996822       5.27206990       9.75139108       0.00000000 NULL
P        4.70596624       1.61334177       2.25579795       0.00000000 NULL
P        1.79906556       6.73778497      12.03480958       0.00000000 NULL
P        3.29686890       0.14762671       4.53921646       0.00000000 NULL
P        3.29686890       6.73778497      10.45196980       0.00000000 NULL
P        1.79906556       0.14762671       2.95637667       0.00000000 NULL
24
Lattice="5.157867675501005 0.0 0.0 0.0 6.784081160710459 0.0 0.0 0.0 14.741588968911326" Properties=species:S:1:pos:R:3:initial_magmoms:R:1:castep_labels:S:1 n_minim_iter=13 pbc="T T T"
P        1.16454794       3.78949275      11.84770333       0.00000000 NULL
P        3.99331974       2.99458841       4.47690884       0.00000000 NULL
P        3.99331974       3.78949275      10.26468013       0.00000000 NULL
P        1.16454794       2.99458841       2.89388564       0.00000000 NULL
P        3.91705982       4.86600561       5.89537084       0.00000000 NULL
P        1.24080785       1.91807555      13.26616533       0.00000000 NULL
P        1.24080785       4.86600561       1.47542364       0.00000000 NULL
P        3.91705982       1.91807555       8.84621813       0.00000000 NULL
P        3.28618443       6.12981442      13.77988704       0.00000000 NULL
P        1.87168325       0.65426674       6.40909255       0.00000000 NULL
P        1.87168325       6.12981442       8.33249642       0.00000000 NULL
P        3.28618443       0.65426674       0.96170193       0.00000000 NULL
P        4.67040697       2.17202572      11.97663483       0.00000000 NULL
P        0.48746071       4.61205544       4.60584035       0.00000000 NULL
P        0.48746071       2.17202572      10.13574862       0.00000000 NULL
P        4.67040697       4.61205544       2.76495414       0.00000000 NULL
P        4.76427259       5.19660540      12.52334475       0.00000000 NULL
P        0.39359509       1.58747576       5.15255026       0.00000000 NULL
P        0.39359509       5.19660540       9.58903871       0.00000000 NULL
P        4.76427259       1.58747576       2.21824422       0.00000000 NULL
P        1.82048295       6.63930786      11.83757450       0.00000000 NULL
P        3.33738472       0.14477330       4.46678002       0.00000000 NULL
P        3.33738472       6.63930786      10.27480895       0.00000000 NULL
P        1.82048295       0.14477330       2.90401447       0.00000000 NULL
24
Lattice="5.282222264169489 0.0 0.0 0.0 6.668942186989099 0.0 0.0 0.0 14.48218073664921" Properties=species:S:1:pos:R:3:initial_magmoms:R:1:castep_labels:S:1 n_minim_iter=14 pbc="T T T"
P        1.20110370       3.72304545      11.64134871       0.00000000 NULL
P        4.08111856       2.94589674       4.40025834       0.00000000 NULL
P        4.08111856       3.72304545      10.08192240       0.00000000 NULL
P        1.20110370       2.94589674       2.84083203       0.00000000 NULL
P        4.00790036       4.78460964       5.79161635       0.00000000 NULL
P        1.27432190       1.88433255      13.03270672       0.00000000 NULL
P        1.27432190       4.78460964       1.44947401       0.00000000 NULL
P        4.00790036       1.88433255       8.69056438       0.00000000 NULL
P        3.35999722       6.02541797      13.53520672       0.00000000 NULL
P        1.92222504       0.64352422       6.29411635       0.00000000 NULL
P        1.92222504       6.02541797       8.18806438       0.00000000 NULL
P        3.35999722       0.64352422       0.94697401       0.00000000 NULL
P        4.77467337       2.13409090      11.77031933       0.00000000 NULL
P        0.50754889       4.53485129       4.52922896       0.00000000 NULL
P        0.50754889       2.13409090       9.95295177       0.00000000 NULL
P        4.77467337       4.53485129       2.71186140       0.00000000 NULL
P        4.88058109       5.11159968      12.30309627       0.00000000 NULL
P        0.40164117       1.55734250       5.06200590       0.00000000 NULL
P        0.40164117       5.11159968       9.42017483       0.00000000 NULL
P        4.88058109       1.55734250       2.17908446       0.00000000 NULL
P        1.86392094       6.52792250      11.63383681       0.00000000 NULL
P        3.41830132       0.14101969       4.39274645       0.00000000 NULL
P        3.41830132       6.52792250      10.08943429       0.00000000 NULL
P        1.86392094       0.14101969       2.84834392       0.00000000 NULL
24
Lattice="5.8237867691222185 0.0 0.0 0.0 6.197991926753019 0.0 0.0 0.0 13.38267692029201" Properties=species:S:1:pos:R:3:initial_magmoms:R:1:castep_labels:S:1 n_minim_iter=15 pbc="T T T"
P        1.37424603       3.45128418      10.76574363       0.00000000 NULL
P        4.44954074       2.74670775       4.07440517       0.00000000 NULL
P        4.44954074       3.45128418       9.30827175       0.00000000 NULL
P        1.37424603       2.74670775       2.61693329       0.00000000 NULL
P        4.40010286       4.45364361       5.35296164       0.00000000 NULL
P        1.42368391       1.74434832      12.04430010       0.00000000 NULL
P        1.42368391       4.45364361       1.33837682       0.00000000 NULL
P        4.40010286       1.74434832       8.02971528       0.00000000 NULL
P        3.67192248       5.59762393      12.49857553       0.00000000 NULL
P        2.15186429       0.60036799       5.80723707       0.00000000 NULL
P        2.15186429       5.59762393       7.57543985       0.00000000 NULL
P        3.67192248       0.60036799       0.88410139       0.00000000 NULL
P        5.22039645       1.97820314      10.89793750       0.00000000 NULL
P        0.60339032       4.21978879       4.20659904       0.00000000 NULL
P        0.60339032       1.97820314       9.17607788       0.00000000 NULL
P        5.22039645       4.21978879       2.48473942       0.00000000 NULL
P        5.38726674       4.76526005      11.37024964       0.00000000 NULL
P        0.43652003       1.43273187       4.67891118       0.00000000 NULL
P        0.43652003       4.76526005       8.70376574       0.00000000 NULL
P        5.38726674       1.43273187       2.01242728       0.00000000 NULL
P        2.05731052       6.07424939      10.77016626       0.00000000 NULL