24
Lattice="4.7228074690716735 0.8436271450349124 0.0 -0.08662925210339949 5.413934445500797 0.0 0.0 0.0 17.678080887958906" Properties=species:S:1:pos:R:3:initial_magmoms:R:1:castep_labels:S:1:forces:R:3 n_minim_iter=1 energy=-123.60206279919 stress="-0.0008160119217781219 0.0006502064174773822 0.0 0.0006502064174773822 -0.00025340710855542814 0.0 0.0 0.0 0.0012945889055860317" free_energy=-123.60206279919 pbc="T T T"
P        2.32504922       1.41440020       7.88196263       0.00000000 NULL       0.13037500      -0.36365000      -0.07816400
P        2.31112900       4.84316139      16.72100307       0.00000000 NULL      -0.13037500       0.36365000      -0.07816400
P        3.76105831       2.54733716       2.04709205       0.00000000 NULL       0.25729100       0.09574000      -0.03598300
P        0.87511991       3.71022442      10.88613249       0.00000000 NULL      -0.25729100      -0.09574000      -0.03598300
P        1.54430392       1.38801402       2.25743957       0.00000000 NULL       0.61192200       0.44472500      -0.36353700
P        3.09187430       4.86954756      11.09648002       0.00000000 NULL      -0.61192200      -0.44472500      -0.36353700
P        4.44741050       2.85994968      12.62400975       0.00000000 NULL       0.28078500       0.56165600      -0.51362800
P        0.18876772       3.39761191       3.78496931       0.00000000 NULL      -0.28078500      -0.56165600      -0.51362800
P        0.24369392       5.03223009      17.37294250       0.00000000 NULL       0.03427400      -0.11380000      -0.00829400
P        4.39248429       1.22533149       8.53390205       0.00000000 NULL      -0.03427400       0.11380000      -0.00829400
P        1.66184273       1.82473023      13.81177095       0.00000000 NULL       0.39432400      -0.00630600      -0.07086900
P        2.97433549       4.43283136       4.97273050       0.00000000 NULL      -0.39432400       0.00630600      -0.07086900
P        1.79290953       4.90591079       1.27894573       0.00000000 NULL       0.17320800      -0.49614500       0.17507400
P        2.84326868       1.35165080      10.11798617       0.00000000 NULL      -0.17320900       0.49614500       0.17507500
P        1.57564385       4.29937095       6.78241241       0.00000000 NULL      -0.13186800       0.32794700       0.28594900
P        3.06053436       1.95819063      15.62145286       0.00000000 NULL       0.13186800      -0.32794700       0.28594900
P        0.18329061       2.68235725       6.09402683       0.00000000 NULL       0.10538400       0.15149000       0.20832900
P        4.45288761       3.57520433      14.93306728       0.00000000 NULL      -0.10538400      -0.15149000       0.20832900
P        0.02093714       4.48772955      12.73087716       0.00000000 NULL       0.02769200      -0.01498000      -0.01023300
P        4.61524107       1.76983203       3.89183672       0.00000000 NULL      -0.02769200       0.01498000      -0.01023300
P        1.22651730       2.88328249      16.75289440       0.00000000 NULL      -0.06422800       0.15956100       0.11781100
P        3.40966091       3.37427910       7.91385396       0.00000000 NULL       0.06422800      -0.15956100       0.11781100
P        1.93339087       5.11926008      13.70070769       0.00000000 NULL       0.05812700      -0.30615300       0.29354500
P        2.70278735       1.13830151       4.86166725       0.00000000 NULL      -0.05812700       0.30615300       0.29354500
24
Lattice="4.795289645609582 0.7812262524162888 0.0 -0.16511654619941743 5.44542579830753 0.0 0.0 0.0 17.19049657268844" Properties=species:S:1:pos:R:3:initial_magmoms:R:1:castep_labels:S:1:forces:R:3 n_minim_iter=2 energy=-123.773903961385 stress="0.005277114981488908 -0.004111260331637343 0.0 -0.004111260331637343 0.002848709264409514 0.0 0.0 0.0 -0.0034583932550329463" free_energy=-123.773903961385 pbc="T T T"
P        2.35310546       1.37174755       7.66094537       0.00000000 NULL       0.23689100      -0.31747400      -0.24671500
P        2.27706764       4.85490450      16.25619365       0.00000000 NULL      -0.23689200       0.31747400      -0.24671200
P        3.80454427       2.51254057       1.98896296       0.00000000 NULL       0.10105000       0.22238600      -0.34128500
P        0.82562883       3.71411148      10.58421124       0.00000000 NULL      -0.10105000      -0.22238600      -0.34128500
P        1.58158441       1.39472547       2.17832818       0.00000000 NULL       0.76019400       0.23666600      -0.19834100
P        3.04858869       4.83192658      10.77357647       0.00000000 NULL      -0.76019400      -0.23666700      -0.19834000
P        4.49955402       2.83946033      12.25201892       0.00000000 NULL       0.35698600       0.45971100      -0.51150300
P        0.13061908       3.38719172       3.65677063       0.00000000 NULL      -0.35698600      -0.45971100      -0.51150300
P        0.17827894       5.05141649      16.89338990       0.00000000 NULL       0.30523400      -0.33149400      -0.08987200
P        4.45189416       1.17523556       8.29814162       0.00000000 NULL      -0.30523200       0.33149400      -0.08987400
P        1.68476856       1.81074336      13.42754000       0.00000000 NULL       0.40826700      -0.33129600      -0.24759300
P        2.94540454       4.41590869       4.83229171       0.00000000 NULL      -0.40826700       0.33129600      -0.24759300
P        1.76399760       4.88395660       1.25178466       0.00000000 NULL       0.03843400      -0.12904700       0.52774400
P        2.86617550       1.34269544       9.84703295       0.00000000 NULL      -0.03843600       0.12904800       0.52774800
P        1.53610738       4.31681658       6.60859716       0.00000000 NULL       0.06767600       0.14695100       0.45710600
P        3.09406571       1.90983547      15.20384544       0.00000000 NULL      -0.06767600      -0.14695100       0.45710600
P        0.15345954       2.70193406       5.93560080       0.00000000 NULL       0.06901800       0.10889500       0.14436400
P        4.47671356       3.52471798      14.53084909       0.00000000 NULL      -0.06901800      -0.10889500       0.14436400
P       -0.04111032       4.51177871      12.37926886       0.00000000 NULL      -0.03473300       0.16912800       0.22800200
P        4.67128342       1.71487333       3.78402058       0.00000000 NULL       0.03473300      -0.16912800       0.22800200
P        1.20425602       2.88965865      16.29628793       0.00000000 NULL      -0.03358100       0.14326600       0.17918700
P        3.42591708       3.33699340       7.70103965       0.00000000 NULL       0.03358100      -0.14326600       0.17918700
P        1.89824806       5.10568555      13.33642895       0.00000000 NULL      -0.02523000       0.04858800       0.09890300
P        2.73192504       1.12096649       4.74118067       0.00000000 NULL       0.02523000      -0.04858800       0.09890300
24
Lattice="4.747577149690725 0.810579294569467 0.0 -0.11791941387056606 5.374477126725585 0.0 0.0 0.0 16.851830362440698" Properties=species:S:1:pos:R:3:initial_magmoms:R:1:castep_labels:S:1:forces:R:3 n_minim_iter=3 energy=-124.030831273023 stress="-0.014737149459953419 -0.002338103215307584 -0.0 -0.002338103215307584 -0.011811021812454508 -0.0 -0.0 -0.0 -0.019951194699995956" free_energy=-124.030831273023 pbc="T T T"
P        2.35277856       1.33926081       7.50017727       0.00000000 NULL      -0.34292900      -0.19298500      -0.50237900
P        2.27687917       4.84579561      15.92609245       0.00000000 NULL       0.34293000       0.19298500      -0.50238100
P        3.80467579       2.52284658       1.94163030       0.00000000 NULL      -0.13111900       0.31606100      -0.88818700
P        0.82498194       3.66220983      10.36754548       0.00000000 NULL       0.13111900      -0.31606100      -0.88818700
P        1.63731401       1.42847158       2.10472111       0.00000000 NULL       0.59837100       0.02063600      -0.07864600
P        2.99234373       4.75658484      10.53063629       0.00000000 NULL      -0.59837100      -0.02063600      -0.07864600
P        4.50062987       2.89200689      11.96360593       0.00000000 NULL       0.26724000       0.11653900      -0.50122700
P        0.12902787       3.29304953       3.53769075       0.00000000 NULL      -0.26724000      -0.11653900      -0.50122700
P        0.22657878       4.97355161      16.55852064       0.00000000 NULL      -0.37711400      -0.14716600       0.06587900
P        4.40307896       1.21150481       8.13260546       0.00000000 NULL       0.37711200       0.14716600       0.06588000
P        1.71961277       1.79493905      13.15370416       0.00000000 NULL       0.36618200      -0.16749800      -0.25661900
P        2.91004497       4.39011736       4.72778898       0.00000000 NULL      -0.36618200       0.16749800      -0.25661900
P        1.79950468       4.79457043       1.24877199       0.00000000 NULL       0.24863400       0.05143500       0.71674000
P        2.83015305       1.39048599       9.67468717       0.00000000 NULL      -0.24863300      -0.05143500       0.71673600
P        1.54511959       4.30266895       6.50732840       0.00000000 NULL      -0.04219400       0.11170900       0.39051900
P        3.08453815       1.88238747      14.93324358       0.00000000 NULL       0.04219400      -0.11170900       0.39051900
P        0.18375034       2.68240405       5.83674123       0.00000000 NULL      -0.02056500       0.00820900       0.16254100
P        4.44590740       3.50265237      14.26265641       0.00000000 NULL       0.02056500      -0.00820900       0.16254100
P       -0.00153386       4.45549105      12.13823498       0.00000000 NULL      -0.34072600       0.49632800       0.60209700
P        4.63119160       1.72956537       3.71231980       0.00000000 NULL       0.34072600      -0.49632800       0.60209700
P        1.20884844       2.87768581      15.98701052       0.00000000 NULL      -0.13730200      -0.07476500       0.22442200
P        3.42080929       3.30737061       7.56109534       0.00000000 NULL       0.13730200       0.07476500       0.22442200
P        1.92361550       5.03266774      13.09750079       0.00000000 NULL       0.00721700      -0.15162700       0.06486200
P        2.70604223       1.15238868       4.67158561       0.00000000 NULL      -0.00721700       0.15162700       0.06486200
24
Lattice="4.797429917157572 0.8667960516557097 0.0 -0.05718072765777847 5.390097781908191 0.0 0.0 0.0 16.971726853088512" Properties=species:S:1:pos:R:3:initial_magmoms:R:1:castep_labels:S:1:forces:R:3 n_minim_iter=4 energy=-124.295210867484 stress="8.29644142502947e-05 0.0028308422421576703 0.0 0.0028308422421576703 -0.00033272186964961937 0.0 0.0 0.0 -0.00395259025983353" free_energy=-124.295210867484 pbc="T T T"
P        2.40148197       1.33595818       7.54240075       0.00000000 NULL      -0.25696800       0.13000200      -0.22602100
P        2.33876722       4.92093565      16.02826417       0.00000000 NULL       0.25696700      -0.13000200      -0.22602000
P        3.88784281       2.58604176       1.94488697       0.00000000 NULL      -0.08092700       0.10876400      -0.70696300
P        0.85240638       3.67085207      10.43075039       0.00000000 NULL       0.08092700      -0.10876400      -0.70696300
P        1.73133774       1.49019488       2.08916734       0.00000000 NULL       0.33647000      -0.36798800       0.03561200
P        3.00891145       4.76669895      10.57503077       0.00000000 NULL      -0.33647000       0.36798800       0.03561200
P        4.60170977       3.00373803      12.00085957       0.00000000 NULL       0.34480200       0.12778500      -0.32567800
P        0.13853942       3.25315580       3.51499615       0.00000000 NULL      -0.34480200      -0.12778500      -0.32567800
P        0.29247242       4.97691644      16.67448553       0.00000000 NULL      -0.25353500      -0.07433800       0.35603600
P        4.44777677       1.27997739       8.18862210       0.00000000 NULL       0.25353600       0.07433800       0.35603500
P        1.79438565       1.81357771      13.23737734       0.00000000 NULL       0.22568500      -0.24961700      -0.04252900
P        2.94586354       4.44331612       4.75151392       0.00000000 NULL      -0.22568500       0.24961700      -0.04252900
P        1.88489998       4.78959932       1.28106050       0.00000000 NULL       0.13695500       0.58066100       0.21313900
P        2.85534921       1.46729451       9.76692393       0.00000000 NULL      -0.13695500      -0.58066000       0.21314000
P        1.59848468       4.36189347       6.58329340       0.00000000 NULL      -0.10313100      -0.20292100       0.05557900
P        3.14176450       1.89500036      15.06915683       0.00000000 NULL       0.10313100       0.20292100       0.05557900
P        0.22565371       2.70658959       5.89657655       0.00000000 NULL      -0.17253200       0.17818200       0.22307700
P        4.51459548       3.55030424      14.38243997       0.00000000 NULL       0.17253200      -0.17818200       0.22307700
P        0.05012137       4.47274432      12.22910964       0.00000000 NULL      -0.22357400       0.39887000       0.52852300
P        4.69012782       1.78414951       3.74324622       0.00000000 NULL       0.22357400      -0.39887000       0.52852300
P        1.24618711       2.91496447      16.11301289       0.00000000 NULL      -0.13917400      -0.04487000       0.00281700
P        3.49406208       3.34192936       7.62714946       0.00000000 NULL       0.13917400       0.04487000       0.00281700
P        2.00189838       5.04691809      13.21437940       0.00000000 NULL      -0.30907200      -0.05979000      -0.11359300
P        2.73835081       1.20997574       4.72851597       0.00000000 NULL       0.30907200       0.05979000      -0.11359300
24
Lattice="4.758888016589645 0.8092123864001802 0.0 -0.11892085961607135 5.370149897882416 0.0 0.0 0.0 17.124801553216688" Properties=species:S:1:pos:R:3:initial_magmoms:R:1:castep_labels:S:1:forces:R:3 n_minim_iter=5 energy=-124.348597875281 stress="-0.0037179218789874686 -0.002894499294390381 0.0 -0.002894499294390381 -0.002914463399407843 0.0 0.0 0.0 3.69461145306058e-05" free_energy=-124.348597875281 pbc="T T T"
P        2.37257185       1.29752476       7.60630362       0.00000000 NULL      -0.32154700       0.13962800      -0.11594400
P        2.26739531       4.88183752      16.16870439       0.00000000 NULL       0.32154600      -0.13962800      -0.11594200
P        3.83906700       2.53559289       1.95428737       0.00000000 NULL       0.03044300      -0.01467500      -0.46001500
P        0.80090016       3.64376939      10.51668814       0.00000000 NULL      -0.03044300       0.01467500      -0.46001500
P        1.72082607       1.46971807       2.10148436       0.00000000 NULL       0.33266300      -0.41871400      -0.04674200
P        2.91914109       4.70964421      10.66388514       0.00000000 NULL      -0.33266300       0.41871300      -0.04674200
P        4.54947049       2.95291369      12.09566135       0.00000000 NULL       0.36238600       0.08751500      -0.28764800
P        0.09049667       3.22644859       3.53326058       0.00000000 NULL      -0.36238600      -0.08751500      -0.28764800
P        0.23276921       4.95065465      16.82777973       0.00000000 NULL      -0.21535900      -0.07804000       0.43915900
P        4.40719795       1.22870763       8.26537895       0.00000000 NULL       0.21536100       0.07804000       0.43915700
P        1.77359726       1.78248509      13.35439955       0.00000000 NULL       0.20324200      -0.18248300       0.06129500
P        2.86636990       4.39687719       4.79199877       0.00000000 NULL      -0.20324200       0.18248300       0.06129500
P        1.82310754       4.74665657       1.29916539       0.00000000 NULL       0.06679000       0.67250400       0.05308500
P        2.81685961       1.43270571       9.86156616       0.00000000 NULL      -0.06679100      -0.67250400       0.05308900
P        1.53554743       4.33132181       6.64951336       0.00000000 NULL       0.01738800      -0.21884400       0.00509500
P        3.10441973       1.84804048      15.21191414       0.00000000 NULL      -0.01738800       0.21884400       0.00509600
P        0.19345306       2.69853122       5.95587289       0.00000000 NULL      -0.37318400       0.02738100       0.27630800
P        4.44651410       3.48083106      14.51827367       0.00000000 NULL       0.37318400      -0.02738100       0.27630800
P       -0.00351170       4.45924579      12.34479477       0.00000000 NULL      -0.18076600       0.22800300       0.21268400
P        4.64347886       1.72011650       3.78239399       0.00000000 NULL       0.18076600      -0.22800300       0.21268400
P        1.20250936       2.89264466      16.26090832       0.00000000 NULL      -0.24063000      -0.21350400      -0.07280500
P        3.43745780       3.28671762       7.69850755       0.00000000 NULL       0.24063000       0.21350400      -0.07280600
P        1.92957120       4.99929258      13.33780894       0.00000000 NULL      -0.27272900      -0.03429100      -0.06447400
P        2.71039596       1.18006970       4.77540816       0.00000000 NULL       0.27272900       0.03429100      -0.06447400
24
Lattice="4.784148637249715 0.8120310498787646 0.0 -0.12238643982574714 5.405045667765756 0.0 0.0 0.0 16.771769894422146" Properties=species:S:1:pos:R:3:initial_magmoms:R:1:castep_labels:S:1:forces:R:3 n_minim_iter=6 energy=-124.580199534312 stress="-0.0024305611167255935 -0.003156281733289521 0.0 -0.003156281733289521 -0.0027978200797969853 0.0 0.0 0.0 -0.004708535999685269" free_energy=-124.580199534312 pbc="T T T"
P        2.37508103       1.29315722       7.43500447       0.00000000 NULL       0.09074900       0.27529400      -0.08071500
P        2.28668117       4.92391949      15.82088941       0.00000000 NULL      -0.09074900      -0.27529400      -0.08071400
P        3.87294244       2.55844061       1.87533037       0.00000000 NULL       0.06470400      -0.29466100      -0.26262900
P        0.78881976       3.65863610      10.26121532       0.00000000 NULL      -0.06470400       0.29466100      -0.26262900
P        1.79244410       1.47507672       2.03753276       0.00000000 NULL       0.26484100      -0.10962400       0.19724500
P        2.86931810       4.74199999      10.42341771       0.00000000 NULL      -0.26484100       0.10962400       0.19724500
P        4.61667650       3.01193158      11.79731046       0.00000000 NULL       0.35467100      -0.01913500      -0.20252800
P        0.04508570       3.20514514       3.41142551       0.00000000 NULL      -0.35467100       0.01913500      -0.20252800
P        0.22189253       4.96836168      16.50647772       0.00000000 NULL       0.15580200      -0.13783800       0.27454400
P        4.43986967       1.24871504       8.12059277       0.00000000 NULL      -0.15580200       0.13783800       0.27454400
P        1.82219205       1.77421273      13.07558240       0.00000000 NULL       0.12652700      -0.19491900      -0.08617100
P        2.83957015       4.44286399       4.68969745       0.00000000 NULL      -0.12652700       0.19491900      -0.08617100
P        1.84606609       4.79445386       1.29047114       0.00000000 NULL       0.18307000       0.51203900       0.09602800
P        2.81569611       1.42262285       9.67635609       0.00000000 NULL      -0.18307000      -0.51203800       0.09602800
P        1.53216477       4.36144317       6.53094503       0.00000000 NULL       0.01848600      -0.19388500       0.12172300
P        3.12959742       1.85563355      14.91682998       0.00000000 NULL      -0.01848600       0.19388500       0.12172300
P        0.17853012       2.73291445       5.86131239       0.00000000 NULL      -0.23740800      -0.03491000       0.07981700
P        4.48323208       3.48416226      14.24719733       0.00000000 NULL       0.23740800       0.03491000       0.07981700
P       -0.01759820       4.50851366      12.11282470       0.00000000 NULL      -0.17177100       0.07994900      -0.04845500
P        4.67936039       1.70856305       3.72693975       0.00000000 NULL       0.17177100      -0.07994900      -0.04845500
P        1.18996690       2.91195211      15.92944285       0.00000000 NULL      -0.09105000      -0.07446500       0.09517800
P        3.47179529       3.30512460       7.54355790       0.00000000 NULL       0.09105000       0.07446500       0.09517800
P        1.91794831       5.01248867      13.07244133       0.00000000 NULL      -0.11035800       0.05827400      -0.18403800
P        2.74381389       1.20458805       4.68655638       0.00000000 NULL       0.11035800      -0.05827400      -0.18403800
24
Lattice="4.76351109935472 0.8087187406954649 0.0 -0.14447318245711374 5.509554660011065 0.0 0.0 0.0 16.701012110375146" Properties=species:S:1:pos:R:3:initial_magmoms:R:1:castep_labels:S:1:forces:R:3 n_minim_iter=7 energy=-124.739190755214 stress="-0.009144280379386095 -0.00422968848851666 -0.0 -0.00422968848851666 0.007858831578140723 0.0 -0.0 0.0 -0.006201744205916506" free_energy=-124.739190755214 pbc="T T T"
P        2.38077290       1.32386598       7.39961208       0.00000000 NULL      -0.25927800       0.19087000      -0.30025300
P        2.23826502       4.99440742      15.75011813       0.00000000 NULL       0.25927900      -0.19087000      -0.30025400
P        3.87425086       2.55899671       1.84746117       0.00000000 NULL       0.04080600      -0.24119000      -0.39862300
P        0.74478706       3.75927669      10.19796722       0.00000000 NULL      -0.04080600       0.24119000      -0.39862300
P        1.83517871       1.50662167       2.02867451       0.00000000 NULL       0.18641700      -0.23944400       0.19532200
P        2.78385921       4.81165173      10.37918057       0.00000000 NULL      -0.18641700       0.23944400       0.19532100
P        4.64295601       3.08528742      11.70308813       0.00000000 NULL       0.30501600       0.01615400      -0.12213100
P       -0.02391809       3.23298598       3.35258208       0.00000000 NULL      -0.30501600      -0.01615400      -0.12213100
P        0.21816345       5.04697553      16.46902853       0.00000000 NULL      -0.27057200      -0.10304800       0.27567300
P        4.40087447       1.27129787       8.11852247       0.00000000 NULL       0.27057200       0.10304800       0.27567400
P        1.84177474       1.78270528      13.01449971       0.00000000 NULL       0.04467600      -0.40857800      -0.10534300
P        2.77726318       4.53556811       4.66399365       0.00000000 NULL      -0.04467600       0.40857800      -0.10534300
P        1.85022104       4.90922378       1.28840182       0.00000000 NULL       0.25608200       0.54274400       0.28673500
P        2.76881688       1.40904961       9.63890787       0.00000000 NULL      -0.25608100      -0.54274400       0.28673400
P        1.49564775       4.43390342       6.52138500       0.00000000 NULL       0.00539000      -0.17757400       0.12614000
P        3.12339017       1.88436998      14.87189105       0.00000000 NULL      -0.00539000       0.17757400       0.12614000
P        0.14688383       2.79759692       5.85718468       0.00000000 NULL      -0.09246700       0.03733300      -0.01493900
P        4.47215409       3.52067647      14.20769074       0.00000000 NULL       0.09246700      -0.03733300      -0.01494000
P       -0.04953699       4.59898470      12.05384974       0.00000000 NULL      -0.26731600       0.00466700       0.04431200
P        4.66857490       1.71928870       3.70334368       0.00000000 NULL       0.26731700      -0.00466700       0.04431200
P        1.16105317       2.96886479      15.87319551       0.00000000 NULL       0.10860500      -0.05078900       0.22501300
P        3.45798474       3.34940861       7.52268945       0.00000000 NULL      -0.10860500       0.05078900       0.22501300
P        1.87502857       5.08485131      13.01466296       0.00000000 NULL       0.02538800       0.41573600      -0.21190700
P        2.74400935       1.23342209       4.66415690       0.00000000 NULL      -0.02538800      -0.41573600      -0.21190700
24
Lattice="4.850472246629436 0.7795822478632249 0.0 -0.17118465117915332 5.463179531429775 0.0 0.0 0.0 16.655844391007257" Properties=species:S:1:pos:R:3:initial_magmoms:R:1:castep_labels:S:1:forces:R:3 n_minim_iter=8 energy=-124.977082405282 stress="-0.0059376760511399155 -0.004998151370319271 -0.0 -0.004998151370319271 -0.003632553734620275 -0.0 -0.0 -0.0 -0.008104403559723144" free_energy=-124.977082405282 pbc="T T T"
P        2.44889553       1.32500137       7.37270282       0.00000000 NULL      -0.41154600      -0.11103400      -0.36205500
P        2.23039207       4.91776040      15.70062502       0.00000000 NULL       0.41154700       0.11103400      -0.36205700
P        3.97730283       2.46703662       1.81274865       0.00000000 NULL      -0.11371300      -0.37228100      -0.83241900
P        0.70198477       3.77572516      10.14067085       0.00000000 NULL       0.11371300       0.37228100      -0.83241900
P        1.94708407       1.49983286       2.02382872       0.00000000 NULL       0.05775500       0.11546200       0.38992100
P        2.73220352       4.74292891      10.35175091       0.00000000 NULL      -0.05775500      -0.11546200       0.38992100
P        4.80283087       3.08698776      11.60553627       0.00000000 NULL       0.23850900      -0.36111700       0.15417700
P       -0.12354328       3.15577402       3.27761408       0.00000000 NULL      -0.23850900       0.36111700       0.15417700
P        0.22547147       4.97909641      16.47332792       0.00000000 NULL      -0.32145100       0.02138900       0.27349600
P        4.45381613       1.26366536       8.14540572       0.00000000 NULL       0.32144900      -0.02138900       0.27349800
P        1.91954034       1.72959594      12.97029805       0.00000000 NULL       0.05691900      -0.03448300       0.04008200
P        2.75974726       4.51316584       4.64237585       0.00000000 NULL      -0.05691900       0.03448300       0.04008200
P        1.91260622       4.90379363       1.29022530       0.00000000 NULL       0.26667400       0.13046700       0.23842000
P        2.76668137       1.33896815       9.61814750       0.00000000 NULL      -0.26667200      -0.13046700       0.23841600
P        1.48467219       4.38076051       6.53059316       0.00000000 NULL       0.11972600      -0.03356800      -0.05218900
P        3.19461540       1.86200126      14.85851536       0.00000000 NULL      -0.11972600       0.03356800      -0.05218900
P        0.10824317       2.79265360       5.87123479       0.00000000 NULL      -0.03889700      -0.02577200      -0.11588700
P        4.57104443       3.45010817      14.19915699       0.00000000 NULL       0.03889700       0.02577200      -0.11588800
P       -0.09158601       4.56378714      12.00827164       0.00000000 NULL      -0.18212900       0.18533100       0.31798400
P        4.77087361       1.67897464       3.68034944       0.00000000 NULL       0.18212900      -0.18533100       0.31798400
P        1.15294176       2.94691084      15.84797648       0.00000000 NULL       0.09200000      -0.42849000       0.31779000
P        3.52634583       3.29585094       7.52005428       0.00000000 NULL      -0.09200000       0.42849000       0.31779000
P        1.86672996       5.01096852      12.97472742       0.00000000 NULL      -0.05794200       0.20717200      -0.36931800
P        2.81255763       1.23179326       4.64680522       0.00000000 NULL       0.05794200      -0.20717200      -0.36931800
24
Lattice="4.898136231052846 0.7947540064068663 0.0 -0.1513357627465078 5.44453069138278 0.0 0.0 0.0 16.462619056121625" Properties=species:S:1:pos:R:3:initial_magmoms:R:1:castep_labels:S:1:forces:R:3 n_minim_iter=9 energy=-125.322914670007 stress="-0.008414850724580957 -0.006359482052448941 -0.0 -0.006359482052448941 -0.002145027307984869 -0.0 -0.0 -0.0 -0.006561860232769299" free_energy=-125.322914670007 pbc="T T T"
P        2.48399087       1.33526070       7.26031661       0.00000000 NULL       0.06741800      -0.03039400      -0.10701900
P        2.26280960       4.90402400      15.49162614       0.00000000 NULL      -0.06741800       0.03039400      -0.10701900
P        4.07778891       2.35622104       1.70072849       0.00000000 NULL       0.19923600      -0.04708900      -0.81025400
P        0.66901155       3.88306365       9.93203802       0.00000000 NULL      -0.19923600       0.04708900      -0.81025400
P        2.07549354       1.56487043       2.02878112       0.00000000 NULL      -0.24149200      -0.31628900       0.41857200
P        2.67130693       4.67441427      10.26009064       0.00000000 NULL       0.24149200       0.31628900       0.41857100
P        4.99338848       3.13488067      11.40501398       0.00000000 NULL       0.10139400      -0.37399000       0.18682700
P       -0.24658802       3.10440403       3.17370445       0.00000000 NULL      -0.10139400       0.37399000       0.18682700
P        0.24879416       4.94728464      16.36628996       0.00000000 NULL       0.29661500      -0.06121700       0.19789300
P        4.49800630       1.29200006       8.13498044       0.00000000 NULL      -0.29661600       0.06121700       0.19789300
P        2.01536406       1.70993382      12.82288666       0.00000000 NULL      -0.09523200       0.16137600      -0.18587000
P        2.73143641       4.52935088       4.59157713       0.00000000 NULL       0.09523200      -0.16137600      -0.18587000
P        2.04675306       4.92248358       1.27865180       0.00000000 NULL       0.01629000       0.25116600       0.21365600
P        2.70004741       1.31680111       9.50996132       0.00000000 NULL      -0.01629000      -0.25116600       0.21365600