22
Lattice="7.077060000000004 2.3291473130108076e-15 -5.144974219652471e-16 0.2161191864850264 7.07375930752758 -5.144974219652472e-16 1.0062313772482234 0.975958273934358 9.589687921042076" Properties=species:S:1:pos:R:3:initial_magmoms:R:1:castep_labels:S:1 n_minim_iter=1 pbc="T T T"
P        5.21281359       6.46972086       9.47978051       0.00000000 NULL
P        6.62589227       5.01281010       9.47978051       0.00000000 NULL
P        5.80198525       2.51933773       9.29111491       0.00000000 NULL
P        2.69534369       5.72234373       9.29111491       0.00000000 NULL
P        5.15067931       1.08146413       7.44264886       0.00000000 NULL
P        1.23825113       5.11525133       7.44264886       0.00000000 NULL
P        0.90076978       3.32359380       0.93488621       0.00000000 NULL
P        3.34955140       0.79885379       0.93488621       0.00000000 NULL
P        3.17891968       4.51317475       7.44716752       0.00000000 NULL
P        4.60814765       3.03961377       7.44716752       0.00000000 NULL
P        3.48513295       4.79111024       1.68374590       0.00000000 NULL
P        4.89530465       3.33719663       1.68374590       0.00000000 NULL
P        3.84595833       2.32039389       3.98420558       0.00000000 NULL
P        2.43675951       3.77330444       3.98420558       0.00000000 NULL
P        1.36215400       6.76668002       6.31630261       0.00000000 NULL
P        6.80512153       1.15487790       6.31630261       0.00000000 NULL
P        6.76210284       4.90882846       1.28762562       0.00000000 NULL
P        5.11304004       6.60904329       1.28762562       0.00000000 NULL
P        6.42793310       0.77432549       1.89145087       0.00000000 NULL
P        0.97026051       6.40128881       1.89145087       0.00000000 NULL
P        2.67305126       6.53546893       2.99947793       0.00000000 NULL
P        6.61405044       2.47222448       2.99947793       0.00000000 NULL
22
Lattice="7.109672044366824 -0.003831991209961007 -3.0794673052297465e-05 0.21328488876963733 7.1064731631682285 -3.0794673052307284e-05 1.0102980500596608 0.9799025983387112 9.615079877477983" Properties=species:S:1:pos:R:3:initial_magmoms:R:1:castep_labels:S:1 n_minim_iter=2 pbc="T T T"
P        5.23300929       6.49699500       9.50438131       0.00000000 NULL
P        6.65377043       5.03216349       9.50438131       0.00000000 NULL
P        5.82744062       2.52798753       9.31548573       0.00000000 NULL
P        2.70476682       5.74752309       9.31548573       0.00000000 NULL
P        5.17361749       1.08337980       7.46241778       0.00000000 NULL
P        1.24086640       5.13812030       7.46241778       0.00000000 NULL
P        0.90325076       3.33814282       0.93749101       0.00000000 NULL
P        3.36416939       0.80088932       0.93749101       0.00000000 NULL
P        3.19124202       4.53243314       7.46684696       0.00000000 NULL
P        4.62777336       3.05134225       7.46684696       0.00000000 NULL
P        3.49827792       4.81149993       1.68849756       0.00000000 NULL
P        4.91608625       3.34971281       1.68849756       0.00000000 NULL
P        3.86248036       2.32900785       3.99467236       0.00000000 NULL
P        2.44587400       3.78955570       3.99467236       0.00000000 NULL
P        1.36488282       6.79742233       6.33284497       0.00000000 NULL
P        6.83593283       1.15666664       6.33284497       0.00000000 NULL
P        6.79048518       4.92818133       1.29123078       0.00000000 NULL
P        5.13325063       6.63682139       1.29123078       0.00000000 NULL
P        6.45715898       0.77457016       1.89643102       0.00000000 NULL
P        0.97139756       6.43049359       1.89643102       0.00000000 NULL
P        2.68194518       6.56433768       3.00746894       0.00000000 NULL
P        6.64317733       2.48023266       3.00746894       0.00000000 NULL
22
Lattice="7.470185994999855 -0.039653395342942856 -0.001244780553983746 0.1884895628621172 7.467912886231748 -0.0012447805539836294 1.0549717574432966 1.023232269162151 9.891295272468643" Properties=species:S:1:pos:R:3:initial_magmoms:R:1:castep_labels:S:1 n_minim_iter=3 pbc="T T T"
P        5.46092848       6.80183515       9.77053212       0.00000000 NULL
P        6.96542860       5.25066716       9.77053212       0.00000000 NULL
P        6.10999965       2.62780265       9.57961763       0.00000000 NULL
P        2.81316416       6.02690218       9.57961763       0.00000000 NULL
P        5.42721505       1.10825763       7.67691277       0.00000000 NULL
P        1.27347698       5.39083987       7.67691277       0.00000000 NULL
P        0.93367519       3.49934349       0.96543538       0.00000000 NULL
P        3.52622399       0.82637681       0.96543538       0.00000000 NULL
P        3.33079199       4.74717132       7.68021576       0.00000000 NULL
P        4.84667297       3.18426946       7.68021576       0.00000000 NULL
P        3.64762511       5.03964788       1.73951023       0.00000000 NULL
P        5.14868856       3.49202317       1.73951023       0.00000000 NULL
P        4.04675499       2.42726127       4.10779638       0.00000000 NULL
P        2.54970897       3.97074393       4.10779638       0.00000000 NULL
P        1.40053594       7.13748062       6.51192779       0.00000000 NULL
P        7.17692130       1.18191843       6.51192779       0.00000000 NULL
P        7.10864044       5.14807212       1.32920999       0.00000000 NULL
P        5.36275468       6.94811325       1.32920999       0.00000000 NULL
P        6.78086167       0.78295091       1.94977416       0.00000000 NULL
P        0.98965964       6.75378938       1.94977416       0.00000000 NULL
P        2.78593445       6.88514782       3.09329297       0.00000000 NULL
P        6.96701347       2.57437654       3.09329297       0.00000000 NULL
22
Lattice="7.571843489761509 0.017366555808285607 -0.007340487492243722 0.24858733584111758 7.567781693942004 -0.0073404874922434245 1.069029025132275 1.0368666151189299 9.924279774353442" Properties=species:S:1:pos:R:3:initial_magmoms:R:1:castep_labels:S:1 n_minim_iter=4 pbc="T T T"
P        5.57828385       6.92555309       9.79175471       0.00000000 NULL
P        7.09267263       5.36418971       9.79175471       0.00000000 NULL
P        6.20537829       2.70258651       9.60390685       0.00000000 NULL
P        2.89082583       6.11995259       9.60390685       0.00000000 NULL
P        5.50281017       1.15698956       7.69897038       0.00000000 NULL
P        1.32449470       5.46491156       7.69897038       0.00000000 NULL
P        0.97282818       3.55016770       0.96640457       0.00000000 NULL
P        3.57822014       0.86395947       0.96640457       0.00000000 NULL
P        3.40715829       4.83032099       7.70115477       0.00000000 NULL
P        4.93211593       3.25806092       7.70115477       0.00000000 NULL
P        3.73242370       5.13284992       1.74194289       0.00000000 NULL
P        5.24443671       3.57393600       1.74194289       0.00000000 NULL
P        4.11689718       2.48809176       4.11602309       0.00000000 NULL
P        2.61265309       4.03899576       4.11602309       0.00000000 NULL
P        1.46958068       7.23807424       6.52724189       0.00000000 NULL
P        7.27957649       1.24785904       6.52724189       0.00000000 NULL
P        7.24465669       5.27066317       1.32600052       0.00000000 NULL
P        5.48944222       7.08032238       1.32600052       0.00000000 NULL
P        6.87949866       0.84432591       1.95055854       0.00000000 NULL
P        1.05401819       6.85050610       1.95055854       0.00000000 NULL
P        2.87459826       6.99420530       3.09563668       0.00000000 NULL
P        7.07872770       2.65966860       3.09563668       0.00000000 NULL
22
Lattice="7.632091407085008 0.09181601503947819 -0.012543036220077715 0.3248419226407794 7.625727975217415 -0.012543036220077415 1.0808124623021524 1.048295540176681 9.869375265441308" Properties=species:S:1:pos:R:3:initial_magmoms:R:1:castep_labels:S:1 n_minim_iter=5 pbc="T T T"
P        5.68199111       7.02427843       9.72737185       0.00000000 NULL
P        7.19451894       5.46483373       9.72737185       0.00000000 NULL
P        6.27329364       2.77750667       9.54351310       0.00000000 NULL
P        2.96778503       6.18554835       9.54351310       0.00000000 NULL
P        5.55219081       1.21276250       7.65342925       0.00000000 NULL
P        1.38174962       5.51256598       7.65342925       0.00000000 NULL
P        1.01494957       3.58355658       0.95930936       0.00000000 NULL
P        3.61287975       0.90504159       0.95930936       0.00000000 NULL
P        3.47693457       4.89581626       7.65496295       0.00000000 NULL
P        4.99971147       3.32580456       7.65496295       0.00000000 NULL
P        3.80818626       5.20627893       1.73060806       0.00000000 NULL
P        5.32014511       3.64742086       1.73060806       0.00000000 NULL
P        4.17056068       2.54569977       4.08794131       0.00000000 NULL
P        2.67187301       4.09087501       4.08794131       0.00000000 NULL
P        1.54801578       7.30219796       6.48560063       0.00000000 NULL
P        7.34606555       1.32429935       6.48560063       0.00000000 NULL
P        7.35389044       5.38066651       1.31279115       0.00000000 NULL
P        5.60273004       7.18614590       1.31279115       0.00000000 NULL
P        6.94313721       0.91710539       1.93485581       0.00000000 NULL
P        1.12870711       6.91189242       1.93485581       0.00000000 NULL
P        2.96390591       7.07064280       3.07073768       0.00000000 NULL
P        7.15785683       2.74660035       3.07073768       0.00000000 NULL
22
Lattice="7.708907493325235 0.20799726042885572 -0.02448449718611193 0.44331479075274327 7.6989602932663335 -0.024484497186111523 1.0915751123263875 1.0587343891115426 9.695019684910882" Properties=species:S:1:pos:R:3:initial_magmoms:R:1:castep_labels:S:1 n_minim_iter=6 pbc="T T T"
P        5.82529458       7.15791748       9.53408465       0.00000000 NULL
P        7.33247186       5.60398930       9.53408465       0.00000000 NULL
P        6.35879683       2.88315655       9.35986389       0.00000000 NULL
P        3.07599673       6.26778533       9.35986389       0.00000000 NULL
P        5.61313261       1.29310034       7.51092816       0.00000000 NULL
P        1.46391104       5.57102600       7.51092816       0.00000000 NULL
P        1.07825357       3.62681061       0.93748613       0.00000000 NULL
P        3.65804679       0.96699518       0.93748613       0.00000000 NULL
P        3.57428674       4.98411308       7.51103183       0.00000000 NULL
P        5.09094005       3.42041492       7.51103183       0.00000000 NULL
P        3.91560771       5.30858280       1.69410719       0.00000000 NULL
P        5.42568170       3.75166805       1.69410719       0.00000000 NULL
P        4.24292169       2.62862326       4.00380183       0.00000000 NULL
P        2.75696758       4.16066995       4.00380183       0.00000000 NULL
P        1.66365299       7.38240363       6.35866500       0.00000000 NULL
P        7.42976514       1.43743331       6.35866500       0.00000000 NULL
P        7.50787253       5.54045783       1.27461738       0.00000000 NULL
P        5.76714914       7.33517646       1.27461738       0.00000000 NULL
P        7.02593349       1.02800342       1.88909444       0.00000000 NULL
P        1.24208185       6.99126348       1.88909444       0.00000000 NULL
P        3.09504855       7.17207676       2.99872617       0.00000000 NULL
P        7.26324831       2.87458423       2.99872617       0.00000000 NULL
22
Lattice="7.867989618829442 0.34119335860925176 -0.05457445051338155 0.5813068155170111 7.853900682858189 -0.05457445051338109 1.0917890427366639 1.0589418832909894 9.333628423295348" Properties=species:S:1:pos:R:3:initial_magmoms:R:1:castep_labels:S:1 n_minim_iter=7 pbc="T T T"
P        6.01637718       7.35605915       9.12839294       0.00000000 NULL
P        7.53635640       5.78893192       9.12839294       0.00000000 NULL
P        6.48879975       3.00846287       8.97768197       0.00000000 NULL
P        3.20521464       6.39390101       8.97768197       0.00000000 NULL
P        5.71871964       1.37805707       7.21095423       0.00000000 NULL
P        1.55205255       5.67396938       7.21095423       0.00000000 NULL
P        1.15914118       3.70490560       0.88861676       0.00000000 NULL
P        3.73857550       1.04546020       0.88861676       0.00000000 NULL
P        3.70193739       5.11751321       7.20698423       0.00000000 NULL
P        5.22817617       3.54393226       7.20698423       0.00000000 NULL
P        4.06248976       5.47037965       1.61104035       0.00000000 NULL
P        5.59188857       3.89354065       1.61104035       0.00000000 NULL
P        4.35613100       2.74083351       3.82537521       0.00000000 NULL
P        2.87258268       4.27039979       3.82537521       0.00000000 NULL
P        1.79537065       7.52794143       6.09095468       0.00000000 NULL
P        7.57925746       1.56464510       6.09095468       0.00000000 NULL
P        7.75163748       5.77394372       1.18561436       0.00000000 NULL
P        6.00797022       7.57169754       1.18561436       0.00000000 NULL
P        7.18179278       1.15971055       1.78868570       0.00000000 NULL
P        1.37848718       7.14302801       1.78868570       0.00000000 NULL
P        3.26543425       7.34596793       2.84361257       0.00000000 NULL
P        7.44226162       3.03958018       2.84361257       0.00000000 NULL
22
Lattice="7.895050616739421 0.4934790150415734 -0.1069887334850644 0.7343478354383993 7.876298561872243 -0.10698873348506366 1.045614141759381 1.014156183226538 8.938491572639116" Properties=species:S:1:pos:R:3:initial_magmoms:R:1:castep_labels:S:1 n_minim_iter=8 pbc="T T T"
P        6.09809212       7.41714331       8.65779428       0.00000000 NULL
P        7.59990748       5.86874336       8.65779428       0.00000000 NULL
P        6.48252071       3.07142967       8.54719041       0.00000000 NULL
P        3.26796032       6.38570201       8.54719041       0.00000000 NULL
P        5.71282446       1.43714268       6.86732623       0.00000000 NULL
P        1.61093058       5.66627259       6.86732623       0.00000000 NULL
P        1.22912739       3.72031938       0.82578276       0.00000000 NULL
P        3.75611932       1.11494306       0.82578276       0.00000000 NULL
P        3.75964787       5.15346005       6.85490879       0.00000000 NULL
P        5.26586860       3.60051809       6.85490879       0.00000000 NULL
P        4.14264783       5.54276363       1.50146831       0.00000000 NULL
P        5.66668666       3.97145087       1.50146831       0.00000000 NULL
P        4.39286858       2.81076384       3.61383983       0.00000000 NULL
P        2.94360230       4.30498470       3.61383983       0.00000000 NULL
P        1.89743276       7.52936459       5.78028262       0.00000000 NULL
P        7.58379673       1.66661616       5.78028262       0.00000000 NULL
P        7.88216929       5.93214661       1.05779674       0.00000000 NULL
P        6.17008551       7.69733727       1.05779674       0.00000000 NULL
P        7.21461583       1.28841940       1.65973453       0.00000000 NULL
P        1.50813835       7.17190524       1.65973453       0.00000000 NULL
P        3.39448546       7.39572967       2.64957341       0.00000000 NULL
P        7.49594111       3.16705158       2.64957341       0.00000000 NULL
22
Lattice="8.028201656557465 0.43201502013374304 -0.10129557683629878 0.6769786720213897 8.011264487807232 -0.10129557683629803 1.0637841241173147 1.0317795102469718 8.986241647928352" Properties=species:S:1:pos:R:3:initial_magmoms:R:1:castep_labels:S:1 n_minim_iter=9 pbc="T T T"
P        6.14458324       7.50523274       8.71014194       0.00000000 NULL
P        7.68937557       5.91252273       8.71014194       0.00000000 NULL
P        6.57499488       3.07720066       8.59984996       0.00000000 NULL
P        3.27655261       6.47795683       8.59984996       0.00000000 NULL
P        5.80777240       1.41822344       6.90704732       0.00000000 NULL
P        1.59491969       5.76175400       6.90704732       0.00000000 NULL
P        1.21961777       3.77438826       0.83504112       0.00000000 NULL
P        3.80987259       1.10378672       0.83504112       0.00000000 NULL
P        3.78760202       5.22041303       6.89495153       0.00000000 NULL
P        5.33364401       3.62641459       6.89495153       0.00000000 NULL
P        4.16143899       5.60628300       1.51980267       0.00000000 NULL
P        5.73075025       3.98829351       1.51980267       0.00000000 NULL
P        4.44947818       2.82657604       3.63601980       0.00000000 NULL
P        2.96113586       4.36108502       3.63601980       0.00000000 NULL
P        1.86953267       7.65331672       5.81642832       0.00000000 NULL
P        7.70683904       1.63494382       5.81642832       0.00000000 NULL
P        7.96909862       5.97299999       1.07587790       0.00000000 NULL
P        6.21357447       7.78297847       1.07587790       0.00000000 NULL
P        7.33046492       1.24963642       1.67451996       0.00000000 NULL
P        1.47291126       7.28888465       1.67451996       0.00000000 NULL
P        3.39140050       7.50148806       2.67045024       0.00000000 NULL
P        7.60155597       3.16073841       2.67045024       0.00000000 NULL
22
Lattice="7.978770662538165 0.44952861828025065 -0.1024397684935204 0.6929745787513818 7.961321717983575 -0.10243976849351966 1.0576207007341656 1.025801517329483 8.938937788274378" Properties=species:S:1:pos:R:3:initial_magmoms:R:1:castep_labels:S:1 n_minim_iter=10 pbc="T T T"
P        6.12241556       7.46989536       8.66113776       0.00000000 NULL
P        7.65337771       5.89144451       8.66113776       0.00000000 NULL
P        6.53757579       3.07166792       8.55374462       0.00000000 NULL
P        3.26987973       6.44072415       8.55374462       0.00000000 NULL
P        5.77462626       1.42267451       6.86894891       0.00000000 NULL
P        1.59835646       5.72848739       6.86894891       0.00000000 NULL
P        1.22127329       3.75277238       0.83053904       0.00000000 NULL
P        3.78831734       1.10610157       0.83053904       0.00000000 NULL
P        3.77570254       5.19561998       6.85651188       0.00000000 NULL
P        5.30849915       3.61527778       6.85651188       0.00000000 NULL
P        4.14588876       5.57988798       1.51194310       0.00000000 NULL
P        5.70389267       3.97355658       1.51194310       0.00000000 NULL
P        4.42788696       2.82016212       3.61444193       0.00000000 NULL
P        2.95406558       4.33969974       3.61444193       0.00000000 NULL
P        1.87509264       7.60744008       5.78403697       0.00000000 NULL
P        7.66115358       1.64190218       5.78403697       0.00000000 NULL
P        7.93479814       5.95514992       1.06864705       0.00000000 NULL
P        6.19468526       7.74923909       1.06864705       0.00000000 NULL
P        7.28795651       1.25972605       1.66407559       0.00000000 NULL
P        1.48169807       7.24608796       1.66407559       0.00000000 NULL
P        3.38851823       7.46109563       2.65345136       0.00000000 NULL
P        7.56109436       3.15909098       2.65345136       0.00000000 NULL
22
Lattice="7.978247263741118 0.4508540927172432 -0.10312529770690416 0.6942834514489907 7.960758085971245 -0.10312529770690342 1.0568001532517555 1.0250056565337242 8.922355832849457" Properties=species:S:1:pos:R:3:initial_magmoms:R:1:castep_labels:S:1 n_minim_iter=11 pbc="T T T"
P        6.12158403       7.46916912       8.64273078       0.00000000 NULL
P        7.65262642       5.89063555       8.64273078       0.00000000 NULL
P        6.53519503       3.07148257       8.53788711       0.00000000 NULL
P        3.26962177       6.43835015       8.53788711       0.00000000 NULL
P        5.77492829       1.42300031       6.85492549       0.00000000 NULL
P        1.59869134       5.72877934       6.85492549       0.00000000 NULL
P        1.22193753       3.75178236       0.82946020       0.00000000 NULL
P        3.78734807       1.10679574       0.82946020       0.00000000 NULL
P        3.77619876       5.19589093       6.84203506       0.00000000 NULL
P        5.30878512       3.61576551       6.84203506       0.00000000 NULL
P        4.14294875       5.57941088       1.51033366       0.00000000 NULL
P        5.70332601       3.97063251       1.51033366       0.00000000 NULL
P        4.42809281       2.82143438       3.60585224       0.00000000 NULL
P        2.95534353       4.33986664       3.60585224       0.00000000 NULL
P        1.87523020       7.60662794       5.77218191       0.00000000 NULL
P        7.66034602       1.64206448       5.77218191       0.00000000 NULL
P        7.93606488       5.95711362       1.06657636       0.00000000 NULL
P        6.19668673       7.75044528       1.06657636       0.00000000 NULL
P        7.28806354       1.26077185       1.66010129       0.00000000 NULL
P        1.48274664       7.24616300       1.66010129       0.00000000 NULL
P        3.38954257       7.46090492       2.64673388       0.00000000 NULL
P        7.56093502       3.16012067       2.64673388       0.00000000 NULL
22
Lattice="7.985501395183683 0.4520706543004782 -0.10555238201381127 0.6957209722286097 7.967971682791139 -0.10555238201381052 1.0547105379247437 1.0229789085969683 8.87740502757117" Properties=species:S:1:pos:R:3:initial_magmoms:R:1:castep_labels:S:1 n_minim_iter=12 pbc="T T T"
P        6.12254648       7.47267101       8.59171459       0.00000000 NULL
P        7.65615606       5.89149062       8.59171459       0.00000000 NULL
P        6.53382700       3.07150044       8.49475363       0.00000000 NULL
P        3.26959786       6.43698222       8.49475363       0.00000000 NULL
P        5.78146672       1.42288388       6.81625918       0.00000000 NULL
P        1.59877463       5.73531827       6.81625918       0.00000000 NULL
P        1.22366667       3.75240171       0.82664277       0.00000000 NULL
P        3.78801993       1.10850516       0.82664277       0.00000000 NULL
P        3.77961584       5.20084054       6.80179150       0.00000000 NULL
P        5.31383677       3.61902984       6.80179150       0.00000000 NULL
P        4.13622359       5.58252531       1.50605051       0.00000000 NULL
P        5.70623361       3.96381538       1.50605051       0.00000000 NULL
P        4.43252439       2.82652054       3.58168768       0.00000000 NULL
P        2.96056266       4.34414084       3.58168768       0.00000000 NULL
P        1.87439928       7.61201712       5.73936490       0.00000000 NULL
P        7.66570732       1.64106937       5.73936490       0.00000000 NULL
P        7.94629381       5.96663402       1.06050187       0.00000000 NULL
P        6.20651506       7.76037870       1.06050187       0.00000000 NULL
P        7.29601731       1.26227751       1.64874121       0.00000000 NULL
P        1.48449449       7.25406708       1.64874121       0.00000000 NULL
P        3.39332186       7.46755236       2.62769244       0.00000000 NULL
P        7.56769477       3.16369520       2.62769244       0.00000000 NULL
22
Lattice="8.03505443345001 0.462270711441361 -0.132212635155016 0.7074295223123469 8.017190120617201 -0.1322126351550152 1.0270370611678223 0.9961380057786646 8.555131882088453" Properties=species:S:1:pos:R:3:initial_magmoms:R:1:castep_labels:S:1 n_minim_iter=13 pbc="T T T"
P        6.11906129       7.48279465       8.21602459       0.00000000 NULL
P        7.66616856       5.88769789       8.21602459       0.00000000 NULL
P        6.51179976       3.06164534       8.17854408       0.00000000 NULL
P        3.25907468       6.41526621       8.17854408       0.00000000 NULL
P        5.81691619       1.41315576       6.53262501       0.00000000 NULL
P        1.59013360       5.77104829       6.53262501       0.00000000 NULL
P        1.23254945       3.75345080       0.80266466       0.00000000 NULL
P        3.78933980       1.11735176       0.80266466       0.00000000 NULL
P        3.79516832       5.22532434       6.50312392       0.00000000 NULL
P        5.33878410       3.63382738       6.50312392       0.00000000 NULL
P        4.08516532       5.60002069       1.46303189       0.00000000 NULL
P        5.72216162       3.91224666       1.46303189       0.00000000 NULL
P        4.45978743       2.85768592       3.40139092       0.00000000 NULL
P        2.99254606       4.37043943       3.40139092       0.00000000 NULL
P        1.86125753       7.64195976       5.49507461       0.00000000 NULL
P        7.69523466       1.62701936       5.49507461       0.00000000 NULL
P        8.01504751       6.03103520       1.00076345       0.00000000 NULL
P        6.27298581       7.82713365       1.00076345       0.00000000 NULL
P        7.34894536       1.27094426       1.55789196       0.00000000 NULL
P        1.49477352       7.30670578       1.55789196       0.00000000 NULL
P        3.41763099       7.51187757       2.48197176       0.00000000 NULL
P        7.61274166       3.18663939       2.48197176       0.00000000 NULL
22
Lattice="8.233233094095397 0.3623326319289535 -0.22326195994649342 0.6135900311663128 8.218328260146432 -0.22326195994649276 0.9180572843804747 0.8904369540603237 8.604687585423473" Properties=species:S:1:pos:R:3:initial_magmoms:R:1:castep_labels:S:1 n_minim_iter=14 pbc="T T T"
P        6.05455882       7.46753629       8.13340342       0.00000000 NULL
P        7.64894753       5.82369147       8.13340342       0.00000000 NULL
P        6.50867866       2.94344865       8.16551297       0.00000000 NULL
P        3.14083781       6.41575605       8.16551297       0.00000000 NULL
P        5.86271548       1.27705349       6.49833031       0.00000000 NULL
P        1.45549343       5.82098251       6.49833031       0.00000000 NULL
P        1.18975202       3.80810283       0.77926812       0.00000000 NULL
P        3.84265939       1.07290532       0.77926812       0.00000000 NULL
P        3.73730629       5.22268297       6.43452022       0.00000000 NULL
P        5.33437697       3.57607300       6.43452022       0.00000000 NULL
P        4.05083698       5.65946790       1.39409091       0.00000000 NULL
P        5.78053278       3.87611893       1.39409091       0.00000000 NULL
P        4.49464202       2.82874829       3.33537089       0.00000000 NULL
P        2.96468631       4.40616146       3.33537089       0.00000000 NULL
P        1.72032151       7.74875944       5.43634295       0.00000000 NULL
P        7.79768063       1.48288762       5.43634295       0.00000000 NULL
P        8.12001096       6.06625788       0.87802902       0.00000000 NULL
P        6.31139743       7.93097252       0.87802902       0.00000000 NULL
P        7.50234732       1.17513672       1.47553812       0.00000000 NULL
P        1.40369525       7.46296196       1.47553812       0.00000000 NULL
P        3.36849355       7.64024919       2.38806715       0.00000000 NULL
P        7.73955285       3.13360465       2.38806715       0.00000000 NULL
22
Lattice="8.034106561405288 0.4211237331947579 -0.2118417218503905 0.6662727886286222 8.017499236657796 -0.21184172185038921 0.9133274694296668 0.885849438564591 8.444252334989296" Properties=species:S:1:pos:R:3:initial_magmoms:R:1:castep_labels:S:1 n_minim_iter=15 pbc="T T T"
P        5.97837734       7.33834975       7.99184299       0.00000000 NULL
P        7.51749482       5.75149061       7.99184299       0.00000000 NULL
P        6.38085780       2.93284940       8.02067833       0.00000000 NULL
P        3.12634011       6.28831849       8.02067833       0.00000000 NULL
P        5.73944234       1.30246885       6.38128401       0.00000000 NULL
P        1.47713242       5.69699072       6.38128401       0.00000000 NULL
P        1.19168009       3.72519970       0.76983793       0.00000000 NULL
P        3.75985381       1.07736419       0.76983793       0.00000000 NULL
P        3.69613610       5.13154871       6.32009741       0.00000000 NULL
P        5.24202796       3.53770507       6.32009741       0.00000000 NULL
P        3.99803044       5.55371325       1.37656646       0.00000000 NULL
P        5.67321485       3.82656655       1.37656646       0.00000000 NULL
P        4.41139226       2.80110768       3.27726259       0.00000000 NULL
P        2.93451632       4.32379462       3.27726259       0.00000000 NULL
P        1.74768083       7.57566026       5.34189429       0.00000000 NULL
P        7.62549768       1.51552029       5.34189429       0.00000000 NULL
P        7.97264688       5.98173634       0.87412841       0.00000000 NULL
P        6.22241511       7.78625829       0.87412841       0.00000000 NULL
P        7.33139663       1.20893065       1.45467405       0.00000000 NULL
P        1.43225292       7.29105900       1.45467405       0.00000000 NULL
P        3.35225396       7.48003676       2.35139281       0.00000000 NULL
P        7.57891922       3.12226520       2.35139281       0.00000000 NULL
22
Lattice="8.053083705488472 0.41709531623661267 -0.20313796917957053 0.6628257743301402 8.036590549686728 -0.20313796917956925 0.9272640621420379 0.8993667401272678 8.430663984765006" Properties=species:S:1:pos:R:3:initial_magmoms:R:1:castep_labels:S:1 n_minim_iter=16 pbc="T T T"
P        5.99973391       7.36313503       7.98984740       0.00000000 NULL
P        7.54292072       5.77208034       7.98984740       0.00000000 NULL
P        6.40523090       2.94794537       8.01631243       0.00000000 NULL
P        3.14217334       6.31221922       8.01631243       0.00000000 NULL
P        5.76260596       1.31107530       6.37586850       0.00000000 NULL