32
Lattice="7.55498 0.0 0.0 0.0 9.368740000000003 0.0 0.0 0.0 9.76929" Properties=species:S:1:pos:R:3:initial_magmoms:R:1:castep_labels:S:1 n_minim_iter=1 pbc="T T T"
P        3.44686065       8.31311254       7.85426102       0.00000000 NULL
P        4.10811935       1.05562746       2.96961602       0.00000000 NULL
P        4.10811935       3.62874254       7.85426102       0.00000000 NULL
P        3.44686065       5.73999746       2.96961602       0.00000000 NULL
P        5.90247167       0.14908851       2.66747728       0.00000000 NULL
P        1.65250833       9.21965149       7.55212228       0.00000000 NULL
P        1.65250833       4.83345851       2.66747728       0.00000000 NULL
P        5.90247167       4.53528149       7.55212228       0.00000000 NULL
P        3.86369685       7.21779347       1.62930362       0.00000000 NULL
P        3.69128315       2.15094653       6.51394862       0.00000000 NULL
P        3.69128315       2.53342347       1.62930362       0.00000000 NULL
P        3.86369685       6.83531653       6.51394862       0.00000000 NULL
P        4.03990619       9.03207620       6.08037093       0.00000000 NULL
P        3.51507381       0.33666380       1.19572593       0.00000000 NULL
P        3.51507381       4.34770620       6.08037093       0.00000000 NULL
P        4.03990619       5.02103380       1.19572593       0.00000000 NULL
P        3.18118298       8.80190406       4.27629763       0.00000000 NULL
P        4.37379702       0.56683594       9.16094263       0.00000000 NULL
P        4.37379702       4.11753406       4.27629763       0.00000000 NULL
P        3.18118298       5.25120594       9.16094263       0.00000000 NULL
P        7.47355394       6.45803081       8.05856423       0.00000000 NULL
P        0.08142606       2.91070919       3.17391923       0.00000000 NULL
P        0.08142606       1.77366081       8.05856423       0.00000000 NULL
P        7.47355394       7.59507919       3.17391923       0.00000000 NULL
P        1.29637639       4.54199420       8.82776295       0.00000000 NULL
P        6.25860361       4.82674580       3.94311795       0.00000000 NULL
P        6.25860361       9.22636420       8.82776295       0.00000000 NULL
P        1.29637639       0.14237580       3.94311795       0.00000000 NULL
P        6.51962212       6.70323510       1.61874009       0.00000000 NULL
P        1.03535788       2.66550490       6.50338509       0.00000000 NULL
P        1.03535788       2.01886510       1.61874009       0.00000000 NULL
P        6.51962212       7.34987490       6.50338509       0.00000000 NULL
32
Lattice="7.572605118755384 0.0 0.0 0.0 9.389595828071808 0.0 0.0 0.0 9.819285950957315" Properties=species:S:1:pos:R:3:initial_magmoms:R:1:castep_labels:S:1 n_minim_iter=2 pbc="T T T"
P        3.45486452       8.33158639       7.89498274       0.00000000 NULL
P        4.11774059       1.05800944       2.98533977       0.00000000 NULL
P        4.11774059       3.63678848       7.89498274       0.00000000 NULL
P        3.45486452       5.75280735       2.98533977       0.00000000 NULL
P        5.91654641       0.14927085       2.68110207       0.00000000 NULL
P        1.65605871       9.24032498       7.59074504       0.00000000 NULL
P        1.65605871       4.84406876       2.68110207       0.00000000 NULL
P        5.91654641       4.54552707       7.59074504       0.00000000 NULL
P        3.87289439       7.23404672       1.63749948       0.00000000 NULL
P        3.69971073       2.15554911       6.54714245       0.00000000 NULL
P        3.69971073       2.53924881       1.63749948       0.00000000 NULL
P        3.87289439       6.85034702       6.54714245       0.00000000 NULL
P        4.04958248       9.05238464       6.11140300       0.00000000 NULL
P        3.52302264       0.33721119       1.20176003       0.00000000 NULL
P        3.52302264       4.35758673       6.11140300       0.00000000 NULL
P        4.04958248       5.03200910       1.20176003       0.00000000 NULL
P        3.18858535       8.82134825       4.29791312       0.00000000 NULL
P        4.38401977       0.56824757       9.20755610       0.00000000 NULL
P        4.38401977       4.12655034       4.29791312       0.00000000 NULL
P        3.18858535       5.26304549       9.20755610       0.00000000 NULL
P        7.49103180       6.47226022       8.09993939       0.00000000 NULL
P        0.08157332       2.91733560       3.19029641       0.00000000 NULL
P        0.08157332       1.77746231       8.09993939       0.00000000 NULL
P        7.49103180       7.61213352       3.19029641       0.00000000 NULL
P        1.29916909       4.55205625       8.87290038       0.00000000 NULL
P        6.27343603       4.83753958       3.96325741       0.00000000 NULL
P        6.27343603       9.24685416       8.87290038       0.00000000 NULL
P        1.29916909       0.14274166       3.96325741       0.00000000 NULL
P        6.53469831       6.71812167       1.62692721       0.00000000 NULL
P        1.03790680       2.67147416       6.53657019       0.00000000 NULL
P        1.03790680       2.02332376       1.62692721       0.00000000 NULL
P        6.53469831       7.36627207       6.53657019       0.00000000 NULL
32
Lattice="7.734073516731001 0.0 0.0 0.0 9.58528695561594 0.0 0.0 0.0 10.312440689719176" Properties=species:S:1:pos:R:3:initial_magmoms:R:1:castep_labels:S:1 n_minim_iter=3 pbc="T T T"
P        3.52815603       8.50491103       8.29699415       0.00000000 NULL
P        4.20591748       1.08037592       3.14077381       0.00000000 NULL
P        4.20591748       3.71226755       8.29699415       0.00000000 NULL
P        3.52815603       5.87301940       3.14077381       0.00000000 NULL
P        6.04585453       0.15082191       2.81545333       0.00000000 NULL
P        1.68821898       9.43446504       7.97167368       0.00000000 NULL
P        1.68821898       4.94346539       2.81545333       0.00000000 NULL
P        6.04585453       4.64182157       7.97167368       0.00000000 NULL
P        3.95743174       7.38663121       1.71825829       0.00000000 NULL
P        3.77664178       2.19865574       6.87447864       0.00000000 NULL
P        3.77664178       2.59398774       1.71825829       0.00000000 NULL
P        3.95743174       6.99129922       6.87447864       0.00000000 NULL
P        4.13845024       9.24305254       6.41742664       0.00000000 NULL
P        3.59562327       0.34223441       1.26120630       0.00000000 NULL
P        3.59562327       4.45040906       6.41742664       0.00000000 NULL
P        4.13845024       5.13487789       1.26120630       0.00000000 NULL
P        3.25637210       9.00366820       4.51096100       0.00000000 NULL
P        4.47770141       0.58161875       9.66718135       0.00000000 NULL
P        4.47770141       4.21102472       4.51096100       0.00000000 NULL
P        3.25637210       5.37426223       9.66718135       0.00000000 NULL
P        7.65114772       6.60563045       8.50811773       0.00000000 NULL
P        0.08292579       2.97965651       3.35189738       0.00000000 NULL
P        0.08292579       1.81298697       8.50811773       0.00000000 NULL
P        7.65114772       7.77229998       3.35189738       0.00000000 NULL
P        1.32450997       4.64644438       9.31811461       0.00000000 NULL
P        6.40956355       4.93884257       4.16189427       0.00000000 NULL
P        6.40956355       9.43908786       9.31811461       0.00000000 NULL
P        1.32450997       0.14619910       4.16189427       0.00000000 NULL
P        6.67264925       6.85781838       1.70767077       0.00000000 NULL
P        1.06142427       2.72746857       6.86389112       0.00000000 NULL
P        1.06142427       2.06517491       1.70767077       0.00000000 NULL
P        6.67264925       7.52011205       6.86389112       0.00000000 NULL
32
Lattice="7.6935480988254 0.0 0.0 0.0 9.56907817959735 0.0 0.0 0.0 10.503276222323619" Properties=species:S:1:pos:R:3:initial_magmoms:R:1:castep_labels:S:1 n_minim_iter=4 pbc="T T T"
P        3.50945743       8.49040203       8.45451243       0.00000000 NULL
P        4.18409067       1.07867615       3.20287432       0.00000000 NULL
P        4.18409067       3.70586294       8.45451243       0.00000000 NULL
P        3.50945743       5.86321524       3.20287432       0.00000000 NULL
P        6.01681551       0.14907007       2.86722058       0.00000000 NULL
P        1.67673259       9.42000811       8.11885869       0.00000000 NULL
P        1.67673259       4.93360916       2.86722058       0.00000000 NULL
P        6.01681551       4.63546902       8.11885869       0.00000000 NULL
P        3.93882009       7.37476674       1.74900461       0.00000000 NULL
P        3.75472801       2.19431144       7.00064272       0.00000000 NULL
P        3.75472801       2.59022765       1.74900461       0.00000000 NULL
P        3.93882009       6.97885053       7.00064272       0.00000000 NULL
P        4.11815859       9.22834929       6.53541105       0.00000000 NULL
P        3.57538951       0.34072889       1.28377294       0.00000000 NULL
P        3.57538951       4.44381020       6.53541105       0.00000000 NULL
P        4.11815859       5.12526798       1.28377294       0.00000000 NULL
P        3.23901946       8.98734577       4.59248425       0.00000000 NULL
P        4.45452864       0.58173241       9.84412236       0.00000000 NULL
P        4.45452864       4.20280668       4.59248425       0.00000000 NULL
P        3.23901946       5.36627150       9.84412236       0.00000000 NULL
P        7.61094398       6.59303548       8.66614003       0.00000000 NULL
P        0.08260411       2.97604270       3.41450192       0.00000000 NULL
P        0.08260411       1.80849639       8.66614003       0.00000000 NULL
P        7.61094398       7.76058179       3.41450192       0.00000000 NULL
P        1.31588574       4.63848005       9.49032752       0.00000000 NULL
P        6.37766236       4.93059813       4.23868941       0.00000000 NULL
P        6.37766236       9.42301914       9.49032752       0.00000000 NULL
P        1.31588574       0.14605904       4.23868941       0.00000000 NULL
P        6.63633308       6.84640873       1.73904899       0.00000000 NULL
P        1.05721502       2.72266945       6.99068710       0.00000000 NULL
P        1.05721502       2.06186964       1.73904899       0.00000000 NULL
P        6.63633308       7.50720854       6.99068710       0.00000000 NULL
32
Lattice="7.571996033447018 0.0 0.0 0.0 9.497646248923171 0.0 0.0 0.0 10.761288133763422" Properties=species:S:1:pos:R:3:initial_magmoms:R:1:castep_labels:S:1 n_minim_iter=5 pbc="T T T"
P        3.45418079       8.42673817       8.66974162       0.00000000 NULL
P        4.11781524       1.07090808       3.28909756       0.00000000 NULL
P        4.11781524       3.67791505       8.66974162       0.00000000 NULL
P        3.45418079       5.81973120       3.28909756       0.00000000 NULL
P        5.92727583       0.14481395       2.93665756       0.00000000 NULL
P        1.64472020       9.35283230       8.31730163       0.00000000 NULL
P        1.64472020       4.89363708       2.93665756       0.00000000 NULL
P        5.92727583       4.60400917       8.31730163       0.00000000 NULL
P        3.88108814       7.32057515       1.78997173       0.00000000 NULL
P        3.69090789       2.17707109       7.17061579       0.00000000 NULL
P        3.69090789       2.57175203       1.78997173       0.00000000 NULL
P        3.88108814       6.92589422       7.17061579       0.00000000 NULL
P        4.05524796       9.16080842       6.69448489       0.00000000 NULL
P        3.51674807       0.33683782       1.31384082       0.00000000 NULL
P        3.51674807       4.41198530       6.69448489       0.00000000 NULL
P        4.05524796       5.08566095       1.31384082       0.00000000 NULL
P        3.18776705       8.91805600       4.70188695       0.00000000 NULL
P        4.38422899       0.57959025      10.08253102       0.00000000 NULL
P        4.38422899       4.16923288       4.70188695       0.00000000 NULL
P        3.18776705       5.32841337      10.08253102       0.00000000 NULL
P        7.49025170       6.54102294       8.87997471       0.00000000 NULL
P        0.08174433       2.95662331       3.49933064       0.00000000 NULL
P        0.08174433       1.79219981       8.87997471       0.00000000 NULL
P        7.49025170       7.70544644       3.49933064       0.00000000 NULL
P        1.29147005       4.60368309       9.72306154       0.00000000 NULL
P        6.28052598       4.89396316       4.34241747       0.00000000 NULL
P        6.28052598       9.35250621       9.72306154       0.00000000 NULL
P        1.29147005       0.14514004       4.34241747       0.00000000 NULL
P        6.52868693       6.79602376       1.78153876       0.00000000 NULL
P        1.04330911       2.70162248       7.16218283       0.00000000 NULL
P        1.04330911       2.04720064       1.78153876       0.00000000 NULL
P        6.52868693       7.45044561       7.16218283       0.00000000 NULL
32
Lattice="7.4167221024511605 0.0 0.0 0.0 9.432948827702742 0.0 0.0 0.0 10.990072920868258" Properties=species:S:1:pos:R:3:initial_magmoms:R:1:castep_labels:S:1 n_minim_iter=6 pbc="T T T"
P        3.38544330       8.36840526       8.86683747       0.00000000 NULL
P        4.03127880       1.06454357       3.37180101       0.00000000 NULL
P        4.03127880       3.65193085       8.86683747       0.00000000 NULL
P        3.38544330       5.78101798       3.37180101       0.00000000 NULL
P        5.81674669       0.13770920       2.99605692       0.00000000 NULL
P        1.59997541       9.29523963       8.49109338       0.00000000 NULL
P        1.59997541       4.85418361       2.99605692       0.00000000 NULL
P        5.81674669       4.57876522       8.49109338       0.00000000 NULL
P        3.81025710       7.27176480       1.82476313       0.00000000 NULL
P        3.60646501       2.16118403       7.31979959       0.00000000 NULL
P        3.60646501       2.55529039       1.82476313       0.00000000 NULL
P        3.81025710       6.87765844       7.31979959       0.00000000 NULL
P        3.97479782       9.10005103       6.83441202       0.00000000 NULL
P        3.44192428       0.33289780       1.33937556       0.00000000 NULL
P        3.44192428       4.38357661       6.83441202       0.00000000 NULL
P        3.97479782       5.04937221       1.33937556       0.00000000 NULL
P        3.12424100       8.85298889       4.79712066       0.00000000 NULL
P        4.29248110       0.57995994      10.29215712       0.00000000 NULL
P        4.29248110       4.13651448       4.79712066       0.00000000 NULL
P        3.12424100       5.29643435      10.29215712       0.00000000 NULL
P        7.33540427       6.49164781       9.07011485       0.00000000 NULL
P        0.08131784       2.94130102       3.57507839       0.00000000 NULL
P        0.08131784       1.77517339       9.07011485       0.00000000 NULL
P        7.33540427       7.65777543       3.57507839       0.00000000 NULL
P        1.25692857       4.57162060       9.92937886       0.00000000 NULL
P        6.15979353       4.86132822       4.43434240       0.00000000 NULL
P        6.15979353       9.28809502       9.92937886       0.00000000 NULL
P        1.25692857       0.14485381       4.43434240       0.00000000 NULL
P        6.38942311       6.75178936       1.81910277       0.00000000 NULL
P        1.02729899       2.68115947       7.31413923       0.00000000 NULL
P        1.02729899       2.03531494       1.81910277       0.00000000 NULL
P        6.38942311       7.39763389       7.31413923       0.00000000 NULL
32
Lattice="7.35278332820024 0.0 0.0 0.0 9.457608725130946 0.0 0.0 0.0 11.070902918195356" Properties=species:S:1:pos:R:3:initial_magmoms:R:1:castep_labels:S:1 n_minim_iter=7 pbc="T T T"
P        3.35993353       8.38865709       8.94482402       0.00000000 NULL
P        3.99284980       1.06895164       3.40937256       0.00000000 NULL
P        3.99284980       3.65985273       8.94482402       0.00000000 NULL
P        3.35993353       5.79775600       3.40937256       0.00000000 NULL
P        5.77929617       0.13115092       3.01349713       0.00000000 NULL
P        1.57348716       9.32645781       8.54894859       0.00000000 NULL
P        1.57348716       4.85995528       3.01349713       0.00000000 NULL
P        5.77929617       4.59765344       8.54894859       0.00000000 NULL
P        3.78713341       7.29136343       1.83532780       0.00000000 NULL
P        3.56564992       2.16624529       7.37077925       0.00000000 NULL
P        3.56564992       2.56255907       1.83532780       0.00000000 NULL
P        3.78713341       6.89504965       7.37077925       0.00000000 NULL
P        3.94264750       9.12506426       6.88241657       0.00000000 NULL
P        3.41013583       0.33254446       1.34696511       0.00000000 NULL
P        3.41013583       4.39625990       6.88241657       0.00000000 NULL
P        3.94264750       5.06134883       1.34696511       0.00000000 NULL
P        3.10154775       8.87095391       4.82884034       0.00000000 NULL
P        4.25123558       0.58665482      10.36429180       0.00000000 NULL
P        4.25123558       4.14214954       4.82884034       0.00000000 NULL
P        3.10154775       5.31545918      10.36429180       0.00000000 NULL
P        7.27045353       6.50364465       9.13816186       0.00000000 NULL
P        0.08232979       2.95396408       3.60271040       0.00000000 NULL
P        0.08232979       1.77484028       9.13816186       0.00000000 NULL
P        7.27045353       7.68276844       3.60271040       0.00000000 NULL
P        1.23563308       4.58223137      10.00215601       0.00000000 NULL
P        6.11715024       4.87537736       4.46670456       0.00000000 NULL
P        6.11715024       9.31103573      10.00215601       0.00000000 NULL
P        1.23563308       0.14657299       4.46670456       0.00000000 NULL
P        6.32841331       6.77228580       1.83189803       0.00000000 NULL
P        1.02437001       2.68532292       7.36734949       0.00000000 NULL
P        1.02437001       2.04348144       1.83189803       0.00000000 NULL
P        6.32841331       7.41412729       7.36734949       0.00000000 NULL
32
Lattice="7.292569030362018 0.0 0.0 0.0 9.434795200008383 0.0 0.0 0.0 11.058460137435738" Properties=species:S:1:pos:R:3:initial_magmoms:R:1:castep_labels:S:1 n_minim_iter=8 pbc="T T T"
P        3.33368772       8.36785084       8.93938451       0.00000000 NULL
P        3.95888131       1.06694436       3.41015444       0.00000000 NULL
P        3.95888131       3.65045324       8.93938451       0.00000000 NULL
P        3.33368772       5.78434196       3.41015444       0.00000000 NULL
P        5.73661136       0.12827728       3.00820185       0.00000000 NULL
P        1.55595767       9.30651792       8.53743192       0.00000000 NULL
P        1.55595767       4.84567488       3.00820185       0.00000000 NULL
P        5.73661136       4.58912032       8.53743192       0.00000000 NULL
P        3.75996187       7.27371523       1.83235081       0.00000000 NULL
P        3.53260716       2.16107997       7.36158088       0.00000000 NULL
P        3.53260716       2.55631763       1.83235081       0.00000000 NULL
P        3.75996187       6.87847757       7.36158088       0.00000000 NULL
P        3.91103110       9.10336071       6.87394963       0.00000000 NULL
P        3.38153793       0.33143449       1.34471956       0.00000000 NULL
P        3.38153793       4.38596311       6.87394963       0.00000000 NULL
P        3.91103110       5.04883209       1.34471956       0.00000000 NULL
P        3.07786805       8.84756450       4.82215722       0.00000000 NULL
P        4.21470098       0.58723070      10.35138729       0.00000000 NULL
P        4.21470098       4.13016690       4.82215722       0.00000000 NULL
P        3.07786805       5.30462830      10.35138729       0.00000000 NULL
P        7.21014919       6.48594313       9.12838375       0.00000000 NULL
P        0.08241984       2.94885207       3.59915369       0.00000000 NULL
P        0.08241984       1.76854553       9.12838375       0.00000000 NULL
P        7.21014919       7.66624967       3.59915369       0.00000000 NULL
P        1.22145268       4.57074343       9.99087763       0.00000000 NULL
P        6.07111635       4.86405177       4.46164756       0.00000000 NULL
P        6.07111635       9.28814103       9.99087763       0.00000000 NULL
P        1.22145268       0.14665417       4.46164756       0.00000000 NULL
P        6.27422306       6.75716675       1.82957991       0.00000000 NULL
P        1.01834597       2.67762845       7.35880998       0.00000000 NULL
P        1.01834597       2.03976915       1.82957991       0.00000000 NULL
P        6.27422306       7.39502605       7.35880998       0.00000000 NULL
32
Lattice="7.277514932952556 0.0 0.0 0.0 9.446633591972573 0.0 0.0 0.0 11.074970240192027" Properties=species:S:1:pos:R:3:initial_magmoms:R:1:castep_labels:S:1 n_minim_iter=9 pbc="T T T"
P        3.32781377       8.37785488       8.95625866       0.00000000 NULL
P        3.94970116       1.06877872       3.41877354       0.00000000 NULL
P        3.94970116       3.65453808       8.95625866       0.00000000 NULL
P        3.32781377       5.79209551       3.41877354       0.00000000 NULL
P        5.72831408       0.12649734       3.01118649       0.00000000 NULL
P        1.54920086       9.32013625       8.54867161       0.00000000 NULL
P        1.54920086       4.84981413       3.01118649       0.00000000 NULL
P        5.72831408       4.59681946       8.54867161       0.00000000 NULL
P        3.75500790       7.28286671       1.83440502       0.00000000 NULL
P        3.52250703       2.16376689       7.37189014       0.00000000 NULL
P        3.52250703       2.55954991       1.83440502       0.00000000 NULL
P        3.75500790       6.88708368       7.37189014       0.00000000 NULL
P        3.90348041       9.11508285       6.88367592       0.00000000 NULL
P        3.37403452       0.33155075       1.34619080       0.00000000 NULL
P        3.37403452       4.39176605       6.88367592       0.00000000 NULL
P        3.90348041       5.05486754       1.34619080       0.00000000 NULL
P        3.07298114       8.85706630       4.82846307       0.00000000 NULL
P        4.20453379       0.58956729      10.36594819       0.00000000 NULL
P        4.20453379       4.13374950       4.82846307       0.00000000 NULL
P        3.07298114       5.31288409      10.36594819       0.00000000 NULL
P        7.19471306       6.49259051       9.14250849       0.00000000 NULL
P        0.08280187       2.95404308       3.60502337       0.00000000 NULL
P        0.08280187       1.76927372       9.14250849       0.00000000 NULL
P        7.19471306       7.67735988       3.60502337       0.00000000 NULL
P        1.21572121       4.57605295      10.00571920       0.00000000 NULL
P        6.06179372       4.87058064       4.46823408       0.00000000 NULL
P        6.06179372       9.29936975      10.00571920       0.00000000 NULL
P        1.21572121       0.14726384       4.46823408       0.00000000 NULL
P        6.25955560       6.76654438       1.83198007       0.00000000 NULL
P        1.01795934       2.68008921       7.36946519       0.00000000 NULL
P        1.01795934       2.04322759       1.83198007       0.00000000 NULL
P        6.25955560       7.40340600       7.36946519       0.00000000 NULL
32
Lattice="7.245996928806339 0.0 0.0 0.0 9.450026737275856 0.0 0.0 0.0 11.085044819528322" Properties=species:S:1:pos:R:3:initial_magmoms:R:1:castep_labels:S:1 n_minim_iter=10 pbc="T T T"
P        3.31465428       8.38024291       8.96895083       0.00000000 NULL
P        3.93134265       1.06978383       3.42642842       0.00000000 NULL
P        3.93134265       3.65522954       8.96895083       0.00000000 NULL
P        3.31465428       5.79479720       3.42642842       0.00000000 NULL
P        5.70804490       0.12404280       3.01192888       0.00000000 NULL
P        1.53795203       9.32598393       8.55445129       0.00000000 NULL
P        1.53795203       4.84905617       3.01192888       0.00000000 NULL
P        5.70804490       4.60097056       8.55445129       0.00000000 NULL
P        3.74242596       7.28543696       1.83522537       0.00000000 NULL
P        3.50357097       2.16458977       7.37774778       0.00000000 NULL
P        3.50357097       2.56042359       1.83522537       0.00000000 NULL
P        3.74242596       6.88960314       7.37774778       0.00000000 NULL
P        3.88722279       9.11870530       6.88927201       0.00000000 NULL
P        3.35877414       0.33132144       1.34674960       0.00000000 NULL
P        3.35877414       4.39369193       6.88927201       0.00000000 NULL
P        3.88722279       5.05633481       1.34674960       0.00000000 NULL
P        3.06157310       8.85816687       4.83169741       0.00000000 NULL
P        4.18442383       0.59185987      10.37421982       0.00000000 NULL
P        4.18442383       4.13315350       4.83169741       0.00000000 NULL
P        3.06157310       5.31687324      10.37421982       0.00000000 NULL
P        7.16280449       6.49293761       9.15146569       0.00000000 NULL
P        0.08319243       2.95708913       3.60894328       0.00000000 NULL
P        0.08319243       1.76792424       9.15146569       0.00000000 NULL
P        7.16280449       7.68210250       3.60894328       0.00000000 NULL
P        1.20629314       4.57717947      10.01474374       0.00000000 NULL
P        6.03970379       4.87284727       4.47222133       0.00000000 NULL
P        6.03970379       9.30219284      10.01474374       0.00000000 NULL
P        1.20629314       0.14783390       4.47222133       0.00000000 NULL
P        6.23019291       6.77017976       1.83320740       0.00000000 NULL
P        1.01580402       2.67984697       7.37572981       0.00000000 NULL
P        1.01580402       2.04516639       1.83320740       0.00000000 NULL
P        6.23019291       7.40486034       7.37572981       0.00000000 NULL
32
Lattice="6.850535256624541 0.0 0.0 0.0 9.514057998427381 0.0 0.0 0.0 11.23497111298834" Properties=species:S:1:pos:R:3:initial_magmoms:R:1:castep_labels:S:1 n_minim_iter=11 pbc="T T T"
P        3.14997574       8.42822676       9.15441525       0.00000000 NULL
P        3.70055951       1.08583124       3.53692969       0.00000000 NULL
P        3.70055951       3.67119776       9.15441525       0.00000000 NULL
P        3.14997574       5.84286024       3.53692969       0.00000000 NULL
P        5.45620655       0.08995596       3.02355698       0.00000000 NULL
P        1.39432871       9.42410203       8.64104254       0.00000000 NULL
P        1.39432871       4.84698496       3.02355698       0.00000000 NULL
P        5.45620655       4.66707304       8.64104254       0.00000000 NULL
P        3.58679604       7.33363728       1.84852324       0.00000000 NULL
P        3.26373922       2.18042071       7.46600879       0.00000000 NULL
P        3.26373922       2.57660828       1.84852324       0.00000000 NULL
P        3.58679604       6.93744971       7.46600879       0.00000000 NULL
P        3.68339300       9.18528706       6.97346220       0.00000000 NULL
P        3.16714226       0.32877094       1.35597665       0.00000000 NULL
P        3.16714226       4.42825806       6.97346220       0.00000000 NULL
P        3.68339300       5.08579994       1.35597665       0.00000000 NULL
P        2.92047901       8.88837295       4.88098941       0.00000000 NULL
P        3.93005625       0.62568505      10.49847496       0.00000000 NULL
P        3.93005625       4.13134395       4.88098941       0.00000000 NULL
P        2.92047901       5.38271405      10.49847496       0.00000000 NULL
P        6.76169798       6.50858909       9.28494888       0.00000000 NULL
P        0.08883727       3.00546891       3.66746332       0.00000000 NULL
P        0.08883727       1.75156009       9.28494888       0.00000000 NULL
P        6.76169798       7.76249791       3.66746332       0.00000000 NULL
P        1.08458536       4.60084895      10.14908822       0.00000000 NULL
P        5.76594989       4.91320905       4.53160266       0.00000000 NULL
P        5.76594989       9.35787795      10.14908822       0.00000000 NULL
P        1.08458536       0.15618005       4.53160266       0.00000000 NULL
P        5.86045114       6.83332211       1.85091768       0.00000000 NULL
P        0.99008411       2.68073589       7.46840324       0.00000000 NULL
P        0.99008411       2.07629311       1.85091768       0.00000000 NULL
P        5.86045114       7.43776489       7.46840324       0.00000000 NULL
32
Lattice="7.373578499759755 0.0 0.0 0.0 9.614463916276481 0.0 0.0 0.0 11.214502307157547" Properties=species:S:1:pos:R:3:initial_magmoms:R:1:castep_labels:S:1 n_minim_iter=12 pbc="T T T"
P        3.39515901       8.51304286       9.17145706       0.00000000 NULL
P        3.97841949       1.10142105       3.56420590       0.00000000 NULL
P        3.97841949       3.70581091       9.17145706       0.00000000 NULL
P        3.39515901       5.90865301       3.56420590       0.00000000 NULL
P        5.90369913       0.07495834       2.99641630       0.00000000 NULL
P        1.46987937       9.53950558       8.60366745       0.00000000 NULL
P        1.46987937       4.88219030       2.99641630       0.00000000 NULL
P        5.90369913       4.73227362       8.60366745       0.00000000 NULL
P        3.88259924       7.40710270       1.84215551       0.00000000 NULL
P        3.49097926       2.20736122       7.44940667       0.00000000 NULL
P        3.49097926       2.59987074       1.84215551       0.00000000 NULL
P        3.88259924       7.01459318       7.44940667       0.00000000 NULL
P        3.96773859       9.28352992       6.95738511       0.00000000 NULL