9
Lattice="5.80669 1.336385968346545e-16 4.906808158292369e-16 0.8025315961497314 5.750964422884335 4.7504942290370746e-17 0.8025315961497318 0.6983168275650481 5.708410058993733" Properties=species:S:1:pos:R:3:initial_magmoms:R:1:castep_labels:S:1 n_minim_iter=1 pbc="T T T"
P        2.81413622       4.12208126       0.33167860       0.00000000 NULL
P        1.21072580       2.67245106       4.05130542       0.00000000 NULL
P        4.47145893       0.59847742       2.16074224       0.00000000 NULL
P        0.88595571       1.50449453       2.21619545       0.00000000 NULL
P        2.48206356       0.54817515       1.22425816       0.00000000 NULL
P        1.61250246       2.28109385       0.39546209       0.00000000 NULL
P        6.12832461       4.04342648       2.83711919       0.00000000 NULL
P        4.12234967       5.61244394       3.66900692       0.00000000 NULL
P        4.85160667       3.48526569       5.12540158       0.00000000 NULL
9
Lattice="5.8123773873443945 -0.000732764084596762 -0.0006485866732966455 0.8025919072499503 5.7566985035063745 -0.0006485866732963395 0.8025919072499514 0.6983693068149293 5.714180465494245" Properties=species:S:1:pos:R:3:initial_magmoms:R:1:castep_labels:S:1 n_minim_iter=2 pbc="T T T"
P        2.81622493       4.12601682       0.33140869       0.00000000 NULL
P        1.21122242       2.67449071       4.05524463       0.00000000 NULL
P        4.47564539       0.59839465       2.16228847       0.00000000 NULL
P        0.88626478       1.50565340       2.21839116       0.00000000 NULL
P        2.48440419       0.54816058       1.22514183       0.00000000 NULL
P        1.61369292       2.28329103       0.39534033       0.00000000 NULL
P        6.13334318       4.04666763       2.83892745       0.00000000 NULL
P        4.12521071       5.61711188       3.67200452       0.00000000 NULL
P        4.85551032       3.48760971       5.12967099       0.00000000 NULL
9
Lattice="5.993983130393181 -0.02349125983108594 -0.020792664904924835 0.8051512047985496 5.939706823079563 -0.02079266490492444 0.8051512047985508 0.7005962603124704 5.8982806273598" Properties=species:S:1:pos:R:3:initial_magmoms:R:1:castep_labels:S:1 n_minim_iter=3 pbc="T T T"
P        2.88328748       4.25197044       0.32346896       0.00000000 NULL
P        1.22783294       2.73988512       4.18123035       0.00000000 NULL
P        4.60965885       0.59646490       2.21190105       0.00000000 NULL
P        0.89645576       1.54289853       2.28871474       0.00000000 NULL
P        2.55942513       0.54798134       1.25357225       0.00000000 NULL
P        1.65198910       2.35369477       0.39171022       0.00000000 NULL
P        6.29411410       4.15113307       2.89748130       0.00000000 NULL
P        4.21755645       5.76655404       3.76858701       0.00000000 NULL
P        4.98119307       3.56331157       5.26627972       0.00000000 NULL
9
Lattice="6.027665257768911 0.00020946466148896592 0.0001854020834596131 0.8332796212970969 5.9697900780781845 0.00018540208345911845 0.8332796212970973 0.7250719902001559 5.925593997205837" Properties=species:S:1:pos:R:3:initial_magmoms:R:1:castep_labels:S:1 n_minim_iter=4 pbc="T T T"
P        2.91569591       4.28484539       0.34918022       0.00000000 NULL
P        1.26154170       2.76790362       4.21074003       0.00000000 NULL
P        4.64669742       0.62533166       2.23612899       0.00000000 NULL
P        0.91484123       1.56091978       2.30723432       0.00000000 NULL
P        2.58233953       0.56334732       1.26921140       0.00000000 NULL
P        1.67237842       2.37398594       0.40506351       0.00000000 NULL
P        6.35176184       4.20729474       2.94426631       0.00000000 NULL
P        4.27827105       5.81628781       3.81865218       0.00000000 NULL
P        5.04478315       3.61574066       5.30956628       0.00000000 NULL
9
Lattice="6.0453278419599075 0.031013025696545307 0.027450356244528143 0.8662286792791285 5.98302585651548 0.027450356244527945 0.8662286792791292 0.7537423649887097 5.935421161890029" Properties=species:S:1:pos:R:3:initial_magmoms:R:1:castep_labels:S:1 n_minim_iter=5 pbc="T T T"
P        2.94566259       4.30839130       0.38071988       0.00000000 NULL
P        1.29952084       2.79286079       4.23028197       0.00000000 NULL
P        4.67415901       0.65984661       2.25852858       0.00000000 NULL
P        0.93526093       1.57775660       2.32082338       0.00000000 NULL
P        2.60054557       0.58142428       1.28427357       0.00000000 NULL
P        1.69187583       2.38964758       0.42117776       0.00000000 NULL
P        6.39994562       4.26121471       2.99236364       0.00000000 NULL
P        4.33869816       5.85650605       3.86633290       0.00000000 NULL
P        5.10484505       3.66837181       5.34369723       0.00000000 NULL
9
Lattice="6.082294921340031 0.10810664998275543 0.0956877308091764 0.9476916021699876 6.008983207257754 0.09568773080917752 0.9476916021699895 0.8246267141535832 5.952900646679512" Properties=species:S:1:pos:R:3:initial_magmoms:R:1:castep_labels:S:1 n_minim_iter=6 pbc="T T T"
P        3.01709595       4.36201072       0.45943126       0.00000000 NULL
P        1.39322098       2.85191072       4.27394702       0.00000000 NULL
P        4.73713651       0.74566635       2.31183949       0.00000000 NULL
P        0.98544540       1.61821888       2.35232594       0.00000000 NULL
P        2.64331686       0.62612640       1.32061122       0.00000000 NULL
P        1.73888571       2.42627321       0.46113678       0.00000000 NULL
P        6.51264865       4.39101717       3.10900939       0.00000000 NULL
P        4.48455625       5.94994704       3.98101106       0.00000000 NULL
P        5.24897830       3.79552984       5.42252189       0.00000000 NULL
9
Lattice="6.124490448456485 0.23499773467890045 0.20800200524489504 1.0791967035953929 6.033236417006029 0.20800200524489498 1.0791967035953938 0.9390548882922566 5.963336516954922" Properties=species:S:1:pos:R:3:initial_magmoms:R:1:castep_labels:S:1 n_minim_iter=7 pbc="T T T"
P        3.12257372       4.43744405       0.58993870       0.00000000 NULL
P        1.54516909       2.93720660       4.33297518       0.00000000 NULL
P        4.82642381       0.88662700       2.38933667       0.00000000 NULL
P        1.06469756       1.68126427       2.40088651       0.00000000 NULL
P        2.70959071       0.69689816       1.37729358       0.00000000 NULL
P        1.81227935       2.48294735       0.52450214       0.00000000 NULL
P        6.67278630       4.59519637       3.29214820       0.00000000 NULL
P        4.71128244       6.07999736       4.16144162       0.00000000 NULL
P        5.47333036       3.99314523       5.52970093       0.00000000 NULL
9
Lattice="6.184207400558393 0.29701631320309235 0.262896103322464 1.1488734694530558 6.083808808190543 0.262896103322463 1.1488734694530558 0.9996836016315851 6.006869123960324" Properties=species:S:1:pos:R:3:initial_magmoms:R:1:castep_labels:S:1 n_minim_iter=8 pbc="T T T"
P        3.18951844       4.50315004       0.65935526       0.00000000 NULL
P        1.63056491       2.99288323       4.38976600       0.00000000 NULL
P        4.90075154       0.96247806       2.43770544       0.00000000 NULL
P        1.10758270       1.72294877       2.44500195       0.00000000 NULL
P        2.76389956       0.73262020       1.41331287       0.00000000 NULL
P        1.85949089       2.53119420       0.55558618       0.00000000 NULL
P        6.78551563       4.72699357       3.40023157       0.00000000 NULL
P        4.84896661       6.17460556       4.27913944       0.00000000 NULL
P        5.61944283       4.11177392       5.60931750       0.00000000 NULL
9
Lattice="6.167220415342958 0.32840539642754907 0.2906793169028273 1.1776135793146258 6.062646617908674 0.2906793169028285 1.1776135793146278 1.0246915918947594 5.982489918120611" Properties=species:S:1:pos:R:3:initial_magmoms:R:1:castep_labels:S:1 n_minim_iter=9 pbc="T T T"
P        3.20248858       4.50138158       0.68997613       0.00000000 NULL
P        1.66224741       3.00155784       4.38429245       0.00000000 NULL
P        4.90079263       0.99446182       2.44698049       0.00000000 NULL
P        1.12366596       1.73160304       2.44668234       0.00000000 NULL
P        2.76881512       0.74817335       1.42169906       0.00000000 NULL
P        1.87028494       2.53465111       0.57000594       0.00000000 NULL
P        6.79668768       4.75775808       3.43199195       0.00000000 NULL
P        4.88543326       6.18079704       4.30581978       0.00000000 NULL
P        5.65145617       4.14412655       5.61222348       0.00000000 NULL
9
Lattice="6.182634823516018 0.3473637528560551 0.3074598027175743 1.198520392478672 6.075292898829155 0.3074598027175742 1.198520392478673 1.0428834979994608 5.993005034742712" Properties=species:S:1:pos:R:3:initial_magmoms:R:1:castep_labels:S:1 n_minim_iter=10 pbc="T T T"
P        3.22170915       4.51899759       0.71105401       0.00000000 NULL
P        1.68774350       3.01740675       4.39921871       0.00000000 NULL
P        4.92089602       1.01739959       2.46089969       0.00000000 NULL
P        1.13660192       1.74358080       2.45906081       0.00000000 NULL
P        2.78421238       0.75908601       1.43208512       0.00000000 NULL
P        1.88393560       2.54829265       0.57957671       0.00000000 NULL
P        6.82874219       4.79565437       3.46338102       0.00000000 NULL
P        4.92527870       6.20760183       4.33962420       0.00000000 NULL
P        5.69341897       4.17850228       5.63472519       0.00000000 NULL
9
Lattice="6.199307119093821 0.3845587369685822 0.3403819553120621 1.2376626704928981 6.08666454579966 0.3403819553120618 1.2376626704928988 1.0769428565813548 6.000294930439256" Properties=species:S:1:pos:R:3:initial_magmoms:R:1:castep_labels:S:1 n_minim_iter=11 pbc="T T T"
P        3.25338693       4.54344679       0.75106416       0.00000000 NULL
P        1.73439487       3.04288141       4.41862873       0.00000000 NULL
P        4.94948871       1.06051296       2.48382896       0.00000000 NULL
P        1.16044752       1.76353684       2.47736979       0.00000000 NULL
P        2.80790707       0.77985614       1.44967031       0.00000000 NULL
P        1.90699579       2.56899895       0.59805785       0.00000000 NULL
P        6.87856005       4.85961133       3.51831140       0.00000000 NULL
P        4.99385611       6.24833262       4.39643793       0.00000000 NULL
P        5.76364738       4.23794401       5.66825592       0.00000000 NULL
9
Lattice="6.422623491277313 0.7828538730718961 0.6929223195925011 1.6629995839759348 6.252790183668944 0.6929223195925016 1.662999583975936 1.4470465702479347 6.12238373883162" Properties=species:S:1:pos:R:3:initial_magmoms:R:1:castep_labels:S:1 n_minim_iter=12 pbc="T T T"
P        3.61396632       4.83243926       1.18082363       0.00000000 NULL
P        2.24146997       3.33619377       4.65329880       0.00000000 NULL
P        5.28554278       1.52560607       2.74647590       0.00000000 NULL
P        1.42828694       1.99161091       2.69209687       0.00000000 NULL
P        3.08344576       1.01184018       1.64998328       0.00000000 NULL
P        2.16989866       2.81052016       0.80400211       0.00000000 NULL
P        7.46524230       5.56932690       4.12266426       0.00000000 NULL
P        5.75441528       6.73456571       5.02751777       0.00000000 NULL
P        6.54763620       4.89646930       6.07426160       0.00000000 NULL
9
Lattice="6.044398723899583 0.47022205192684235 0.41620456403460765 1.3010942976365991 5.9214034096871595 0.41620456403460887 1.3010942976366013 1.132137409477206 5.827049808045251" Properties=species:S:1:pos:R:3:initial_magmoms:R:1:castep_labels:S:1 n_minim_iter=13 pbc="T T T"
P        3.16604056       4.43860085       0.87276579       0.00000000 NULL
P        1.82935584       2.94143712       4.29978085       0.00000000 NULL
P        4.83357698       1.17256925       2.39756655       0.00000000 NULL
P        1.18954622       1.78349083       2.51903585       0.00000000 NULL
P        2.85528927       0.80262474       1.46441730       0.00000000 NULL
P        1.93077996       2.61352126       0.61886731       0.00000000 NULL
P        6.71982423       4.93845961       3.53349975       0.00000000 NULL
P        4.99633116       6.08771329       4.47285851       0.00000000 NULL
P        5.81980039       4.23260705       5.49954565       0.00000000 NULL
9
Lattice="6.361903143694942 0.5544164892670334 0.49072703473482526 1.4283624215679915 6.224224453374025 0.4907270347348242 1.428362421567992 1.242878809542088 6.118581153616422" Properties=species:S:1:pos:R:3:initial_magmoms:R:1:castep_labels:S:1 n_minim_iter=14 pbc="T T T"
P        3.37703370       4.69283807       0.98296170       0.00000000 NULL
P        1.99742237       3.13102151       4.53875618       0.00000000 NULL
P        5.11453530       1.30305733       2.55673027       0.00000000 NULL
P        1.28594374       1.89579012       2.66190847       0.00000000 NULL
P        3.02257185       0.87661250       1.55853718       0.00000000 NULL
P        2.05532445       2.76504492       0.68087899       0.00000000 NULL
P        7.13946428       5.27327624       3.78779991       0.00000000 NULL
P        5.34459017       6.46282096       4.77431900       0.00000000 NULL
P        6.20940152       4.52987281       5.83527255       0.00000000 NULL
9
Lattice="6.239460466068978 0.595822376896242 0.527376356770155 1.452448375724578 6.097234203169747 0.5273763567701549 1.4524483757245792 1.263837021251383 5.988080388045707" Properties=species:S:1:pos:R:3:initial_magmoms:R:1:castep_labels:S:1 n_minim_iter=15 pbc="T T T"
P        3.35045281       4.61543711       1.01181517       0.00000000 NULL
P        2.01280549       3.10203638       4.45842439       0.00000000 NULL
P        5.03420345       1.32979960       2.53771399       0.00000000 NULL
P        1.29720525       1.88088452       2.61814618       0.00000000 NULL
P        2.97931412       0.89401962       1.54905575       0.00000000 NULL
P        2.04211833       2.72321091       0.69930860       0.00000000 NULL
P        7.06046369       5.23580499       3.78048151       0.00000000 NULL
P        5.32197079       6.38621134       4.73801366       0.00000000 NULL
P        6.16137134       4.51373675       5.76363822       0.00000000 NULL
