24
Lattice="7.903221675056085 -0.031127126492448063 -0.029668981706452133 0.36687776126228944 7.894762976262881 -0.029668981706451245 0.3668777612622904 0.3488462428004355 7.887107771466716" Properties=species:S:1:pos:R:3:initial_magmoms:R:1:castep_labels:S:1:forces:R:3 n_minim_iter=1 energy=-119.955761511504 stress="0.001246681644397173 -0.001978154053620792 -0.001885498850764256 -0.001978154053620792 0.0014461482702748673 -0.0017928233376922752 -0.001885498850764256 -0.0017928233376922752 0.001618257035949196" free_energy=-119.955761511504 pbc="T T T"
P        3.18957060       2.45743195       7.23677717       0.00000000 NULL      -0.07513900       0.13580300      -0.01119200
P        2.61492473       7.37524034       2.71132345       0.00000000 NULL       0.13184700      -0.01510600      -0.08125200
P        7.49755814       2.81560422       2.10766960       0.00000000 NULL      -0.00844500      -0.07480800       0.13618400
P        1.10535423       3.54227786       5.42501213       0.00000000 NULL       0.08255800      -0.34057800       0.18035700
P        3.59344402       5.46314742       0.66443758       0.00000000 NULL      -0.33598900       0.18492500       0.09084200
P        5.63716410       0.82253925       3.27812556       0.00000000 NULL       0.16777100       0.07420500      -0.34883500
P        8.02199653       5.07690646       6.48613508       0.00000000 NULL       0.80575600       0.29810900       0.30208700
P        5.47441214       6.85051418       7.43630438       0.00000000 NULL       0.33830400       0.33960000       0.77433200
P        7.11748666       7.67333114       4.76011855       0.00000000 NULL       0.35620500       0.78881800       0.28328500
P        0.78034318       1.27174309       7.05089497       0.00000000 NULL      -0.15039100       0.00803500      -0.13098000
P        1.30942379       7.07708046       0.37646692       0.00000000 NULL       0.00045400      -0.13805000      -0.14415300
P        7.13403823       0.42164478       0.93225539       0.00000000 NULL      -0.13785400      -0.14363000       0.01430600
P        3.20622270       7.21476063       4.83796088       0.00000000 NULL       0.25744100       0.30784400       0.28484000
P        7.36705673       4.96849512       2.60365739       0.00000000 NULL       0.32041800       0.29609600       0.22768000
P        5.33315895       2.94140386       6.97452933       0.00000000 NULL       0.31185500       0.24204500       0.29383500
P        5.45143957       6.81365109       1.87081006       0.00000000 NULL      -0.10958700       0.09476500      -0.68945400
P        7.07951356       2.11322520       5.00586975       0.00000000 NULL       0.08912700      -0.69413700      -0.08103500
P        2.46703206       5.33397932       6.71612852       0.00000000 NULL      -0.68876900      -0.07499900       0.12770900
P        1.21053811       5.29580111       4.05741846       0.00000000 NULL      -0.58447300      -0.12923100      -0.28091200
P        5.35003926       4.09792935       0.74673391       0.00000000 NULL      -0.15849800      -0.30826100      -0.56309300
P        4.36213101       0.99214237       5.09519608       0.00000000 NULL      -0.31585100      -0.56929100      -0.11561500
P        3.79344991       2.55882302       1.23248460       0.00000000 NULL       0.18802800      -0.70088800       0.23041100
P        2.74659541       1.40652058       3.59649403       0.00000000 NULL      -0.69053000       0.24084300       0.21178000
P        1.54304061       3.72047018       2.49679456       0.00000000 NULL       0.20576300       0.17789200      -0.71112800
24
Lattice="7.852491881453045 0.04966951419511286 0.04734275450645196 0.44501741235160813 7.840029037677745 0.047342754506452304 0.4450174123516089 0.4231454415375265 7.828744764222454" Properties=species:S:1:pos:R:3:initial_magmoms:R:1:castep_labels:S:1:forces:R:3 n_minim_iter=2 energy=-120.039105162353 stress="-0.005329758847733179 0.0008737823710066423 0.0008328254449619775 0.0008737823710066423 -0.00541790346950476 0.0007918685189173125 0.0008328254449619775 0.0007918685189173125 -0.005493898090395951" free_energy=-120.039105162353 pbc="T T T"
P        3.26426428       2.54043809       7.23074552       0.00000000 NULL      -0.06123500       0.21111500       0.08709700
P        2.70158675       7.37259157       2.78195081       0.00000000 NULL       0.20776400       0.08355600      -0.07588200
P        7.49927658       2.89030613       2.19086945       0.00000000 NULL       0.09391500      -0.06604600       0.20669900
P        1.18831666       3.57422614       5.42565801       0.00000000 NULL       0.14039700      -0.69006600       0.13618500
P        3.62952934       5.46768767       0.74556163       0.00000000 NULL      -0.68211100       0.14442300       0.16823100
P        5.64351565       0.90528683       3.31000614       0.00000000 NULL       0.10988900       0.13503400      -0.69579700
P        8.09478462       5.18489178       6.56108332       0.00000000 NULL       0.54193900       0.46042700       0.44733600
P        5.58592570       6.92860066       7.49989214       0.00000000 NULL       0.48712200       0.47165100       0.49603300
P        7.20108933       7.74199654       4.86438662       0.00000000 NULL       0.49558600       0.51764300       0.43844800
P        0.85556205       1.33576946       7.01064663       0.00000000 NULL      -0.04528100       0.26030900      -0.59564200
P        1.37715658       7.04032531       0.45021320       0.00000000 NULL       0.25770000      -0.59775400      -0.02970900
P        7.10074038       0.49863804       0.99813768       0.00000000 NULL      -0.58402000      -0.01589200       0.28856500
P        3.30961387       7.24248331       4.89915944       0.00000000 NULL       0.22065900       0.21276900       0.36804100
P        7.39995049       5.03450676       2.70247039       0.00000000 NULL       0.22361300       0.37766900       0.19178100
P        5.40074320       3.04151885       6.99928623       0.00000000 NULL       0.38844900       0.20135400       0.19488100
P        5.50359659       6.83742873       1.96446735       0.00000000 NULL      -0.11265100       0.18213500      -0.53624500
P        7.10588738       2.20921468       5.05221476       0.00000000 NULL       0.17623200      -0.54146200      -0.09583200
P        2.56422782       5.38130209       6.73538881       0.00000000 NULL      -0.53190100      -0.08597700       0.20763400
P        1.29043337       5.30530929       4.08178277       0.00000000 NULL      -0.54380300       0.09462300      -0.40958400
P        5.36355848       4.12606807       0.82478979       0.00000000 NULL       0.06712100      -0.43537700      -0.52761100
P        4.39091479       1.07068788       5.10352528       0.00000000 NULL      -0.43144500      -0.52273900       0.11415100
P        3.80949799       2.58290248       1.28536441       0.00000000 NULL       0.14324700      -0.75606800       0.21622400
P        2.77145242       1.46004984       3.60875710       0.00000000 NULL      -0.74789600       0.22465900       0.17056300
P        1.59775363       3.73378008       2.51831124       0.00000000 NULL       0.18671100       0.13401400      -0.76556500
24
Lattice="7.908696362317783 0.12133164037155715 0.11564788093983201 0.51941879448365 7.8925536826955405 0.11564788093983115 0.5194187944836497 0.4938901019023904 7.877934414162106" Properties=species:S:1:pos:R:3:initial_magmoms:R:1:castep_labels:S:1:forces:R:3 n_minim_iter=3 energy=-120.127272714321 stress="0.004335094468399926 0.004270161759225265 0.004070122517926817 0.004270161759225265 0.0039045481882191914 0.003870062883189558 0.004070122517926817 0.003870062883189558 0.0035330205199578892" free_energy=-120.127272714321 pbc="T T T"
P        3.37139540       2.64745357       7.31873998       0.00000000 NULL       0.28212800       0.39948100       0.33256100
P        2.81386104       7.46535595       2.87922192       0.00000000 NULL       0.41318300       0.34472700       0.24541200
P        7.59757683       2.99261715       2.29354336       0.00000000 NULL       0.36509200       0.26407900       0.38307900
P        1.27732421       3.64376983       5.49688540       0.00000000 NULL       0.03476400      -0.51930300       0.13500800
P        3.70346676       5.54292696       0.82744152       0.00000000 NULL      -0.51689100       0.13777300       0.05432700
P        5.72238260       0.99043106       3.37605517       0.00000000 NULL       0.11157100       0.02918000      -0.52517400
P        8.26775450       5.34994371       6.71467389       0.00000000 NULL       0.65692000       0.34212900       0.33080400
P        5.75947812       7.08989797       7.65677910       0.00000000 NULL       0.37477300       0.36105000       0.62226700
P        7.37092121       7.90662341       5.02188553       0.00000000 NULL       0.37946200       0.63862700       0.32587300
P        0.93199772       1.41047412       7.06174092       0.00000000 NULL      -0.07715700       0.24295900      -0.58471100
P        1.45561537       7.09484024       0.52025721       0.00000000 NULL       0.23876800      -0.58831600      -0.06116300
P        7.15913693       0.57222651       1.07030695       0.00000000 NULL      -0.57555100      -0.04823800       0.27071500
P        3.44499754       7.36188155       5.01866126       0.00000000 NULL       0.14759800       0.30139700       0.10136100
P        7.52601447       5.16006511       2.82579247       0.00000000 NULL       0.30844400       0.10758400       0.12722100
P        5.53249020       3.17043196       7.11281816       0.00000000 NULL       0.12298000       0.14158300       0.29618700
P        5.61904849       6.94704206       2.06756112       0.00000000 NULL      -0.10586100       0.23857200      -0.54693300
P        7.22117523       2.31745312       5.15693201       0.00000000 NULL       0.23293800      -0.55195100      -0.09138300
P        2.67813425       5.49115762       6.83993372       0.00000000 NULL      -0.53951900      -0.07879300       0.26451700
P        1.37279061       5.38165247       4.15252515       0.00000000 NULL      -0.53433400      -0.06888500      -0.51016900
P        5.44395190       4.20048808       0.89971670       0.00000000 NULL      -0.09570400      -0.53499900      -0.50511900
P        4.46928858       1.14919821       5.17638923       0.00000000 NULL      -0.53914100      -0.50783200      -0.04434900
P        3.87352103       2.63167118       1.34984754       0.00000000 NULL       0.16643000      -0.67523800      -0.16133000
P        2.82338312       1.52740651       3.66708111       0.00000000 NULL      -0.66600100      -0.15155100       0.20772400
P        1.66763982       3.79436086       2.56393249       0.00000000 NULL      -0.18489100       0.17596300      -0.66672700
24
Lattice="7.879225952268094 0.1407710112206153 0.13417661786791557 0.5373495268206864 7.86214179282724 0.13417661786791168 0.5373495268206832 0.510939564330732 7.846669210365931" Properties=species:S:1:pos:R:3:initial_magmoms:R:1:castep_labels:S:1:forces:R:3 n_minim_iter=4 energy=-120.603394831543 stress="-0.0006337362301641167 0.0006749600494357044 0.0006433558094232854 0.0006749600494357044 -0.0007017751426924857 0.0006117309265369197 0.0006433558094232854 0.0006117309265369197 -0.0007605247619448336" free_energy=-120.603394831543 pbc="T T T"
P        3.38298023       2.68070881       7.30931040       0.00000000 NULL       0.30333200       0.34252600       0.26720900
P        2.84765744       7.45641161       2.88955818       0.00000000 NULL       0.35736700       0.28060000       0.27256200
P        7.59034565       3.00458129       2.32721242       0.00000000 NULL       0.29823800       0.28868100       0.32932200
P        1.30182638       3.60244106       5.49832274       0.00000000 NULL      -0.01895200       0.02418800       0.04348700
P        3.66342422       5.54563558       0.85389428       0.00000000 NULL       0.02319900       0.04246900      -0.02220500
P        5.72307145       1.01492963       3.33470501       0.00000000 NULL       0.04358400      -0.02117300       0.02207400
P        8.33223302       5.39855964       6.75180491       0.00000000 NULL       0.06313500      -0.07495700       0.12638700
P        5.81127917       7.12995617       7.71687646       0.00000000 NULL      -0.07167900       0.12944800       0.06069000
P        7.41353703       7.96903520       5.06866546       0.00000000 NULL       0.12567400       0.05687900      -0.08092700
P        0.93815549       1.43271971       7.00612124       0.00000000 NULL      -0.12340500       0.00307100      -0.25296300
P        1.47814282       7.03952565       0.52794766       0.00000000 NULL      -0.00314900      -0.25858600      -0.11113500
P        7.10502688       0.58112027       1.09519342       0.00000000 NULL      -0.25841600      -0.11053500       0.01519500
P        3.48429777       7.37883050       5.04808049       0.00000000 NULL      -0.24127400      -0.14847700      -0.13873800
P        7.54492088       5.19129129       2.86273485       0.00000000 NULL      -0.16043900      -0.14977300      -0.22657300
P        5.56462879       3.20816172       7.12833725       0.00000000 NULL      -0.15766100      -0.23363300      -0.14165700
P        5.60874514       6.94909173       2.03111180       0.00000000 NULL      -0.02254000       0.32569500       0.14244200
P        7.22270348       2.28054744       5.14829788       0.00000000 NULL       0.32414600       0.14041000      -0.04569600
P        2.64135234       5.48269568       6.84372844       0.00000000 NULL       0.15655500      -0.03046200       0.31849100
P        1.33801142       5.36496654       4.11605296       0.00000000 NULL       0.04994200      -0.11642100      -0.06337500
P        5.42553584       4.16243288       0.86760932       0.00000000 NULL      -0.11375800      -0.06063000       0.05871600
P        4.43035433       1.11633786       5.16147100       0.00000000 NULL      -0.06628300       0.05334600      -0.11325000
P        3.88276879       2.56942055       1.37194818       0.00000000 NULL       0.17563000      -0.56332100      -0.11162400
P        2.76167713       1.55007480       3.67837801       0.00000000 NULL      -0.55376200      -0.10172900       0.20889000
P        1.68717216       3.80263558       2.50069391       0.00000000 NULL      -0.12948300       0.18238200      -0.55732100
24
Lattice="7.917469713591463 0.2399496235596321 0.22870922549141928 0.6383280784319401 7.895342915400821 0.2287092254914123 0.6383280784319338 0.6069551642183247 7.875300190483123" Properties=species:S:1:pos:R:3:initial_magmoms:R:1:castep_labels:S:1:forces:R:3 n_minim_iter=5 energy=-120.944774613738 stress="-0.0008668608532380948 0.00013659613171276445 0.00013019478581875407 0.00013659613171276445 -0.0008806452210737591 0.0001237729883404178 0.00013019478581875407 0.0001237729883404178 -0.0008925480431514397" free_energy=-120.944774613738 pbc="T T T"
P        3.56705191       2.87538293       7.43966587       0.00000000 NULL      -0.40699100       0.26525700      -0.10183000
P        3.05135349       7.59496058       3.05714410       0.00000000 NULL       0.24442700      -0.12183800      -0.41446600
P        7.73897594       3.18139301       2.51541336       0.00000000 NULL      -0.10937200      -0.40199000       0.26983500
P        1.41686623       3.68865635       5.57949708       0.00000000 NULL      -0.02729000       0.02768900      -0.04861400
P        3.75532295       5.63201656       0.96042815       0.00000000 NULL       0.02628100      -0.04993200      -0.02628600
P        5.81397039       1.12553258       3.41692961       0.00000000 NULL      -0.04854400      -0.02487800       0.02999000
P        8.55786859       5.59315741       6.95464112       0.00000000 NULL      -0.08139800      -0.09674600       0.10657400
P        6.01699192       7.34289281       7.92245487       0.00000000 NULL      -0.10072400       0.10278700      -0.08144800
P        7.63656217       8.18371272       5.25331535       0.00000000 NULL       0.09758300      -0.08642200      -0.10174700
P        1.01340582       1.52080853       7.00856939       0.00000000 NULL      -0.21608200      -0.13015600      -0.15187200
P        1.56990910       7.04536132       0.59846814       0.00000000 NULL      -0.14087100      -0.16172900      -0.20173100
P        7.11547602       0.65593935       1.18306358       0.00000000 NULL      -0.16861800      -0.20785300      -0.12272600
P        3.61883850       7.48661225       5.16714768       0.00000000 NULL       0.06865200       0.08410900       0.22912800
P        7.65934067       5.31640318       2.98582114       0.00000000 NULL       0.08746000       0.23194900       0.05327200
P        5.69534356       3.33628287       7.23028689       0.00000000 NULL       0.23605900       0.05683700       0.07302600
P        5.73930439       7.11767777       2.17830105       0.00000000 NULL       0.05474100       0.40305100       0.26550200
P        7.39764993       2.43341165       5.26300584       0.00000000 NULL       0.40529700       0.26684200       0.02160800
P        2.80283202       5.60527916       7.00506426       0.00000000 NULL       0.28691100       0.04034500       0.38985800
P        1.44367497       5.41783882       4.18184623       0.00000000 NULL      -0.08582100      -0.29392100      -0.39339000
P        5.48366171       4.23308203       0.96720400       0.00000000 NULL      -0.29786700      -0.39633500      -0.05196800
P        4.50384077       1.21843053       5.21112830       0.00000000 NULL      -0.41083200      -0.06521500      -0.27472200
P        3.97703789       2.52698217       1.43799112       0.00000000 NULL       0.46021000      -0.09469000       0.17998500
P        2.72403949       1.62065786       3.77138764       0.00000000 NULL      -0.07139600       0.20203900       0.45523100
P        1.75577043       3.89356578       2.45513818       0.00000000 NULL       0.19818400       0.45080000      -0.10320900
24
Lattice="7.958313890508301 0.3626382870473635 0.3456505600373485 0.7629177996141672 7.929957309981053 0.3456505600373359 0.7629177996141556 0.7254214783836613 7.904268525706584" Properties=species:S:1:pos:R:3:initial_magmoms:R:1:castep_labels:S:1:forces:R:3 n_minim_iter=6 energy=-121.51877849801 stress="-0.0029286915195570265 -0.0014006644377925655 -0.0013350656759698574 -0.0014006644377925655 -0.0027874705538019854 -0.001269446623778506 -0.0013350656759698574 -0.001269446623778506 -0.002665566018995047" free_energy=-121.51877849801 pbc="T T T"
P        3.74385984       3.15830752       7.58676503       0.00000000 NULL      -0.52422700       0.32916200       0.01782300
P        3.34282229       7.74967317       3.21224241       0.00000000 NULL       0.30234700      -0.00809600      -0.54037300
P        7.90816912       3.34989502       2.79096058       0.00000000 NULL       0.00713900      -0.52525500       0.32793000
P        1.55292850       3.80309954       5.66989393       0.00000000 NULL      -0.01430400      -0.02273600      -0.07587000
P        3.87647235       5.72854785       1.08607172       0.00000000 NULL      -0.02342500      -0.07641000      -0.00949100
P        5.91647968       1.25659929       3.52690752       0.00000000 NULL      -0.07749800      -0.01041400      -0.01907700
P        8.82471978       5.81302355       7.21495914       0.00000000 NULL       0.10706500      -0.03731500       0.22333700
P        6.25001638       7.61515757       8.16512265       0.00000000 NULL      -0.03187900       0.22829400       0.09798000
P        7.92021544       8.43660141       5.46044884       0.00000000 NULL       0.22640500       0.09578200      -0.04797500
P        1.06303178       1.59777574       6.97988796       0.00000000 NULL      -0.12947400      -0.20861400      -0.01180000
P        1.64927758       7.01890315       0.64547796       0.00000000 NULL      -0.21486700      -0.01748100      -0.11810300
P        7.09304801       0.70675914       1.26131731       0.00000000 NULL      -0.02828000      -0.12821100      -0.20780700
P        3.79076414       7.62699367       5.33964359       0.00000000 NULL      -0.06497200      -0.06265500       0.12087000
P        7.80820129       5.49659366       3.14200089       0.00000000 NULL      -0.06584400       0.11777100      -0.06745700
P        5.88280130       3.49897550       7.36223732       0.00000000 NULL       0.11430500      -0.07081700      -0.06837500
P        5.91522740       7.39104617       2.40655689       0.00000000 NULL      -0.15840700       0.20568300      -0.06596400
P        7.67953010       2.66916830       5.41381129       0.00000000 NULL       0.19744600      -0.07396500      -0.16520700
P        3.05248362       5.76883850       7.26717557       0.00000000 NULL      -0.06393100      -0.15538500       0.20861000
P        1.55008224       5.42087209       4.19508182       0.00000000 NULL       0.25735400       0.17899800      -0.34446400
P        5.49204926       4.25138985       1.07256700       0.00000000 NULL       0.19172900      -0.33217800       0.26424400
P        4.52254772       1.32402979       5.21352357       0.00000000 NULL      -0.32210100       0.27392200       0.19530600
P        4.16143642       2.45664562       1.54403331       0.00000000 NULL       0.17483600       0.24211600      -0.13074400
P        2.66307753       1.73557691       3.95379444       0.00000000 NULL       0.25061000      -0.12280000       0.16850300
P        1.86747397       4.07256657       2.37979875       0.00000000 NULL      -0.11002600       0.18060600       0.24810400
24
Lattice="8.005155545177821 0.48260446528851625 0.4599969436810007 0.8850904913043207 7.970698664145471 0.45999694368098365 0.885090491304305 0.8415895566075589 7.939481179586947" Properties=species:S:1:pos:R:3:initial_magmoms:R:1:castep_labels:S:1:forces:R:3 n_minim_iter=7 energy=-121.836812103405 stress="-0.0047677946372914545 -0.0005044073728431415 -0.0004807441149278647 -0.0005044073728431415 -0.0047169296903707665 -0.00045710096173469107 -0.0004807441149278647 -0.00045710096173469107 -0.004673081291464039" free_energy=-121.836812103405 pbc="T T T"
P        3.89364820       3.43119792       7.74227649       0.00000000 NULL      -0.44240800       0.27333100      -0.00820600
P        3.62290908       7.91151892       3.34048784       0.00000000 NULL       0.25070600      -0.03003500      -0.45468900
P        8.08391327       3.49101283       3.05608187       0.00000000 NULL      -0.01737300      -0.44209100       0.27340900
P        1.68407854       3.91128513       5.75115572       0.00000000 NULL       0.10395400       0.49810000      -0.05330700
P        3.99112473       5.81573450       1.20756762       0.00000000 NULL       0.50269900      -0.04947200       0.08120800
P        6.00932903       1.38323456       3.63107295       0.00000000 NULL      -0.02409400       0.10530200       0.50008300
P        9.10293037       6.04542343       7.48141620       0.00000000 NULL       0.03877900      -0.21958800       0.09282900
P        6.49613068       7.89406793       8.41819765       0.00000000 NULL      -0.21735500       0.09511200       0.04527500
P        8.21116502       8.70049606       5.67980733       0.00000000 NULL       0.08404400       0.03459100      -0.22378600
P        1.12863135       1.66603716       6.97867935       0.00000000 NULL       0.10564800      -0.15046500       0.16252900
P        1.72075566       7.02067205       0.70754358       0.00000000 NULL      -0.14495900       0.16776600       0.10517200
P        7.09841392       0.77217149       1.32955818       0.00000000 NULL       0.16025900       0.09770000      -0.15808500
P        3.95706320       7.76209105       5.50039456       0.00000000 NULL       0.09831800      -0.00131600       0.00294200
P        7.95150125       5.66479606       3.29339651       0.00000000 NULL       0.00364000       0.00764900       0.09800700
P        6.05800616       3.65665218       7.48947283       0.00000000 NULL       0.00782500       0.09804900      -0.00145700
P        6.06689649       7.62143947       2.59364449       0.00000000 NULL      -0.48082100      -0.07228300      -0.06898100
P        7.91726840       2.86274651       5.54455660       0.00000000 NULL      -0.09640200      -0.09175100      -0.47271600
P        3.25778753       5.91034906       7.48833484       0.00000000 NULL      -0.09648900      -0.47656600      -0.06889300
P        1.70135883       5.49130226       4.21619542       0.00000000 NULL       0.04106900       0.23423100      -0.20127600
P        5.57000758       4.27955227       1.21892333       0.00000000 NULL       0.23600300      -0.19964200       0.03884000
P        4.55459999       1.47388249       5.28286055       0.00000000 NULL      -0.18750600       0.05057700       0.24361100
P        4.30341242       2.47968342       1.60656033       0.00000000 NULL      -0.08822500       0.20870000      -0.04696400
P        2.69323529       1.80477422       4.09127097       0.00000000 NULL       0.20399400      -0.05164500      -0.09625800
P        1.93810208       4.21116194       2.39981248       0.00000000 NULL      -0.04130700      -0.08625500       0.21071300
24
Lattice="8.10337723083952 0.5250662410325724 0.5004696049810925 0.9324443361263203 8.066657589286063 0.5004696049810735 0.9324443361263024 0.8866160275265726 8.033389478173541" Properties=species:S:1:pos:R:3:initial_magmoms:R:1:castep_labels:S:1:forces:R:3 n_minim_iter=8 energy=-122.078865040214 stress="-0.005194315222187431 -0.0028374753532248538 -0.002704546443613494 -0.0028374753532248538 -0.004908145850026581 -0.0025716369708948974 -0.002704546443613494 -0.0025716369708948974 -0.0046613556226051105" free_energy=-122.078865040214 pbc="T T T"
P        3.96302069       3.62913287       7.89948338       0.00000000 NULL      -0.11542500      -0.00355500       0.01544100
P        3.82408616       8.07138877       3.39220052       0.00000000 NULL      -0.00936200       0.00991100      -0.11570200
P        8.25371055       3.55191247       3.24625261       0.00000000 NULL       0.00942300      -0.11604500      -0.00429000
P        1.75666892       4.05398152       5.84746284       0.00000000 NULL       0.16506600       0.20521700      -0.54647700
P        4.13729537       5.91506204       1.26818832       0.00000000 NULL       0.21327100      -0.53843900       0.18054400
P        6.11589095       1.45054443       3.76898823       0.00000000 NULL      -0.52701600       0.19184700       0.23118200
P        9.32505765       6.15117237       7.66684542       0.00000000 NULL      -0.20728700       0.06090200       0.27931400
P        6.61293065       8.08966410       8.62557959       0.00000000 NULL       0.05038400       0.26891900      -0.22324000
P        8.41239450       8.91275974       5.77654507       0.00000000 NULL       0.27111600      -0.22121400       0.04744000
P        1.14169212       1.67388349       7.04802779       0.00000000 NULL       0.24875500      -0.10215300       0.32470600
P        1.72924971       7.09054716       0.71685351       0.00000000 NULL      -0.08950100       0.33649600       0.23772500
P        7.16862811       0.78170874       1.33407087       0.00000000 NULL       0.33156200       0.23235000      -0.11760000
P        4.04847089       7.89015863       5.60073145       0.00000000 NULL       0.10189700      -0.07010600      -0.31966900
P        8.08400917       5.76908502       3.37333163       0.00000000 NULL      -0.06489000      -0.31425100       0.12050200
P        6.16883523       3.74258811       7.61258292       0.00000000 NULL      -0.31712000       0.11801400      -0.05470700
P        6.12300177       7.80262208       2.66584199       0.00000000 NULL      -0.41884300      -0.11318100       0.10030600
P        8.10104633       2.93710993       5.58795214       0.00000000 NULL      -0.13412800       0.08040400      -0.41694600
P        3.34131072       5.96231447       7.66584792       0.00000000 NULL       0.07355300      -0.42308300      -0.11786000
P        1.74866179       5.55269324       4.21503638       0.00000000 NULL       0.12501200       0.33122200       0.11642400
P        5.63370261       4.28051123       1.26307975       0.00000000 NULL       0.33709800       0.12147800       0.10247200
P        4.55876508       1.52103554       5.34423650       0.00000000 NULL       0.13829500       0.11819700       0.32525900
P        4.41889176       2.47094403       1.62713170       0.00000000 NULL      -0.26862700       0.28579000      -0.18574200
P        2.69032192       1.83087218       4.20592456       0.00000000 NULL       0.27190300      -0.19908900      -0.27344900
P        1.96402023       4.32548120       2.39009693       0.00000000 NULL      -0.18513800      -0.25963400       0.29436700
24
Lattice="8.136110243884788 0.5624965905822783 0.5361465363652307 0.9714754665611376 8.097464277965885 0.5361465363652085 0.9714754665611167 0.92372883359471 8.062450364707729" Properties=species:S:1:pos:R:3:initial_magmoms:R:1:castep_labels:S:1:forces:R:3 n_minim_iter=9 energy=-122.170460440514 stress="-0.006771431231061942 -0.0023353594353349647 -0.002225960171260208 -0.0023353594353349647 -0.006535956103248859 -0.0021165609071854517 -0.002225960171260208 -0.0021165609071854517 -0.006332775037370887" free_energy=-122.170460440514 pbc="T T T"
P        4.02072621       3.72481836       7.96776855       0.00000000 NULL      -0.20651100      -0.19359600      -0.03626400
P        3.92255601       8.14212737       3.44168024       0.00000000 NULL      -0.20375000      -0.04563900      -0.19453400
P        8.32931785       3.60587926       3.33855443       0.00000000 NULL      -0.05584100      -0.20395500      -0.19163400
P        1.80909455       4.11337560       5.85942326       0.00000000 NULL       0.08216900       0.36556100      -0.24146100