45
Lattice="8.594040228521024 -1.0158117776353876e-12 -2.2803713583868475e-39 -4.297020114259631 7.442657159045134 1.1905735148307369e-39 3.950489438818976e-39 -1.007953273979921e-40 14.888217673271756" Properties=species:S:1:pos:R:3:initial_magmoms:R:1:castep_labels:S:1:forces:R:3 n_minim_iter=1 energy=-244.991174820625 stress="0.00020168278500117676 0.0 -0.0 0.0 0.00020168278500117676 0.0 -0.0 0.0 0.00015717941923865531" free_energy=-244.991174820625 pbc="T T T"
P       -1.69763029       6.93519280       3.83878769       0.00000000 NULL      -0.01103800       0.00174000       0.00526000
P        2.55784818       5.44525172       8.80152691       0.00000000 NULL       0.00702600       0.00868900       0.00525900
P       -0.86021788       2.50486980      13.76426613       0.00000000 NULL       0.00401200      -0.01042900       0.00526000
P        6.57087251       1.86054210       5.84957111       0.00000000 NULL       0.00813900       0.00583300       0.00088700
P        2.62286059       0.82184359      10.81231033       0.00000000 NULL       0.00098000      -0.00996500       0.00088700
P        3.69732725       4.76027147      15.77504956       0.00000000 NULL      -0.00912200       0.00413300       0.00088400
P        3.42965672       7.79612949       3.03318239       0.00000000 NULL      -0.01163300       0.01357100       0.00135800
P        0.73979772       0.57442257       7.99592162       0.00000000 NULL       0.01756900       0.00328900       0.00135800
P       -4.16945443       6.51476226      12.95866084       0.00000000 NULL      -0.00593700      -0.01686000       0.00135900
P       -1.06165032       3.86699350       2.77551658       0.00000000 NULL      -0.00798000      -0.01492100       0.00633700
P       -0.41728035       6.42857656       7.73825581       0.00000000 NULL      -0.00893100       0.01437100       0.00633700
P        1.47893067       4.58974426      12.70099503       0.00000000 NULL       0.01691300       0.00054900       0.00633800
P       -2.80182070       2.65698519      11.17177262       0.00000000 NULL      -0.00012700       0.00532300      -0.00056100
P       -0.59509309       8.54061247       1.24629417       0.00000000 NULL       0.00467100      -0.00255200      -0.00056400
P        3.39691380       3.68771666       6.20903339       0.00000000 NULL      -0.00454700      -0.00276900      -0.00056100
P        1.96158683       2.47461681       2.54391829       0.00000000 NULL      -0.01288500      -0.00307300      -0.00487000
P        5.45930772       4.50656473       7.50665751       0.00000000 NULL       0.00378000       0.01269600      -0.00486900
P        5.47016580       0.46147562      12.46939674       0.00000000 NULL       0.00910300      -0.00962200      -0.00486900
P       -1.50718961       3.98682705       6.12709585       0.00000000 NULL       0.00621900      -0.00587300       0.00547600
P       -0.09073180       6.75450813      11.08983508       0.00000000 NULL      -0.00819400      -0.00244900       0.00547700
P        1.59792142       4.14397914       1.16435663       0.00000000 NULL       0.00197800       0.00832000       0.00547400
P        4.48723688       3.48900685      -0.79078465       0.00000000 NULL      -0.00675000      -0.00526300      -0.01263900
P        5.07497025       1.81209260       4.17195458       0.00000000 NULL      -0.00118400       0.00847600      -0.01264100
P        3.32885322       2.14155770       9.13469380       0.00000000 NULL       0.00793300      -0.00321300      -0.01264100
P        0.64611928       0.94601726       1.53425610       0.00000000 NULL      -0.00750000      -0.00308400       0.00815500
P        4.79323546       6.41009282       6.49699533       0.00000000 NULL       0.00107800       0.00803800       0.00815600
P        7.45170561       0.08654708      11.45973455       0.00000000 NULL       0.00642100      -0.00495300       0.00815600
P        1.15305393       6.31649921      14.07294822       0.00000000 NULL      -0.00121300      -0.00077600      -0.00251100
P        0.59670171       3.28583356       4.14746977       0.00000000 NULL      -0.00006400       0.00143800      -0.00251200
P       -1.74975563       5.28298155       9.11020900       0.00000000 NULL       0.00127800      -0.00066300      -0.00251100
P       -3.12135589       6.85427787       9.85019748       0.00000000 NULL      -0.00040300      -0.00463700      -0.00924000
P        3.19963659       6.71869172      -0.07528097       0.00000000 NULL      -0.00381400       0.00266700      -0.00923900
P       -0.07828069       1.31234473       4.88745825       0.00000000 NULL       0.00421900       0.00196900      -0.00924000
P        2.08307857       9.45483368       2.40500611       0.00000000 NULL      -0.00198600      -0.00990300      -0.00627300
P        2.84956676       0.91124137       7.36774534       0.00000000 NULL      -0.00758300       0.00667200      -0.00627300
P       -4.93264532       4.51923927      12.33048456       0.00000000 NULL       0.00956800       0.00323200      -0.00627300
P        5.42064973      -0.39035085       9.23098023       0.00000000 NULL       0.00282200      -0.01210400      -0.00758800
P        1.24864150       2.94341222      14.19371945       0.00000000 NULL      -0.01189200       0.00360800      -0.00758600
P        6.22176913       4.88959579       4.26824100       0.00000000 NULL       0.00907100       0.00849600      -0.00758800
P       -1.12280238       9.15392922      -0.82186370       0.00000000 NULL       0.00207300       0.00042200       0.01614300
P        4.19191633       3.83806794       4.14087552       0.00000000 NULL      -0.00067200      -0.00200600       0.01614000
P       -3.06911394       1.89331716       9.10361475       0.00000000 NULL      -0.00140200       0.00158500       0.01614000
P       -2.01887745       6.85255802       1.64670421       0.00000000 NULL      -0.00113800       0.00260800       0.00006900
P        2.64690794       5.76477731       6.60944343       0.00000000 NULL       0.00282900      -0.00031800       0.00006900
P       -0.62803048       2.26797899      11.57218265       0.00000000 NULL      -0.00168800      -0.00229100       0.00006900
45
Lattice="8.592763609611776 -1.0159568471882284e-12 -2.345746572508478e-39 -4.296381804805007 7.441551574638774 1.0589687458048702e-39 3.835160004769197e-39 -4.323908012720307e-40 14.886494057067088" Properties=species:S:1:pos:R:3:initial_magmoms:R:1:castep_labels:S:1:forces:R:3 n_minim_iter=2 energy=-244.991215884034 stress="1.4287297128836502e-06 -0.0 0.0 -0.0 1.4392350784195592e-06 -0.0 0.0 -0.0 -2.7093337717109807e-05" free_energy=-244.991215884034 pbc="T T T"
P       -1.69738665       6.93416394       3.83834734       0.00000000 NULL      -0.00985900       0.00391500       0.00729000
P        2.55747365       5.44444956       8.80051202       0.00000000 NULL       0.00832000       0.00658000       0.00729000
P       -0.86008699       2.50448965      13.76267671       0.00000000 NULL       0.00153800      -0.01049600       0.00729000
P        6.56990272       1.86027024       5.84889458       0.00000000 NULL       0.00703800       0.00311500       0.00347200
P        2.62247173       0.82171380      10.81105927       0.00000000 NULL      -0.00081700      -0.00765400       0.00347200
P        3.69677097       4.75956754      15.77322396       0.00000000 NULL      -0.00621500       0.00453400       0.00347300
P        3.42913826       7.79498189       3.03283229       0.00000000 NULL      -0.01342600       0.00897200       0.00158900
P        0.73970141       0.57433979       7.99499698       0.00000000 NULL       0.01448400       0.00714000       0.00158900
P       -4.16883966       6.51378147      12.95716166       0.00000000 NULL      -0.00105600      -0.01611400       0.00158800
P       -1.06149878       3.86640753       2.77520016       0.00000000 NULL      -0.00692700      -0.01184500       0.00353200
P       -0.41722527       6.42763273       7.73736485       0.00000000 NULL      -0.00679600       0.01192300       0.00353100
P        1.47872406       4.58906290      12.69952953       0.00000000 NULL       0.01371900      -0.00007500       0.00353200
P       -2.80140459       2.65659462      11.17047882       0.00000000 NULL      -0.00208100       0.00835300       0.00056000
P       -0.59500108       8.53934181       1.24614945       0.00000000 NULL       0.00827600      -0.00237400       0.00056100
P        3.39640568       3.68716672       6.20831414       0.00000000 NULL      -0.00619200      -0.00598200       0.00056000
P        1.96128548       2.47424683       2.54362001       0.00000000 NULL      -0.01051700      -0.00338000      -0.00349000
P        5.45849968       4.50590511       7.50578470       0.00000000 NULL       0.00233500       0.01079800      -0.00349100
P        5.46936026       0.46139963      12.46794938       0.00000000 NULL       0.00818600      -0.00742100      -0.00349000
P       -1.50696091       3.98623028       6.12639075       0.00000000 NULL       0.01017600      -0.00484700       0.00695900
P       -0.09072466       6.75350287      11.08855544       0.00000000 NULL      -0.00929000      -0.00638800       0.00695800
P        1.59768558       4.14337000       1.16422607       0.00000000 NULL      -0.00089300       0.01124000       0.00695900
P        4.48656510       3.48848450      -0.79070288       0.00000000 NULL      -0.00214000      -0.00556700      -0.01192700
P        5.07421546       1.81182997       4.17146181       0.00000000 NULL      -0.00375000       0.00463800      -0.01192700
P        3.32836487       2.14123710       9.13362650       0.00000000 NULL       0.00589200       0.00092800      -0.01192700
P        0.64601750       0.94587435       1.53408479       0.00000000 NULL      -0.00893200      -0.00254500       0.00569300
P        4.79252427       6.40914684       6.49624947       0.00000000 NULL       0.00226600       0.00900900       0.00569300
P        7.45060365       0.08653039      11.45841416       0.00000000 NULL       0.00667000      -0.00646600       0.00569300
P        1.15288171       6.31556032      14.07131705       0.00000000 NULL      -0.00540200      -0.00038000      -0.00055700
P        0.59661302       3.28534657       4.14698768       0.00000000 NULL       0.00237000       0.00486800      -0.00055700
P       -1.74949472       5.28219626       9.10915236       0.00000000 NULL       0.00303000      -0.00448600      -0.00055800
P       -3.12089253       6.85325610       9.84904997       0.00000000 NULL      -0.00342000      -0.00548400      -0.00714900
P        3.19915835       6.71769574      -0.07527940       0.00000000 NULL      -0.00304200       0.00570500      -0.00714900
P       -0.07826580       1.31215131       4.88688529       0.00000000 NULL       0.00645800      -0.00021800      -0.00714900
P        2.08276760       9.45342153       2.40472283       0.00000000 NULL      -0.00376100      -0.00989000      -0.00998700
P        2.84913760       0.91111116       7.36688752       0.00000000 NULL      -0.00668400       0.00820100      -0.00998700
P       -4.93190519       4.51857045      12.32905221       0.00000000 NULL       0.01044800       0.00168700      -0.00998800
P        5.41984669      -0.39030223       9.22990568       0.00000000 NULL       0.00340400      -0.01169300      -0.00768100
P        1.24844682       2.94297778      14.19207037       0.00000000 NULL      -0.01183100       0.00289900      -0.00768100
P        6.22085192       4.88887603       4.26774100       0.00000000 NULL       0.00842400       0.00879600      -0.00768100
P       -1.12263399       9.15256976      -0.82175607       0.00000000 NULL       0.00068400      -0.00276700       0.01370100
P        4.19129311       3.83749625       4.14040862       0.00000000 NULL      -0.00273600       0.00079100       0.01370100
P       -3.06865911       1.89303714       9.10257330       0.00000000 NULL       0.00205400       0.00197400       0.01370200
P       -2.01857843       6.85154211       1.64651362       0.00000000 NULL      -0.00103700      -0.00180100      -0.00200400
P        2.64651694       5.76392073       6.60867830       0.00000000 NULL      -0.00104600       0.00180000      -0.00200400
P       -0.62793849       2.26764032      11.57084299       0.00000000 NULL       0.00207800       0.00000500      -0.00200400
45
Lattice="8.591463975541767 -1.015474679840357e-12 -2.326539846222161e-39 -4.295731987770003 7.440426058518523 1.0964607748078308e-39 3.870367799589739e-39 -3.34531204121746e-40 14.891378149809546" Properties=species:S:1:pos:R:3:initial_magmoms:R:1:castep_labels:S:1:forces:R:3 n_minim_iter=3 energy=-244.991275559231 stress="-8.559554394849139e-05 0.0 -0.0 0.0 -8.56060490471596e-05 0.0 -0.0 0.0 0.00020393548044576133" free_energy=-244.991275559231 pbc="T T T"
P       -1.69730094       6.93318132       3.83973124       0.00000000 NULL      -0.01013600       0.00662400       0.00011900
P        2.55722964       5.44374114       8.80352396       0.00000000 NULL       0.01080400       0.00546600       0.00011800
P       -0.85992868       2.50392966      13.76731667       0.00000000 NULL      -0.00066900      -0.01209000       0.00011800
P        6.56903128       1.86004451       5.85087180       0.00000000 NULL       0.00369800      -0.00071300      -0.00241800
P        2.62206215       0.82145584      10.81466452       0.00000000 NULL      -0.00246700      -0.00284600      -0.00241800
P        3.69610254       4.75892571      15.77845723       0.00000000 NULL      -0.00123200       0.00355900      -0.00241700
P        3.42838897       7.79396093       3.03385462       0.00000000 NULL      -0.01044700       0.00416000       0.00279500
P        0.73984169       0.57437365       7.99764734       0.00000000 NULL       0.00882600       0.00696800       0.00279500
P       -4.16823065       6.51251754      12.96144006       0.00000000 NULL       0.00162100      -0.01112800       0.00279500
P       -1.06145854       3.86561615       2.77617357       0.00000000 NULL      -0.00470700      -0.00744800       0.00566100
P       -0.41728093       6.42686805       7.73996629       0.00000000 NULL      -0.00409700       0.00780000       0.00566100
P        1.47873948       4.58836792      12.70375900       0.00000000 NULL       0.00880300      -0.00035200       0.00566100
P       -2.80101554       2.65633503      11.17415266       0.00000000 NULL      -0.00300300       0.00746300      -0.00160200
P       -0.59477060       8.53800916       1.24656723       0.00000000 NULL       0.00796500      -0.00113100      -0.00160200
P        3.39578615       3.68650793       6.21035994       0.00000000 NULL      -0.00496100      -0.00633200      -0.00160200
P        1.96080563       2.47381448       2.54439332       0.00000000 NULL      -0.00899100      -0.00116600      -0.00474400
P        5.45771536       4.50541134       7.50818604       0.00000000 NULL       0.00348600       0.00836900      -0.00474400
P        5.46867499       0.46120024      12.47197875       0.00000000 NULL       0.00550500      -0.00720200      -0.00474400
P       -1.50655989       3.98554297       6.12851998       0.00000000 NULL       0.00986700       0.00046900       0.00394400
P       -0.09087058       6.75237372      11.09231270       0.00000000 NULL      -0.00452800      -0.00878000       0.00394400
P        1.59743048       4.14293543       1.16472726       0.00000000 NULL      -0.00533900       0.00831100       0.00394500
P        4.48584646       3.48786096      -0.79116883       0.00000000 NULL      -0.00069500      -0.00188200      -0.01003100
P        5.07338496       1.81163859       4.17262388       0.00000000 NULL      -0.00128200       0.00154300      -0.01003000
P        3.32796456       2.14092651       9.13641660       0.00000000 NULL       0.00197800       0.00033900      -0.01003000
P        0.64576649       0.94568700       1.53468811       0.00000000 NULL      -0.01063500      -0.00178000       0.00721200
P        4.79183772       6.40833237       6.49848083       0.00000000 NULL       0.00377600       0.01010000       0.00721200
P        7.44959177       0.08640668      11.46227354       0.00000000 NULL       0.00685900      -0.00832000       0.00721200
P        1.15261688       6.31459826      14.07592275       0.00000000 NULL      -0.00693600       0.00012200      -0.00404200
P        0.59656209       3.28493143       4.14833732       0.00000000 NULL       0.00357400       0.00594500      -0.00404200
P       -1.74917896       5.28132243       9.11213004       0.00000000 NULL       0.00336200      -0.00606800      -0.00404200
P       -3.12047753       6.85212542       9.85215642       0.00000000 NULL      -0.00481000      -0.00409300      -0.00950500
P        3.19862146       6.71677616      -0.07542901       0.00000000 NULL      -0.00113900       0.00621100      -0.00950600
P       -0.07814393       1.31195054       4.88836371       0.00000000 NULL       0.00594800      -0.00211900      -0.00950500
P        2.08238882       9.45182094       2.40534174       0.00000000 NULL      -0.00814500      -0.00817500      -0.00495400
P        2.84859065       0.91111397       7.36913445       0.00000000 NULL      -0.00300800       0.01114200      -0.00495400
P       -4.93097946       4.51791721      12.33292717       0.00000000 NULL       0.01115300      -0.00296600      -0.00495400
P        5.41908535      -0.39044539       9.23280127       0.00000000 NULL      -0.00041700      -0.00971300      -0.00234800
P        1.24805369       2.94258318      14.19659399       0.00000000 NULL      -0.00820300       0.00521700      -0.00234900
P        6.22005693       4.88828827       4.26900856       0.00000000 NULL       0.00862000       0.00449500      -0.00234800
P       -1.12245147       9.15113983      -0.82178733       0.00000000 NULL      -0.00130800      -0.00659200       0.01547300
P        4.19061332       3.83692763       4.14200538       0.00000000 NULL      -0.00505500       0.00442900       0.01547500
P       -3.06816184       1.89278466       9.10579810       0.00000000 NULL       0.00636300       0.00216300       0.01547500
P       -2.01829108       6.85047765       1.64702059       0.00000000 NULL       0.00013000      -0.00450700       0.00444100
P        2.64610123       5.76307859       6.61081330       0.00000000 NULL      -0.00396800       0.00214000       0.00444000
P       -0.62781014       2.26729588      11.57460602       0.00000000 NULL       0.00383700       0.00236600       0.00444000
45
Lattice="8.592592316684039 -1.0153442455116156e-12 -2.317903390761939e-39 -4.296296158341138 7.441403230611864 1.1313075065842716e-39 3.8845297322725964e-39 -2.9058143861220468e-40 14.887012447161155" Properties=species:S:1:pos:R:3:initial_magmoms:R:1:castep_labels:S:1:forces:R:3 n_minim_iter=4 energy=-244.991516795442 stress="6.2087035895282705e-06 0.0 -0.0 0.0 6.219209010153529e-06 0.0 -0.0 0.0 1.7859215062940877e-06" free_energy=-244.991516795442 pbc="T T T"
P       -1.69830111       6.93441625       3.83911014       0.00000000 NULL      -0.00783300       0.00844000      -0.00090200
P        2.55823504       5.44496701       8.80144762       0.00000000 NULL       0.01122600       0.00256300      -0.00090200
P       -0.85993392       2.50342320      13.76378510       0.00000000 NULL      -0.00339300      -0.01100300      -0.00090200
P        6.57041917       1.86050680       5.84937169       0.00000000 NULL       0.00110200      -0.00325600      -0.00770300
P        2.62233273       0.82099992      10.81170918       0.00000000 NULL      -0.00337400       0.00067400      -0.00770400
P        3.69613659       4.75989651      15.77404666       0.00000000 NULL       0.00226700       0.00258500      -0.00770000
P        3.42781780       7.79565730       3.03309936       0.00000000 NULL      -0.00317200      -0.00724300       0.00229400
P        0.74103221       0.57499729       7.99543684       0.00000000 NULL      -0.00468700       0.00636800       0.00229300
P       -4.16885000       6.51215187      12.95777432       0.00000000 NULL       0.00785800       0.00087600       0.00229400
P       -1.06212393       3.86522631       2.77566140       0.00000000 NULL       0.00018800      -0.00238900      -0.00445000
P       -0.41785001       6.42861638       7.73799888       0.00000000 NULL      -0.00216200       0.00103100      -0.00445000
P        1.47997395       4.58896377      12.70033636       0.00000000 NULL       0.00197700       0.00135600      -0.00445100
P       -2.80154952       2.65732292      11.17089936       0.00000000 NULL       0.00428900       0.00198200       0.00665200
P       -0.59421224       8.53895483       1.24622439       0.00000000 NULL      -0.00042900      -0.00470700       0.00665500
P        3.39576177       3.68652871       6.20856188       0.00000000 NULL      -0.00386200       0.00272600       0.00665300
P        1.96024673       2.47389448       2.54335991       0.00000000 NULL      -0.00473100       0.00276100      -0.00352800
P        5.45862826       4.50683253       7.50569739       0.00000000 NULL       0.00475300       0.00271700      -0.00352800
P        5.47001349       0.46067622      12.46803487       0.00000000 NULL      -0.00002600      -0.00547600      -0.00352900
P       -1.50597320       3.98572968       6.12723883       0.00000000 NULL       0.00185300       0.00640000      -0.00133800
P       -0.09156640       6.75274945      11.08957631       0.00000000 NULL       0.00461900      -0.00480400      -0.00133600
P        1.59753961       4.14432734       1.16490135       0.00000000 NULL      -0.00646700      -0.00159800      -0.00133400
P        4.48626892       3.48791537      -0.79185651       0.00000000 NULL      -0.00184200      -0.00077200       0.00529100
P        5.07378502       1.81222269       4.17048097       0.00000000 NULL       0.00025200       0.00198100       0.00529300
P        3.32883454       2.14126517       9.13281845       0.00000000 NULL       0.00159000      -0.00120900       0.00529300
P        0.64514074       0.94561723       1.53470311       0.00000000 NULL      -0.00287500      -0.00412900      -0.00216900
P        4.79265434       6.40988635       6.49704059       0.00000000 NULL      -0.00214100       0.00455400      -0.00216900
P        7.45109341       0.08589965      11.45937807       0.00000000 NULL       0.00501400      -0.00042400      -0.00216900
P        1.15234255       6.31540108      14.07171785       0.00000000 NULL       0.00080100       0.00013100      -0.00258300
P        0.59683034       3.28574477       4.14704288       0.00000000 NULL      -0.00028600      -0.00076000      -0.00258300
P       -1.74917289       5.28166061       9.10938036       0.00000000 NULL      -0.00051400       0.00062800      -0.00258200
P       -3.12115953       6.85260983       9.84868287       0.00000000 NULL       0.00300700      -0.00204300       0.00090400
P        3.19881781       6.71810176      -0.07599209       0.00000000 NULL      -0.00327100      -0.00158200       0.00090300
P       -0.07765827       1.31209487       4.88634539       0.00000000 NULL       0.00026800       0.00362400       0.00090400
P        2.08233468       9.45230245       2.40390659       0.00000000 NULL      -0.00938000       0.00563100      -0.00669300
P        2.84847056       0.91189727       7.36624407       0.00000000 NULL       0.00956600       0.00530800      -0.00669300
P       -4.93080523       4.51860673      12.32858155       0.00000000 NULL      -0.00018900      -0.01093800      -0.00669300
P        5.42002956      -0.39139643       9.22953878       0.00000000 NULL      -0.00833600       0.00254800       0.00886400
P        1.24732213       2.94321816      14.19187626       0.00000000 NULL       0.00637600       0.00594400       0.00886100
P        6.22153679       4.88958150       4.26720130       0.00000000 NULL       0.00196100      -0.00849400       0.00886400
P       -1.12255898       9.15210024      -0.82045218       0.00000000 NULL      -0.00489800      -0.00116300       0.00083400
P        4.19093465       3.83751771       4.14188530       0.00000000 NULL       0.00144000       0.00482200       0.00083800
P       -3.06837566       1.89318851       9.10422279       0.00000000 NULL       0.00345600      -0.00365900       0.00083700
P       -2.01862755       6.85122393       1.64644101       0.00000000 NULL      -0.00135300       0.00517700       0.00451900
P        2.64635159       5.76397401       6.60877849       0.00000000 NULL       0.00516300      -0.00141700       0.00451900
P       -0.62772403       2.26760853      11.57111598       0.00000000 NULL      -0.00380600      -0.00376200       0.00451900
45
Lattice="8.591832993307742 -1.0165897043848774e-12 -2.3185514238028726e-39 -4.295916496652989 7.440745637278306 1.1307991162882542e-39 3.883376530433039e-39 -2.9480769689241648e-40 14.888171810998061" Properties=species:S:1:pos:R:3:initial_magmoms:R:1:castep_labels:S:1:forces:R:3 n_minim_iter=5 energy=-244.991702349753 stress="4.622841383756677e-06 2.101291538071217e-08 0.0 2.101291538071217e-08 4.654360756827745e-06 0.0 0.0 0.0 2.4585110995433238e-06" free_energy=-244.991702349753 pbc="T T T"
P       -1.69977534       6.93517096       3.83968309       0.00000000 NULL      -0.00896800      -0.00076100       0.00469100
P        2.56000542       5.44520879       8.80240703       0.00000000 NULL       0.00382500       0.00814800       0.00469200
P       -0.86023006       2.50111152      13.76513097       0.00000000 NULL       0.00514400      -0.00738600       0.00469200
P        6.57038306       1.86007193       5.84898483       0.00000000 NULL      -0.00030700       0.00560800      -0.00057200
P        2.62159452       0.82059103      10.81170876       0.00000000 NULL       0.00500700      -0.00254100      -0.00057300
P        3.69577192       4.76008268      15.77443270       0.00000000 NULL      -0.00470300      -0.00307000      -0.00057400
P        3.42630847       7.79451571       3.03374152       0.00000000 NULL      -0.00017400      -0.00153200      -0.00284400
P        0.74117789       0.57621761       7.99646546       0.00000000 NULL      -0.00124200       0.00091300      -0.00284500
P       -4.16748635       6.51075796      12.95918940       0.00000000 NULL       0.00141500       0.00061500      -0.00284200
P       -1.06240538       3.86389145       2.77551398       0.00000000 NULL      -0.00088700       0.00987500      -0.00219500
P       -0.41848565       6.42886996       7.73823791       0.00000000 NULL       0.00899700      -0.00416800      -0.00219500
P        1.48089104       4.58872986      12.70096185       0.00000000 NULL      -0.00810900      -0.00570600      -0.00219500
P       -2.80087015       2.65784848      11.17266682       0.00000000 NULL      -0.00056300      -0.00450600       0.00024400
P       -0.59371711       8.53744610       1.24721894       0.00000000 NULL      -0.00362300       0.00273700       0.00024400
P        3.39458727       3.68619669       6.20994288       0.00000000 NULL       0.00418300       0.00176500       0.00024500
P        1.95883166       2.47385083       2.54287667       0.00000000 NULL       0.00189300       0.00055600      -0.00004000
P        5.45891833       4.50742224       7.50560061       0.00000000 NULL      -0.00046400      -0.00191700      -0.00003900
P        5.46999950       0.45947256      12.46832454       0.00000000 NULL      -0.00143200       0.00135700      -0.00004100
P       -1.50498247       3.98596591       6.12793974       0.00000000 NULL       0.00207300      -0.00374000      -0.00324100
P       -0.09147752       6.75111574      11.09066367       0.00000000 NULL      -0.00427100       0.00007800      -0.00323900
P        1.59646000       4.14440963       1.16521580       0.00000000 NULL       0.00220200       0.00366500      -0.00324300
P        4.48551624       3.48719515      -0.79192376       0.00000000 NULL       0.00049700      -0.00241500       0.00291200
P        5.07315796       1.81257705       4.17080018       0.00000000 NULL      -0.00234100       0.00077700       0.00291100
P        3.32907529       2.14097344       9.13352412       0.00000000 NULL       0.00184300       0.00163800       0.00291100
P        0.64415568       0.94484251       1.53488589       0.00000000 NULL      -0.00675300      -0.00072400      -0.00268100
P        4.79209628       6.41046920       6.49760982       0.00000000 NULL       0.00275000       0.00621200      -0.00267900
P        7.45149754       0.08543393      11.46033376       0.00000000 NULL       0.00400200      -0.00548600      -0.00268100
P        1.15200685       6.31484124      14.07241913       0.00000000 NULL       0.00158300      -0.00113600      -0.00649100
P        0.59689302       3.28565782       4.14697126       0.00000000 NULL      -0.00177600      -0.00080100      -0.00649000
P       -1.74889986       5.28099221       9.10969520       0.00000000 NULL       0.00019400       0.00193900      -0.00649000
P       -3.12070580       6.85141398       9.84912641       0.00000000 NULL      -0.00107900       0.00453400      -0.00439900
P        3.19793497       6.71764915      -0.07632146       0.00000000 NULL       0.00446400      -0.00132700      -0.00439800
P       -0.07722916       1.31242814       4.88640248       0.00000000 NULL      -0.00338100      -0.00320200      -0.00439900
P        2.08065808       9.45162651       2.40264075       0.00000000 NULL      -0.00060200      -0.00238200       0.00739700
P        2.84910313       0.91302963       7.36536469       0.00000000 NULL      -0.00176300       0.00170900       0.00739800
P       -4.92976121       4.51683514      12.32808863       0.00000000 NULL       0.00236300       0.00067000       0.00739700
P        5.41863226      -0.39171466       9.23099937       0.00000000 NULL       0.00239100      -0.00172600       0.00002600