16
Lattice="5.643119448682685 2.031605166423449 0.5309499734469608 1.6752926185253694 7.286585562549839 1.4318952326715189 -1.6797924629284129 0.3046290208768563 8.503970298265928" Properties=species:S:1:pos:R:3:initial_magmoms:R:1:castep_labels:S:1:forces:R:3 n_minim_iter=1 energy=-85.789858079494 stress="0.000123034742299139 5.8628131834344726e-05 0.0001423067494071788 5.8628131834344726e-05 -8.327256231772138e-05 -2.1489693501347454e-05 0.0001423067494071788 -2.1489693501347454e-05 0.00011884924966951609" free_energy=-85.789858079494 pbc="T T T"
P       -0.41774125       4.56714358       6.54346274       0.00000000 NULL      -0.00421500       0.02123700       0.00255700
P       -0.73282798       2.52882504       5.58431811       0.00000000 NULL      -0.00250500       0.00589700      -0.00555400
P        1.81393157       4.31243182       6.25147980       0.00000000 NULL       0.00330800       0.00732100      -0.03140900
P        0.20428141       1.14247193       2.12253905       0.00000000 NULL       0.00199500       0.01510000       0.00456900
P        3.04370536       2.37631992       3.97295841       0.00000000 NULL       0.00895200       0.00436600       0.02771100
P        4.66862505       3.71894099       8.21221745       0.00000000 NULL      -0.01625900       0.01811700      -0.00669000
P        2.60512531       7.23588230       5.29418765       0.00000000 NULL       0.00929700      -0.00447300      -0.00798600
P        1.95928947       6.01962342       8.85625596       0.00000000 NULL       0.03532600       0.00004000       0.01655500
P        1.55876631       2.20931334       5.64299694       0.00000000 NULL       0.00160400      -0.01855100       0.00332800
P        2.94083163       4.34096596       2.96175220       0.00000000 NULL      -0.00319000      -0.00815000      -0.00779300
P        5.31593056       5.66004301       9.12309938       0.00000000 NULL      -0.01366400      -0.00399400      -0.00537200
P        2.46960647       3.90253809       8.47691576       0.00000000 NULL      -0.00423300      -0.00538000       0.02631400
P        4.08189432       8.19663433       3.89039435       0.00000000 NULL       0.00083700      -0.01561900      -0.01122300
P        5.03464250       5.11261325       3.40338790       0.00000000 NULL       0.00405200      -0.01824500       0.00352600
P        1.62667026       5.48510683       4.30630337       0.00000000 NULL       0.00792900      -0.00614200      -0.00018600
P        5.29738738       6.39616768       1.55714541       0.00000000 NULL      -0.02923400       0.00847800      -0.00834700
16
Lattice="5.640714318332084 2.031198571189084 0.5287246878159126 1.6730274335980808 7.2880455703291345 1.4312137857906557 -1.6825559828147514 0.3054590822171906 8.50190044624702" Properties=species:S:1:pos:R:3:initial_magmoms:R:1:castep_labels:S:1:forces:R:3 n_minim_iter=2 energy=-85.789932421226 stress="-0.0001889280097934631 -4.993499167217235e-05 -5.5997187156779e-05 -4.993499167217235e-05 -2.6529917352737372e-05 2.962351195570675e-05 -5.5997187156779e-05 2.962351195570675e-05 -0.00013443074729266923" free_energy=-85.789932421226 pbc="T T T"
P       -0.42088202       4.56879972       6.54180700       0.00000000 NULL      -0.00447100       0.01783200      -0.00224700
P       -0.73515664       2.52988618       5.58290493       0.00000000 NULL      -0.00847000       0.00676700      -0.01032000
P        1.81026453       4.31354174       6.24875678       0.00000000 NULL       0.00491700       0.00346200      -0.02937000
P        0.20323171       1.14294823       2.12188301       0.00000000 NULL      -0.00707700       0.01909200      -0.00051400
P        3.04086102       2.37664071       3.97088146       0.00000000 NULL       0.01115600       0.00947400       0.02978500
P        4.66318159       3.71966956       8.20793927       0.00000000 NULL      -0.01119200       0.01622800      -0.00331900
P        2.60115017       7.23737024       5.29183584       0.00000000 NULL       0.01097300      -0.00632000       0.00040700
P        1.95457067       6.02118509       8.85314402       0.00000000 NULL       0.01764400      -0.00869400       0.00314800
P        1.55573773       2.20973551       5.64073899       0.00000000 NULL       0.00434800      -0.01426800       0.00638700
P        2.93799666       4.34158127       2.95985431       0.00000000 NULL      -0.01105300      -0.01017700      -0.00814800
P        5.30963487       5.66097247       9.11840315       0.00000000 NULL      -0.01160900      -0.00121900       0.00141300
P        2.46486546       3.90347371       8.47368871       0.00000000 NULL      -0.00836900      -0.00180900       0.02801200
P        4.07774422       8.19792858       3.88795388       0.00000000 NULL       0.00614200      -0.01523700      -0.01282000
P        5.03087928       5.11301059       3.40068236       0.00000000 NULL       0.00977200      -0.01809000       0.00592200
P        1.62366739       5.48628379       4.30460998       0.00000000 NULL       0.00761600      -0.00908700      -0.00776200
P        5.29376260       6.39693123       1.55490681       0.00000000 NULL      -0.01032700       0.01204600      -0.00057400
16
Lattice="5.642459675584486 2.031917463852545 0.5275250525902287 1.6733478135347029 7.290451860919882 1.4307390337492623 -1.6848831905740778 0.30516469796436796 8.503437840088358" Properties=species:S:1:pos:R:3:initial_magmoms:R:1:castep_labels:S:1:forces:R:3 n_minim_iter=3 energy=-85.790012160448 stress="0.00022449592955988467 -5.2548908129247e-05 -0.0001827815259587712 -5.2548908129247e-05 0.00041305377637659445 3.353388433203284e-05 -0.0001827815259587712 3.353388433203284e-05 0.00020866568807353396" free_energy=-85.790012160448 pbc="T T T"
P       -0.42243159       4.57043383       6.54261101       0.00000000 NULL       0.00273600       0.00518000      -0.00350100
P       -0.73665808       2.53061024       5.58356666       0.00000000 NULL      -0.00555500       0.01035900      -0.00437800
P        1.80967379       4.31483848       6.24845046       0.00000000 NULL      -0.00320900      -0.00160000      -0.02308600
P        0.20280300       1.14359201       2.12212390       0.00000000 NULL      -0.00099900       0.01635700       0.00302100
P        3.04124832       2.37744126       3.97128239       0.00000000 NULL       0.00622100       0.00664000       0.02041200
P        4.66274318       3.72095037       8.20785386       0.00000000 NULL      -0.01607300       0.02186700      -0.00457600
P        2.60116990       7.23948506       5.29164491       0.00000000 NULL       0.01215000      -0.00259400      -0.00831200
P        1.95393054       6.02273883       8.85389719       0.00000000 NULL       0.01337200      -0.01433400      -0.00103800
P        1.55514740       2.20991502       5.64121068       0.00000000 NULL       0.00272200      -0.00367700       0.00329400
P        2.93822400       4.34275255       2.95929913       0.00000000 NULL      -0.00821600      -0.01176700      -0.00054400
P        5.30925491       5.66247615       9.11828888       0.00000000 NULL      -0.01513400       0.00430200       0.00066400
P        2.46379811       3.90436582       8.47474451       0.00000000 NULL      -0.00433300       0.00307200       0.02374900
P        4.07841817       8.20024352       3.88703436       0.00000000 NULL      -0.00186000      -0.01017500      -0.00168800
P        5.03200284       5.11426314       3.39997613       0.00000000 NULL       0.00607400      -0.01700700       0.00231800
P        1.62350776       5.48779689       4.30454173       0.00000000 NULL       0.01234400      -0.00913800      -0.00937600
P        5.29484518       6.39928244       1.55364806       0.00000000 NULL      -0.00023900       0.00251400       0.00304300
16
Lattice="5.643428767503906 2.0319434095141378 0.5274455381053852 1.6749149343889425 7.287357678764848 1.4291219655672154 -1.6843346324020327 0.30311518932335546 8.501125107580286" Properties=species:S:1:pos:R:3:initial_magmoms:R:1:castep_labels:S:1:forces:R:3 n_minim_iter=4 energy=-85.790183905475 stress="8.413298192050031e-05 7.422947086636047e-05 -0.00011225020573351564 7.422947086636047e-05 -0.00011050068958515024 -0.00013780563804356737 -0.00011225020573351564 -0.00013780563804356737 -1.84636436372134e-05" free_energy=-85.790183905475 pbc="T T T"
P       -0.42131921       4.56802822       6.54003689       0.00000000 NULL       0.00783400       0.00785100      -0.00413400
P       -0.73614694       2.52869532       5.58124364       0.00000000 NULL      -0.00420200       0.00919100      -0.00567200
P        1.81125996       4.31232819       6.24471834       0.00000000 NULL      -0.01027800      -0.00026500      -0.00109100
P        0.20304982       1.14361565       2.12149072       0.00000000 NULL       0.01019800      -0.00390100      -0.00237800
P        3.04277272       2.37656989       3.97148191       0.00000000 NULL       0.00574100      -0.01177900       0.00316600
P        4.66380135       3.71953293       8.20521467       0.00000000 NULL      -0.01562600       0.00592500      -0.00693800
P        2.60366510       7.23558205       5.28893476       0.00000000 NULL       0.01184500       0.00043000      -0.00751900
P        1.95708180       6.01848925       8.85106587       0.00000000 NULL      -0.00842100      -0.00250600      -0.00940800
P        1.55629281       2.20744693       5.63974560       0.00000000 NULL      -0.00251900      -0.00527300       0.00330200
P        2.93912294       4.34035221       2.95761539       0.00000000 NULL       0.00161900      -0.01469100      -0.00282300
P        5.31083856       5.65918561       9.11528566       0.00000000 NULL      -0.00546900       0.01416700       0.00039000
P        2.46507972       3.90139684       8.47344390       0.00000000 NULL      -0.00104800      -0.01018100       0.01296700
P        4.08072826       8.19597050       3.88428568       0.00000000 NULL       0.00069500      -0.00109900       0.00879300
P        5.03404116       5.11139407       3.39877183       0.00000000 NULL      -0.00569800       0.00475500       0.00466000
P        1.62541358       5.48450481       4.30227673       0.00000000 NULL       0.00359700      -0.00120500      -0.01024000
P        5.29583272       6.39765426       1.55230891       0.00000000 NULL       0.01173400       0.00858100       0.01692600
16
Lattice="5.64251525130453 2.031712450944774 0.5297501411232172 1.674186005035194 7.2887509768228975 1.4317012059851273 -1.6815250954054812 0.3057877162426967 8.500707675019218" Properties=species:S:1:pos:R:3:initial_magmoms:R:1:castep_labels:S:1:forces:R:3 n_minim_iter=5 energy=-85.790233435238 stress="4.3736983175227434e-07 6.926063692819944e-05 4.8110681492750183e-05 6.926063692819944e-05 6.45745315879965e-05 7.057274642345626e-05 4.8110681492750183e-05 7.057274642345626e-05 -4.042546873481736e-05" free_energy=-85.790233435238 pbc="T T T"
P       -0.41982175       4.57100184       6.54116837       0.00000000 NULL       0.00746600       0.00230400      -0.00717200
P       -0.73477156       2.53096260       5.58158452       0.00000000 NULL      -0.00187700       0.01545000      -0.00432800
P        1.81232987       4.31463657       6.24606282       0.00000000 NULL      -0.00821200      -0.00686800       0.00123400
P        0.20356081       1.14460603       2.12188896       0.00000000 NULL       0.01136600      -0.00302400      -0.00036000
P        3.04343404       2.37771760       3.97352699       0.00000000 NULL       0.00409700      -0.01950300      -0.00786700
P        4.66484211       3.72219053       8.20758519       0.00000000 NULL      -0.01262100       0.00639900      -0.00190700
P        2.60423938       7.23787067       5.29167264       0.00000000 NULL       0.00620400      -0.00440300      -0.00485000
P        1.95902650       6.02162491       8.85341760       0.00000000 NULL      -0.00847500      -0.00524100      -0.00807700
P        1.55754191       2.20896087       5.64095288       0.00000000 NULL      -0.00569900       0.00121000       0.00945100
P        2.93894905       4.34127472       2.95962610       0.00000000 NULL       0.00295800      -0.01232800      -0.00157400
P        5.31190979       5.66211804       9.11851524       0.00000000 NULL      -0.00616100       0.01156800      -0.00233600
P        2.46672188       3.90401552       8.47581414       0.00000000 NULL      -0.00518700      -0.00530400       0.01246400
P        4.08033779       8.19767899       3.88777456       0.00000000 NULL       0.00796500       0.00796400       0.01200700
P        5.03376741       5.11233070       3.40186926       0.00000000 NULL      -0.00773700       0.00275700       0.00283100
P        1.62595450       5.48629238       4.30417575       0.00000000 NULL       0.00477400       0.00265600      -0.01060800
P        5.29459131       6.39868153       1.55583520       0.00000000 NULL       0.01114000       0.00636500       0.01109300
16
Lattice="5.641193428665771 2.028895141408999 0.5301337635896012 1.670888869559034 7.286998937035172 1.4316482497670624 -1.6809278723645338 0.30588250517642324 8.50270728501726" Properties=species:S:1:pos:R:3:initial_magmoms:R:1:castep_labels:S:1:forces:R:3 n_minim_iter=6 energy=-85.790279349592 stress="-4.8358248935769974e-05 -0.0001258001734265799 4.182926054586305e-05 -0.0001258001734265799 -3.276989866513094e-05 -2.3960450215591453e-05 4.182926054586305e-05 -2.3960450215591453e-05 0.00013738990879813716" free_energy=-85.790279349592 pbc="T T T"
P       -0.42124876       4.57047482       6.54230198       0.00000000 NULL       0.00924300       0.00234400      -0.00353900
P       -0.73559480       2.53096912       5.58253913       0.00000000 NULL      -0.00507600       0.00865500      -0.00255800
P        1.81053776       4.31278553       6.24706509       0.00000000 NULL      -0.00102900       0.00120400       0.00651300
P        0.20338526       1.14437963       2.12235345       0.00000000 NULL       0.01137500      -0.00434300       0.00308000
P        3.04264360       2.37548834       3.97484936       0.00000000 NULL       0.00485000      -0.01199600      -0.00691800
P        4.66289302       3.71942222       8.20956765       0.00000000 NULL      -0.01244000       0.00354400      -0.00494500
P        2.60148860       7.23529218       5.29248350       0.00000000 NULL       0.00320700      -0.00084000      -0.00615800
P        1.95691737       6.01917137       8.85524862       0.00000000 NULL      -0.00704100      -0.00607700      -0.00663100
P        1.55676552       2.20736609       5.64255650       0.00000000 NULL      -0.00906100      -0.00120600       0.00636400
P        2.93692735       4.33877989       2.96012337       0.00000000 NULL       0.00148500      -0.01534600       0.00249000
P        5.30928783       5.65863637       9.12072872       0.00000000 NULL      -0.00502900       0.01912300      -0.00365700
P        2.46520178       3.90162367       8.47848575       0.00000000 NULL      -0.01236700      -0.00728300       0.00526600
P        4.07678533       8.19447130       3.88854510       0.00000000 NULL       0.00862000       0.00776500       0.00878900
P        5.03125748       5.10903054       3.40284833       0.00000000 NULL      -0.00406500       0.00548900      -0.00029200
P        1.62388398       5.48449504       4.30466356       0.00000000 NULL       0.00271500      -0.00711800      -0.00962400
P        5.29146390       6.39569655       1.55639157       0.00000000 NULL       0.01461300       0.00608400       0.01182000
16
Lattice="5.643654155358884 2.028367822149505 0.528518188220218 1.6705666641689645 7.287177130811137 1.4305614615028712 -1.6838014349832742 0.3064733338795381 8.49702421588877" Properties=species:S:1:pos:R:3:initial_magmoms:R:1:castep_labels:S:1:forces:R:3 n_minim_iter=7 energy=-85.790472536586 stress="0.00019971617841139087 -9.564005352272644e-05 -1.0935648066956633e-06 -9.564005352272644e-05 -5.9614904319295014e-05 5.805266888115835e-05 -1.0935648066956633e-06 5.805266888115835e-05 -0.00014263209550187723" free_energy=-85.790472536586 pbc="T T T"
P       -0.42257277       4.57248477       6.53712421       0.00000000 NULL       0.00846000       0.00689100      -0.01083800
P       -0.73838996       2.53346888       5.57780394       0.00000000 NULL      -0.00417700       0.00040500      -0.00268700
P        1.80877730       4.31287686       6.24104464       0.00000000 NULL      -0.00031800      -0.00034400       0.02110700
P        0.20421696       1.14497766       2.12095866       0.00000000 NULL       0.00841700       0.00115000      -0.00307900
P        3.04417329       2.37369574       3.97226010       0.00000000 NULL       0.00426700      -0.00246000       0.01411700
P        4.66025716       3.72117336       8.20194264       0.00000000 NULL      -0.00984600       0.00063200       0.00618700
P        2.60224401       7.23493674       5.28739900       0.00000000 NULL      -0.00230800      -0.00609100       0.00901200
P        1.95528888       6.01854355       8.84799180       0.00000000 NULL       0.00632800       0.00849900       0.00884200
P        1.55530747       2.20659338       5.63952004       0.00000000 NULL      -0.01274900       0.00366000      -0.00408800
P        2.93705251       4.33627964       2.95702972       0.00000000 NULL       0.01315000      -0.00874100      -0.00137400
P        5.30764485       5.66064759       9.11285976       0.00000000 NULL      -0.00088500       0.00935100       0.00380700
P        2.46271761       3.90078169       8.47496771       0.00000000 NULL      -0.00423300      -0.00458300      -0.00684900
P        4.07808804       8.19451402       3.88599287       0.00000000 NULL       0.00463000       0.00114200      -0.00780800
P        5.03195922       5.10838523       3.40004076       0.00000000 NULL      -0.00491300      -0.00026000      -0.00044100
P        1.62407619       5.48409176       4.29970282       0.00000000 NULL       0.00278000      -0.00769900      -0.01451100
P        5.29390478       6.39693191       1.55594737       0.00000000 NULL      -0.00860300      -0.00155300      -0.01139600
16
Lattice="5.642413723621438 2.029510538274344 0.5281991215122529 1.6712591291283747 7.288254283333908 1.4299880204260962 -1.6835826541035368 0.30537287857621187 8.49837937672892" Properties=species:S:1:pos:R:3:initial_magmoms:R:1:castep_labels:S:1:forces:R:3 n_minim_iter=8 energy=-85.790508090695 stress="-3.336900978421226e-05 2.3527026561340665e-05 3.905548897964918e-06 2.3527026561340665e-05 4.414832474259543e-05 -2.5589156379466137e-05 3.905548897964918e-06 -2.5589156379466137e-05 1.89028566661502e-05" free_energy=-85.790508090695 pbc="T T T"
P       -0.42170740       4.57265354       6.53748640       0.00000000 NULL       0.00114100       0.00529700      -0.00684300
P       -0.73813865       2.53348604       5.57824189       0.00000000 NULL      -0.00689600      -0.00033800       0.00065500
P        1.80864170       4.31306953       6.24140993       0.00000000 NULL       0.00473800       0.00053000       0.01921200
P        0.20457266       1.14503678       2.12116961       0.00000000 NULL       0.00646100      -0.00033100      -0.00377000
P        3.04383277       2.37377417       3.97277393       0.00000000 NULL       0.00304300       0.00047400       0.01245900
P        4.65876782       3.72191422       8.20257458       0.00000000 NULL      -0.00012500       0.00364600       0.00337600
P        2.60279761       7.23562412       5.28727269       0.00000000 NULL      -0.00293100      -0.00668100       0.00584800
P        1.95549589       6.01860852       8.84861454       0.00000000 NULL       0.00394900       0.01139600       0.00930900
P        1.55484984       2.20641597       5.64033076       0.00000000 NULL      -0.00843100       0.00497800      -0.00536600
P        2.93690550       4.33652425       2.95685504       0.00000000 NULL       0.01277500      -0.01218100       0.00055200
P        5.30651946       5.66174869       9.11348689       0.00000000 NULL       0.00382900       0.00394100      -0.00219100
P        2.46212862       3.90060550       8.47630633       0.00000000 NULL      -0.00642600      -0.00252100      -0.00893100
P        4.07840984       8.19586359       3.88573102       0.00000000 NULL       0.00772600       0.00038500      -0.00623400
P        5.03118755       5.10945526       3.39998273       0.00000000 NULL      -0.00218800       0.00169200      -0.00220700
P        1.62458323       5.48447348       4.29935777       0.00000000 NULL       0.00013800      -0.00632400      -0.00799500
P        5.29356008       6.39874283       1.55558741       0.00000000 NULL      -0.01680400      -0.00396300      -0.00787400
16
Lattice="5.643597402045827 2.0281143522343967 0.5282159257625746 1.6710369933630531 7.2841561859197315 1.4326490906191223 -1.685236880188834 0.30840139558891083 8.50009610070279" Properties=species:S:1:pos:R:3:initial_magmoms:R:1:castep_labels:S:1:forces:R:3 n_minim_iter=9 energy=-85.790624492433 stress="-1.5031810642241141e-05 4.9845609094333924e-05 -0.00010616020946297954 4.9845609094333924e-05 -0.00016575618221714554 0.00016141227020202806 -0.00010616020946297954 0.00016141227020202806 0.0001733189642866307" free_energy=-85.790624492433 pbc="T T T"
P       -0.42218737       4.57367607       6.53901779       0.00000000 NULL      -0.00303100       0.01336700      -0.00460200
P       -0.74042225       2.53523041       5.57954771       0.00000000 NULL      -0.00512000      -0.00403600       0.00830000
P        1.80787520       4.31250224       6.24494074       0.00000000 NULL       0.00492700       0.00158300       0.00496400
P        0.20575683       1.14534866       2.12159333       0.00000000 NULL       0.00877300       0.00093500      -0.00013800
P        3.04492704       2.37250628       3.97560746       0.00000000 NULL       0.00204800      -0.01664900       0.01687700
P        4.65674420       3.72367716       8.20448750       0.00000000 NULL       0.00445800      -0.00372300       0.00723800
P        2.60288338       7.23189937       5.29044933       0.00000000 NULL      -0.00228000      -0.00583500      -0.00564100
P        1.95480086       6.01844448       8.85239598       0.00000000 NULL      -0.00867400       0.01124700       0.00260900
P        1.55295701       2.20694367       5.64208708       0.00000000 NULL      -0.00894000      -0.00102600      -0.00752000
P        2.93813692       4.33207744       2.95822601       0.00000000 NULL       0.00564900       0.00685000       0.00429600
P        5.30557349       5.66297521       9.11595957       0.00000000 NULL      -0.00418100       0.00079600      -0.00285900
P        2.45989597       3.90017914       8.47965808       0.00000000 NULL       0.00269600      -0.00072200      -0.00926900
P        4.07977134       8.19203071       3.88863459       0.00000000 NULL       0.00030800       0.00030700       0.00560100
P        5.03108921       5.10713773       3.40184694       0.00000000 NULL       0.00437400      -0.00235600      -0.00451300
P        1.62470440       5.48150674       4.29982820       0.00000000 NULL       0.00488700      -0.00459800      -0.00250400
P        5.29333472       6.39559778       1.55759191       0.00000000 NULL      -0.00589300       0.00386100      -0.01284200
16
Lattice="5.645215779934899 2.026605011258008 0.5291564760086879 1.6700326907690093 7.284304670967189 1.4296842544010144 -1.682888876782817 0.30581250568602897 8.494124957601356" Properties=species:S:1:pos:R:3:initial_magmoms:R:1:castep_labels:S:1:forces:R:3 n_minim_iter=10 energy=-85.790738457644 stress="7.532299339997936e-06 -5.375748906554544e-06 1.1532856665805971e-05 -5.375748906554544e-06 1.890888423526453e-05 -1.443951159783837e-05 1.1532856665805971e-05 -1.443951159783837e-05 -2.1315469501570924e-05" free_energy=-85.790738457644 pbc="T T T"
P       -0.42055089       4.57373021       6.53184050       0.00000000 NULL      -0.00302300       0.00721300       0.00438800
P       -0.74063999       2.53495016       5.57440443       0.00000000 NULL      -0.00000000      -0.00617800       0.00327100
P        1.80951803       4.31031470       6.24140751       0.00000000 NULL       0.00357400       0.00410700      -0.01240500
P        0.20786936       1.14495329       2.11962770       0.00000000 NULL       0.01492000      -0.00234600       0.00659700
P        3.04782787       2.36923630       3.97534085       0.00000000 NULL       0.00712800      -0.00877800       0.01041700
P        4.65859042       3.72116263       8.19971320       0.00000000 NULL       0.00323100      -0.00269500       0.00716300
P        2.60420051       7.22925859       5.28542092       0.00000000 NULL      -0.00493200       0.00136700      -0.01330900
P        1.95723238       6.01617342       8.84587152       0.00000000 NULL      -0.01590500      -0.00254900      -0.00223700
P        1.55344827       2.20467544       5.63849679       0.00000000 NULL      -0.01545500       0.00241300      -0.00404300
P        2.94024693       4.32828910       2.95564975       0.00000000 NULL       0.01175900       0.00122700       0.00612200
P        5.30843935       5.66068199       9.10979577       0.00000000 NULL      -0.01150400       0.00128000      -0.00291700
P        2.46134750       3.89599628       8.47462776       0.00000000 NULL       0.00573200       0.01316300      -0.00555100
P        4.08163478       8.19079466       3.88462364       0.00000000 NULL      -0.01055000      -0.00395100       0.00345400
P        5.03215275       5.10511288       3.39976439       0.00000000 NULL       0.00842800      -0.00603900      -0.00352000
P        1.62595487       5.47923099       4.29373080       0.00000000 NULL       0.00363900      -0.00521800       0.00882900
P        5.29294068       6.39512310       1.55615737       0.00000000 NULL       0.00295900       0.00698400      -0.00626000
16
Lattice="5.6495079512238915 2.022817591242624 0.5303122048847914 1.66878711052208 7.278451737521752 1.4300006184531258 -1.6827300520470694 0.30647690060856575 8.492653093681861" Properties=species:S:1:pos:R:3:initial_magmoms:R:1:castep_labels:S:1:forces:R:3 n_minim_iter=11 energy=-85.791005618373 stress="6.0318212429739026e-06 -3.062790061199183e-06 -4.75044989083955e-06 -3.062790061199183e-06 -1.0469741535731903e-05 -4.781702850647704e-06 -4.75044989083955e-06 -4.781702850647704e-06 -5.6567857252760425e-06" free_energy=-85.791005618373 pbc="T T T"
P       -0.42025877       4.57588668       6.52880412       0.00000000 NULL       0.00225100      -0.01063000       0.00689600
P       -0.74401314       2.53506460       5.57304775       0.00000000 NULL       0.00228700       0.00416500       0.01263300
P        1.81137764       4.30727830       6.24163994       0.00000000 NULL      -0.01680100      -0.00407800      -0.01975800
P        0.21463271       1.14422106       2.11995645       0.00000000 NULL      -0.01716800       0.00976400      -0.01919800
P        3.05426481       2.36162241       3.98204037       0.00000000 NULL       0.00559300      -0.00906000      -0.00735200
P        4.65969724       3.71912629       8.20107048       0.00000000 NULL      -0.00574200      -0.00261600      -0.00084600
P        2.60504354       7.22086831       5.28280134       0.00000000 NULL      -0.00470600      -0.00566100       0.01429100
P        1.95590037       6.01215425       8.84583484       0.00000000 NULL      -0.00335900       0.00105200       0.00681400
P        1.54878441       2.20284503       5.63771753       0.00000000 NULL      -0.00386500       0.00017000      -0.00145900
P        2.94685484       4.31839404       2.95667942       0.00000000 NULL       0.00453600      -0.00603400       0.01785300
P        5.30902493       5.65882115       9.10846942       0.00000000 NULL      -0.00171000       0.00589000      -0.00701600
P        2.46169985       3.89264960       8.47480109       0.00000000 NULL       0.00749400       0.00583200      -0.00550400
P        4.08390202       8.18278551       3.88572002       0.00000000 NULL       0.02014300       0.00194700       0.01045600
P        5.03576176       5.09803116       3.40003743       0.00000000 NULL       0.01774800       0.01010000      -0.00457700
P        1.62838776       5.47121247       4.29066852       0.00000000 NULL       0.00666400      -0.00454800      -0.00002500
P        5.29364606       6.39117298       1.55601645       0.00000000 NULL      -0.01336400       0.00370600      -0.00320700
16
Lattice="5.654819042601169 2.0190650591121697 0.5334041337964212 1.6681118979738516 7.2726325441573545 1.4330412295296926 -1.680926846139737 0.30972589079364027 8.491622184134728" Properties=species:S:1:pos:R:3:initial_magmoms:R:1:castep_labels:S:1:forces:R:3 n_minim_iter=12 energy=-85.791399932247 stress="-7.561451423785579e-06 -4.905569725348496e-06 -9.936122118858738e-06 -4.905569725348496e-06 -3.0620753699627552e-06 6.342870409208565e-06 -9.936122118858738e-06 6.342870409208565e-06 -6.936538082976855e-06" free_energy=-85.791399932247 pbc="T T T"
P       -0.41754037       4.58025889       6.52786959       0.00000000 NULL      -0.01562600      -0.00375800      -0.00515900
P       -0.74723522       2.53831395       5.57492271       0.00000000 NULL      -0.00876400       0.00443500       0.00052900
P        1.81206925       4.30545441       6.24064413       0.00000000 NULL      -0.00966700      -0.01293800       0.00249500
P        0.22190648       1.14600448       2.11748927       0.00000000 NULL       0.01119800      -0.00467600      -0.00144200
P        3.06510786       2.35101479       3.99229781       0.00000000 NULL       0.00142700      -0.00255800       0.00456800
P        4.66067022       3.72010370       8.20582547       0.00000000 NULL       0.00402400       0.00944500      -0.00076700
P        2.60678808       7.21148285       5.28484295       0.00000000 NULL      -0.00207400       0.02113600      -0.00942600