24
Lattice="6.148827340728794 2.1819048618878948e-16 -8.781771006267649e-16 -3.3887325538383233e-16 9.865724855354342 1.5019416416109524e-15 -3.074413670364396 -4.932862427677171 7.37447993259302" Properties=species:S:1:pos:R:3:initial_magmoms:R:1:castep_labels:S:1:forces:R:3 n_minim_iter=1 energy=-127.132800185896 stress="-0.0015287845041172567 0.0 -2.235359190708217e-08 0.0 0.0006747431717152752 2.235359190708217e-08 -2.235359190708217e-08 2.235359190708217e-08 -0.0022378627930018102" free_energy=-127.132800185896 pbc="T T T"
P        4.79785023       0.52949063       3.18932585       0.00000000 NULL       0.08232900      -0.02728400       0.05337300
P        1.72343656       4.40337082       4.18515555       0.00000000 NULL       0.08233000       0.02728400      -0.05337300
P       -1.72343655       5.46235305       4.18515555       0.00000000 NULL      -0.08232900      -0.02728300      -0.05337300
P        1.35097712      -0.52949161       3.18932585       0.00000000 NULL      -0.08233000       0.02728300       0.05337300
P        1.50663438       3.53447489       0.86317654       0.00000000 NULL       0.00087900      -0.02638100      -0.00760000
P       -1.56777929       1.39838655       6.51130486       0.00000000 NULL       0.00087900       0.02638100       0.00760100
P        1.56777930      -1.39838754       6.51130486       0.00000000 NULL      -0.00087900      -0.02638100       0.00760000
P        4.64219297       6.33124898       0.86317654       0.00000000 NULL      -0.00087900       0.02638000      -0.00760100
P       -0.19839241      -3.82431824       5.87439456       0.00000000 NULL      -0.00832900       0.02307700       0.00526600
P        2.87602126       8.75717968       1.50008684       0.00000000 NULL      -0.00832700      -0.02307700      -0.00526500
P        3.27280609       1.10854419       1.50008684       0.00000000 NULL       0.00832800       0.02307600      -0.00526600
P        0.19839242       3.82431725       5.87439456       0.00000000 NULL       0.00832600      -0.02307600       0.00526500
P        3.80260111       1.96056512       4.51343291       0.00000000 NULL      -0.01140200      -0.01743700      -0.01186600
P        0.72818744       2.97229632       2.86104849       0.00000000 NULL      -0.01140000       0.01743700       0.01186500
P       -0.72818744       6.89342755       2.86104849       0.00000000 NULL       0.01140200      -0.01743700       0.01186600
P        2.34622623      -1.96056610       4.51343291       0.00000000 NULL       0.01140000       0.01743700      -0.01186600
P        1.39840416       8.39753817      -0.16717126       0.00000000 NULL      -0.02717600      -0.01668300       0.00709300
P       -1.67600951      -3.46467672       7.54165266       0.00000000 NULL      -0.02717400       0.01668300      -0.00709500
P        1.67600951       3.46467574       7.54165266       0.00000000 NULL       0.02717700      -0.01668500      -0.00709300
P        4.75042318       1.46818570      -0.16717126       0.00000000 NULL       0.02717400       0.01668500       0.00709500
P        1.51013940       6.29717210       3.02775231       0.00000000 NULL      -0.00147500       0.00476400      -0.00727700
P        4.58455307      -1.36431066       4.34672909       0.00000000 NULL      -0.00147400      -0.00476400       0.00727700
P        1.56427428       1.36430968       4.34672909       0.00000000 NULL       0.00147500       0.00476300       0.00727800
P       -1.51013940       3.56855177       3.02775231       0.00000000 NULL       0.00147400      -0.00476300      -0.00727700
24
Lattice="6.158395074568846 1.3724487206748886e-16 -9.659089727508563e-16 -4.641450718480915e-16 9.858956995766363 1.5515403906227247e-15 -3.079197537284421 -4.929478497883181 7.391283133314819" Properties=species:S:1:pos:R:3:initial_magmoms:R:1:castep_labels:S:1:forces:R:3 n_minim_iter=2 energy=-127.134714350499 stress="0.00018232286243374574 -0.0 -2.2283410221675107e-08 -0.0 0.0007509509244704512 2.2283410221675107e-08 -2.2283410221675107e-08 2.2283410221675107e-08 6.25718159024637e-05" free_energy=-127.134714350499 pbc="T T T"
P        4.80550327       0.52906541       3.19671453       0.00000000 NULL       0.05688300      -0.02414800       0.06411400
P        1.72630573       4.40041210       4.19457007       0.00000000 NULL       0.05688300       0.02414800      -0.06411300
P       -1.72630573       5.45854391       4.19457007       0.00000000 NULL      -0.05688300      -0.02414800      -0.06411300
P        1.35289181      -0.52906640       3.19671453       0.00000000 NULL      -0.05688300       0.02414800       0.06411300
P        1.50898074       3.53199032       0.86512602       0.00000000 NULL      -0.01253800      -0.02106800       0.02090400
P       -1.57021680       1.39748720       6.52615859       0.00000000 NULL      -0.01253800       0.02106700      -0.02090400
P        1.57021680      -1.39748818       6.52615859       0.00000000 NULL       0.01253800      -0.02106700      -0.02090500
P        4.64941434       6.32696570       0.86512602       0.00000000 NULL       0.01253800       0.02106700       0.02090400
P       -0.19872008      -3.82164234       5.88779172       0.00000000 NULL      -0.01319700       0.03297800       0.02451500
P        2.88047746       8.75111985       1.50349288       0.00000000 NULL      -0.01319400      -0.03297800      -0.02451400
P        3.27791762       1.10783616       1.50349288       0.00000000 NULL       0.01319600       0.03297700      -0.02451500
P        0.19872008       3.82164135       5.88779172       0.00000000 NULL       0.01319300      -0.03297700       0.02451400
P        3.80849210       1.95918056       4.52369001       0.00000000 NULL      -0.00228000      -0.03252800      -0.00611300
P        0.72929456       2.97029695       2.86759460       0.00000000 NULL      -0.00228000       0.03252800       0.00611300
P       -0.72929456       6.88865906       2.86759460       0.00000000 NULL       0.00228000      -0.03252800       0.00611300
P        2.34990298      -1.95918155       4.52369001       0.00000000 NULL       0.00228000       0.03252800      -0.00611300
P        1.40051824       8.39173958      -0.16753600       0.00000000 NULL      -0.00349600      -0.00575100       0.01764500
P       -1.67867930      -3.46226206       7.55882061       0.00000000 NULL      -0.00349200       0.00575100      -0.01764800
P        1.67867930       3.46226108       7.55882061       0.00000000 NULL       0.00349600      -0.00575300      -0.01764500
P        4.75787684       1.46721644      -0.16753600       0.00000000 NULL       0.00349200       0.00575300       0.01764800
P        1.51248586       6.29286308       3.03463464       0.00000000 NULL      -0.01391400       0.00615800       0.00732700
P        4.59168339      -1.36338557       4.35664996       0.00000000 NULL      -0.01391400      -0.00615800      -0.00732700
P        1.56671168       1.36338459       4.35664996       0.00000000 NULL       0.01391400       0.00615800      -0.00732700
P       -1.51248585       3.56609293       3.03463464       0.00000000 NULL       0.01391400      -0.00615800       0.00732700
24
Lattice="6.157897785515924 1.8986002403367015e-16 -9.541666638407966e-16 -3.8260257020890346e-16 9.850482126360477 1.46347358958518e-15 -3.07894889275796 -4.925241063180239 7.392036231971896" Properties=species:S:1:pos:R:3:initial_magmoms:R:1:castep_labels:S:1:forces:R:3 n_minim_iter=3 energy=-127.134926680363 stress="-3.541575072080208e-05 0.0 -0.0 0.0 -0.0003138352922815661 0.0 -0.0 0.0 -0.00011008321508682561" free_energy=-127.134926680363 pbc="T T T"
P        4.80526612       0.52854818       3.19720391       0.00000000 NULL       0.05983900      -0.02457800       0.05622400
P        1.72631723       4.39669190       4.19483379       0.00000000 NULL       0.05983800       0.02457800      -0.05622400
P       -1.72631723       5.45378924       4.19483379       0.00000000 NULL      -0.05983900      -0.02457900      -0.05622400
P        1.35263167      -0.52854916       3.19720391       0.00000000 NULL      -0.05983800       0.02457900       0.05622400
P        1.50882885       3.52889927       0.86526329       0.00000000 NULL      -0.01092900      -0.00202300       0.02522500
P       -1.57012004       1.39634081       6.52677441       0.00000000 NULL      -0.01092900       0.00202300      -0.02522500
P        1.57012004      -1.39634179       6.52677441       0.00000000 NULL       0.01092900      -0.00202300      -0.02522500
P        4.64906894       6.32158188       0.86526329       0.00000000 NULL       0.01092900       0.00202300       0.02522500
P       -0.19873721      -3.81827433       5.88845164       0.00000000 NULL      -0.01100700       0.04465900       0.02284600
P        2.88021168       8.74351441       1.50358606       0.00000000 NULL      -0.01100600      -0.04465900      -0.02284600
P        3.27768611       1.10696673       1.50358606       0.00000000 NULL       0.01100600       0.04465900      -0.02284600
P        0.19873722       3.81827335       5.88845164       0.00000000 NULL       0.01100500      -0.04465900       0.02284600
P        3.80817715       1.95741558       4.52413417       0.00000000 NULL      -0.00295200      -0.02542900      -0.00239500
P        0.72922825       2.96782450       2.86790353       0.00000000 NULL      -0.00295300       0.02542900       0.00239600
P       -0.72922825       6.88265664       2.86790353       0.00000000 NULL       0.00295200      -0.02543000       0.00239500
P        2.34972064      -1.95741656       4.52413417       0.00000000 NULL       0.00295300       0.02543000      -0.00239600
P        1.40039213       8.38450935      -0.16750932       0.00000000 NULL      -0.00686400       0.00554800       0.02100000
P       -1.67855676      -3.45926927       7.55954702       0.00000000 NULL      -0.00686300      -0.00554800      -0.02100100
P        1.67855676       3.45926829       7.55954702       0.00000000 NULL       0.00686400       0.00554700      -0.02100000
P        4.75750565       1.46597179      -0.16750932       0.00000000 NULL       0.00686300      -0.00554700       0.02100100
P        1.51232997       6.28746922       3.03496028       0.00000000 NULL      -0.01231100       0.00980700       0.00232600
P        4.59127887      -1.36222914       4.35707743       0.00000000 NULL      -0.01231200      -0.00980700      -0.00232600
P        1.56661892       1.36222816       4.35707743       0.00000000 NULL       0.01231100       0.00980700      -0.00232600
P       -1.51232997       3.56301192       3.03496028       0.00000000 NULL       0.01231200      -0.00980700       0.00232600
24
Lattice="6.1479089436957555 2.0067182743013688e-16 -9.68827642658641e-16 -3.6458447720967713e-16 9.851153944274419 1.502458118895835e-15 -3.073954471847876 -4.925576972137209 7.4049009355740845" Properties=species:S:1:pos:R:3:initial_magmoms:R:1:castep_labels:S:1:forces:R:3 n_minim_iter=4 energy=-127.137130251231 stress="-0.0005472601837606571 -0.0 2.229801506582965e-08 -0.0 6.664876703176482e-05 -0.0 2.229801506582965e-08 -0.0 0.0003578162477613684" free_energy=-127.137130251231 pbc="T T T"
P        4.80274498       0.52640198       3.20805197       0.00000000 NULL       0.02675700      -0.01927700       0.00879700
P        1.72879051       4.39917401       4.19685044       0.00000000 NULL       0.02675700       0.01927700      -0.00879700
P       -1.72879051       5.45197895       4.19685044       0.00000000 NULL      -0.02675700      -0.01927700      -0.00879700
P        1.34516397      -0.52640296       3.20805197       0.00000000 NULL      -0.02675700       0.01927700       0.00879700
P        1.50535033       3.52846481       0.86894762       0.00000000 NULL      -0.00792900       0.00061000       0.01249000
P       -1.56860414       1.39711118       6.53595479       0.00000000 NULL      -0.00792900      -0.00061000      -0.01249000
P        1.56860414      -1.39711216       6.53595479       0.00000000 NULL       0.00792900       0.00061000      -0.01249000
P        4.64255862       6.32268815       0.86894762       0.00000000 NULL       0.00792900      -0.00061000       0.01249000
P       -0.19946255      -3.81484461       5.90081557       0.00000000 NULL       0.01145300      -0.01128000      -0.01238100
P        2.87449192       8.74042060       1.50408684       0.00000000 NULL       0.01144900       0.01128000       0.01237900
P        3.27341702       1.11073236       1.50408684       0.00000000 NULL      -0.01145300      -0.01128000       0.01238100
P        0.19946255       3.81484363       5.90081557       0.00000000 NULL      -0.01144900       0.01128000      -0.01237900
P        3.80175844       1.95508245       4.53169742       0.00000000 NULL       0.01428000       0.00027300       0.00680000
P        0.72780397       2.97049354       2.87320499       0.00000000 NULL       0.01428000      -0.00027300      -0.00680000
P       -0.72780396       6.88065942       2.87320499       0.00000000 NULL      -0.01428000       0.00027300      -0.00680000
P        2.34615051      -1.95508343       4.53169742       0.00000000 NULL      -0.01428000      -0.00027300       0.00680000
P        1.39760834       8.38528830      -0.16598920       0.00000000 NULL      -0.00703600      -0.00092000      -0.00856700
P       -1.67634613      -3.45971231       7.57089161       0.00000000 NULL      -0.00704000       0.00092000       0.00857000
P        1.67634613       3.45971133       7.57089161       0.00000000 NULL       0.00703600      -0.00092000       0.00856700
P        4.75030060       1.46586466      -0.16598920       0.00000000 NULL       0.00704000       0.00092000      -0.00857000
P        1.50872256       6.28867956       3.04059304       0.00000000 NULL       0.00932200       0.02203700      -0.00866200
P        4.58267703      -1.36310357       4.36430937       0.00000000 NULL       0.00932100      -0.02203700       0.00866200
P        1.56523191       1.36310259       4.36430937       0.00000000 NULL      -0.00932200       0.02203700       0.00866200
P       -1.50872256       3.56247340       3.04059304       0.00000000 NULL      -0.00932100      -0.02203700      -0.00866200
24
Lattice="6.1557717419632665 1.0100930270647008e-16 -9.59251450741522e-16 -5.180350945831765e-16 9.84994983443648 1.4602777681840942e-15 -3.0778858709816315 -4.92497491721824 7.398304168321297" Properties=species:S:1:pos:R:3:initial_magmoms:R:1:castep_labels:S:1:forces:R:3 n_minim_iter=5 energy=-127.137448408199 stress="1.6295536088548145e-05 -0.0 -0.0 -0.0 1.4467582655906632e-05 -0.0 -0.0 -0.0 -7.501296708339879e-05" free_energy=-127.137448408199 pbc="T T T"
P        4.80980935       0.52590342       3.20600290       0.00000000 NULL       0.01758700      -0.01474700      -0.00378900
P        1.73192347       4.39907051       4.19230274       0.00000000 NULL       0.01758700       0.01474700       0.00378900
P       -1.73192347       5.45087834       4.19230274       0.00000000 NULL      -0.01758700      -0.01474600       0.00378900
P        1.34596240      -0.52590441       3.20600290       0.00000000 NULL      -0.01758700       0.01474600      -0.00378900
P        1.50707617       3.52794450       0.86856826       0.00000000 NULL      -0.00326200       0.00333000       0.00455400
P       -1.57080970       1.39702943       6.52973738       0.00000000 NULL      -0.00326200      -0.00332900      -0.00455400
P        1.57080971      -1.39703041       6.52973738       0.00000000 NULL       0.00326200       0.00332900      -0.00455400
P        4.64869558       6.32200435       0.86856826       0.00000000 NULL       0.00326200      -0.00332900       0.00455400
P       -0.19979339      -3.81392280       5.89578130       0.00000000 NULL       0.00997700      -0.01882000      -0.02014000
P        2.87809248       8.73889674       1.50252434       0.00000000 NULL       0.00997800       0.01882000       0.02014100
P        3.27767926       1.11105212       1.50252434       0.00000000 NULL      -0.00997700      -0.01882000       0.02014000
P        0.19979339       3.81392182       5.89578130       0.00000000 NULL      -0.00997800       0.01882000      -0.02014100
P        3.80667929       1.95449337       4.52766145       0.00000000 NULL       0.00179300       0.00200000       0.00130700
P        0.72879342       2.97048057       2.87064420       0.00000000 NULL       0.00179200      -0.00200000      -0.00130600
P       -0.72879342       6.87946829       2.87064420       0.00000000 NULL      -0.00179300       0.00200100      -0.00130700
P        2.34909245      -1.95449435       4.52766145       0.00000000 NULL      -0.00179200      -0.00200100       0.00130600
P        1.39927958       8.38428968      -0.16563761       0.00000000 NULL       0.00211600       0.00355900      -0.01034000
P       -1.67860630      -3.45931575       7.56394325       0.00000000 NULL       0.00211700      -0.00355900       0.01033900
P        1.67860630       3.45931477       7.56394325       0.00000000 NULL      -0.00211600       0.00355900       0.01034000
P        4.75649217       1.46565917      -0.16563761       0.00000000 NULL      -0.00211700      -0.00355900      -0.01033900
P        1.51054654       6.28816438       3.03787891       0.00000000 NULL      -0.00105900       0.02445300      -0.01052500
P        4.58843241      -1.36319044       4.36042673       0.00000000 NULL      -0.00106000      -0.02445300       0.01052500
P        1.56733934       1.36318946       4.36042673       0.00000000 NULL       0.00105900       0.02445300       0.01052500
P       -1.51054653       3.56178448       3.03787891       0.00000000 NULL       0.00106000      -0.02445300      -0.01052500
24
Lattice="6.152160927331947 1.1080339756362161e-16 -9.561469250533496e-16 -5.019843094664613e-16 9.849050601256442 1.461967375333199e-15 -3.0760804636659715 -4.924525300628221 7.398608314124392" Properties=species:S:1:pos:R:3:initial_magmoms:R:1:castep_labels:S:1:forces:R:3 n_minim_iter=6 energy=-127.138096217669 stress="-4.316272676590388e-05 0.0 2.230631874206919e-08 0.0 3.192034211990101e-05 2.230631874206919e-08 2.230631874206919e-08 2.230631874206919e-08 -5.322287651857708e-05" free_energy=-127.138096217669 pbc="T T T"
P        4.81109844       0.52305487       3.20727519       0.00000000 NULL      -0.00766500      -0.01105800       0.00641000
P        1.73501798       4.40146945       4.19133460       0.00000000 NULL      -0.00766600       0.01105800      -0.00641000
P       -1.73501797       5.44758017       4.19133460       0.00000000 NULL       0.00766500      -0.01105700      -0.00641000
P        1.34106249      -0.52305585       3.20727519       0.00000000 NULL       0.00766500       0.01105700       0.00641000
P        1.50532812       3.52793918       0.87009138       0.00000000 NULL       0.00353400      -0.00267700      -0.01406100
P       -1.57075235       1.39658514       6.52851841       0.00000000 NULL       0.00353400       0.00267700       0.01406100
P        1.57075235      -1.39658612       6.52851841       0.00000000 NULL      -0.00353400      -0.00267700       0.01406100
P        4.64683282       6.32111044       0.87009138       0.00000000 NULL      -0.00353400       0.00267700      -0.01406000
P       -0.19852640      -3.81506922       5.89385421       0.00000000 NULL      -0.00387200       0.00224300       0.00085100
P        2.87755406       8.73959354       1.50475558       0.00000000 NULL      -0.00387500      -0.00224300      -0.00085300
P        3.27460687       1.10945608       1.50475558       0.00000000 NULL       0.00387200       0.00224300      -0.00085100
P        0.19852641       3.81506824       5.89385421       0.00000000 NULL       0.00387500      -0.00224300       0.00085300
P        3.80481346       1.95384161       4.52804226       0.00000000 NULL       0.01161100      -0.00688500      -0.01627500
P        0.72873300       2.97068271       2.87056753       0.00000000 NULL       0.01161000       0.00688500       0.01627500
P       -0.72873299       6.87836691       2.87056753       0.00000000 NULL      -0.01161100      -0.00688500       0.01627500
P        2.34734747      -1.95384259       4.52804226       0.00000000 NULL      -0.01161000       0.00688500      -0.01627500
P        1.39857100       8.38410528      -0.16656283       0.00000000 NULL       0.00822000      -0.00164600      -0.00244900
P       -1.67750947      -3.45958096       7.56517261       0.00000000 NULL       0.00821700       0.00164600       0.00245200
P        1.67750947       3.45957998       7.56517261       0.00000000 NULL      -0.00822000      -0.00164700       0.00245000
P        4.75358993       1.46494434      -0.16656283       0.00000000 NULL      -0.00821600       0.00164700      -0.00245300
P        1.50926453       6.29132319       3.03662896       0.00000000 NULL       0.00531900       0.00440500      -0.00731500
P        4.58534499      -1.36679888       4.36198083       0.00000000 NULL       0.00531900      -0.00440500       0.00731500
P        1.56681594       1.36679789       4.36198083       0.00000000 NULL      -0.00531900       0.00440400       0.00731500
P       -1.50926453       3.55772642       3.03662896       0.00000000 NULL      -0.00531900      -0.00440400      -0.00731500
24
Lattice="6.150684284907691 1.0855801109291025e-16 -9.567936864608006e-16 -5.055125749247574e-16 9.85160509688282 1.4754180577789891e-15 -3.075342142453844 -4.92580254844141 7.398455487252717" Properties=species:S:1:pos:R:3:initial_magmoms:R:1:castep_labels:S:1:forces:R:3 n_minim_iter=7 energy=-127.138440600108 stress="-5.438288700121808e-05 -0.0 0.0 -0.0 3.624782255003256e-05 -2.230635233848158e-08 0.0 -2.230635233848158e-08 -7.381171988803554e-05" free_energy=-127.138440600108 pbc="T T T"
P        4.81077005       0.51993480       3.20880359       0.00000000 NULL      -0.00264700      -0.01892100      -0.00786900
P        1.73542790       4.40586676       4.18965337       0.00000000 NULL      -0.00264600       0.01892100       0.00786900
P       -1.73542790       5.44573735       4.18965337       0.00000000 NULL       0.00264700      -0.01892200       0.00786900
P        1.33991424      -0.51993578       3.20880359       0.00000000 NULL       0.00264600       0.01892200      -0.00786900
P        1.50503615       3.52873697       0.86871371       0.00000000 NULL       0.00021700      -0.00558600      -0.00159000
P       -1.57030599       1.39706460       6.52974325       0.00000000 NULL       0.00021800       0.00558600       0.00159000
P        1.57030599      -1.39706558       6.52974325       0.00000000 NULL      -0.00021700      -0.00558700       0.00159000
P        4.64564814       6.32286714       0.86871371       0.00000000 NULL      -0.00021800       0.00558700      -0.00159100
P       -0.19848313      -3.81644018       5.89274459       0.00000000 NULL      -0.00266000       0.00243000       0.01201500
P        2.87685902       8.74224174       1.50571237       0.00000000 NULL      -0.00266200      -0.00243000      -0.01201600
P        3.27382527       1.10936237       1.50571237       0.00000000 NULL       0.00266100       0.00243100      -0.01201500
P        0.19848313       3.81643920       5.89274459       0.00000000 NULL       0.00266200      -0.00243100       0.01201600
P        3.80600021       1.95298563       4.52545374       0.00000000 NULL       0.00542800       0.00162500       0.02109400
P        0.73065807       2.97281594       2.87300322       0.00000000 NULL       0.00542900      -0.00162500      -0.02109500
P       -0.73065806       6.87878818       2.87300322       0.00000000 NULL      -0.00542800       0.00162500      -0.02109400
P        2.34468408      -1.95298661       4.52545374       0.00000000 NULL      -0.00542900      -0.00162500       0.02109500
P        1.39972292       8.38644440      -0.16740781       0.00000000 NULL       0.00058300      -0.00149300      -0.00191300
P       -1.67561923      -3.46064283       7.56586477       0.00000000 NULL       0.00058100       0.00149300       0.00191400
P        1.67561923       3.46064185       7.56586477       0.00000000 NULL      -0.00058300      -0.00149100       0.00191300
P        4.75096137       1.46515972      -0.16740781       0.00000000 NULL      -0.00058200       0.00149100      -0.00191400
P        1.50950296       6.29570372       3.03466462       0.00000000 NULL      -0.00371300      -0.00350900      -0.00937100
P        4.58484511      -1.36990216       4.36379234       0.00000000 NULL      -0.00371100       0.00350900       0.00937100
P        1.56583918       1.36990117       4.36379234       0.00000000 NULL       0.00371300      -0.00350900       0.00937100
P       -1.50950296       3.55590039       3.03466462       0.00000000 NULL       0.00371100       0.00350900      -0.00937100
24
Lattice="6.148216813664793 1.0460480355902592e-16 -9.49656449288126e-16 -5.116888923879777e-16 9.853094375575372 1.4826349458625321e-15 -3.0741084068323947 -4.926547187787686 7.400382095367821" Properties=species:S:1:pos:R:3:initial_magmoms:R:1:castep_labels:S:1:forces:R:3 n_minim_iter=8 energy=-127.138768197317 stress="-4.363077214146359e-05 0.0 2.2306120726719626e-08 0.0 2.6254304095348996e-05 0.0 2.2306120726719626e-08 0.0 -5.5408403885171545e-05" free_energy=-127.138768197317 pbc="T T T"
P        4.80909914       0.51443536       3.21003018       0.00000000 NULL      -0.00672700       0.00351400       0.00392600
P        1.73499073       4.41211084       4.19035339       0.00000000 NULL      -0.00672800      -0.00351400      -0.00392600
P       -1.73499073       5.44098255       4.19035339       0.00000000 NULL       0.00672700       0.00351300      -0.00392600
P        1.33911768      -0.51443634       3.21003018       0.00000000 NULL       0.00672800      -0.00351300       0.00392600
P        1.50449055       3.52854085       0.86754839       0.00000000 NULL       0.00318800       0.00866200      -0.00053100
P       -1.56961786       1.39800535       6.53283518       0.00000000 NULL       0.00318800      -0.00866200       0.00053100
P        1.56961786      -1.39800633       6.53283518       0.00000000 NULL      -0.00318800       0.00866200       0.00053100
P        4.64372627       6.32455254       0.86754839       0.00000000 NULL      -0.00318800      -0.00866200      -0.00053000
P       -0.19876087      -3.81702011       5.89499066       0.00000000 NULL       0.00450000      -0.00067000       0.00418600
P        2.87534754       8.74356632       1.50539291       0.00000000 NULL       0.00449700       0.00067000      -0.00418700
P        3.27286928       1.10952707       1.50539291       0.00000000 NULL      -0.00450000      -0.00067000      -0.00418600
P        0.19876087       3.81701913       5.89499066       0.00000000 NULL      -0.00449700       0.00067000       0.00418800
P        3.80722114       1.95219644       4.52713214       0.00000000 NULL       0.00376200      -0.00774800       0.00037600
P        0.73311273       2.97434976       2.87325143       0.00000000 NULL       0.00376100       0.00774800      -0.00037500
P       -0.73311272       6.87874363       2.87325143       0.00000000 NULL      -0.00376200      -0.00774900      -0.00037600
P        2.34099568      -1.95219742       4.52713214       0.00000000 NULL      -0.00376100       0.00774900       0.00037500
P        1.40076817       8.38777792      -0.16848006       0.00000000 NULL      -0.01305300       0.00612200       0.00094200
P       -1.67334023      -3.46123171       7.56886363       0.00000000 NULL      -0.01305600      -0.00612200      -0.00093900
P        1.67334024       3.46123073       7.56886363       0.00000000 NULL       0.01305300       0.00612200      -0.00094200
P        4.74744864       1.46531548      -0.16848006       0.00000000 NULL       0.01305700      -0.00612200       0.00093900
P        1.50892218       6.29883139       3.03241883       0.00000000 NULL      -0.01275800       0.00616600      -0.00475900
P        4.58303059      -1.37228518       4.36796474       0.00000000 NULL      -0.01275800      -0.00616600       0.00475900
P        1.56518623       1.37228420       4.36796474       0.00000000 NULL       0.01275800       0.00616700       0.00475800
P       -1.50892217       3.55426201       3.03241883       0.00000000 NULL       0.01275800      -0.00616700      -0.00475800
24
Lattice="6.147645747443006 1.0345904240318333e-16 -9.46563192059667e-16 -5.134284031147901e-16 9.85028235924557 1.4767888970644388e-15 -3.073822873721501 -4.925141179622785 7.402782825235328" Properties=species:S:1:pos:R:3:initial_magmoms:R:1:castep_labels:S:1:forces:R:3 n_minim_iter=9 energy=-127.139044555401 stress="3.569171760815132e-07 -0.0 -0.0 -0.0 3.1676399377234295e-06 0.0 -0.0 0.0 -2.654571497106254e-06" free_energy=-127.139044555401 pbc="T T T"
P        4.80735532       0.51029553       3.21201356       0.00000000 NULL       0.00036100      -0.00500300      -0.00009000
P        1.73353245       4.41484467       4.19077074       0.00000000 NULL       0.00036100       0.00500300       0.00009000
P       -1.73353245       5.43543671       4.19077074       0.00000000 NULL      -0.00036100      -0.00500400       0.00009000
P        1.34029043      -0.51029651       3.21201356       0.00000000 NULL      -0.00036100       0.00500400      -0.00009000
P        1.50497369       3.52868568       0.86663901       0.00000000 NULL       0.00122800      -0.00015700      -0.00464400
P       -1.56884918       1.39645451       6.53614529       0.00000000 NULL       0.00122700       0.00015700       0.00464300
P        1.56884919      -1.39645549       6.53614529       0.00000000 NULL      -0.00122800      -0.00015700       0.00464300
P        4.64267206       6.32159569       0.86663901       0.00000000 NULL      -0.00122700       0.00015700      -0.00464300