7
Lattice="4.919039999999998 3.795603510915389e-16 1.2643835276736e-15 2.3646502918477394 5.101038903808163 1.6258817232048811e-15 0.9430635690888942 1.2097998592416819 6.398405980346677" Properties=species:S:1:pos:R:3:initial_magmoms:R:1:castep_labels:S:1 n_minim_iter=1 pbc="T T T"
P        4.83443443       1.82056083       1.63360710       0.00000000 NULL
P        2.42735884       0.46306174       2.08934637       0.00000000 NULL
P        5.75361365       5.78379301       6.20260836       0.00000000 NULL
P        4.02169811       4.18735024       5.90833991       0.00000000 NULL
P        1.12369848       1.35275311       5.47999606       0.00000000 NULL
P        4.38304269       4.07741696       3.41279458       0.00000000 NULL
P        3.18263952       3.75799272       1.76914774       0.00000000 NULL
7
Lattice="4.916264372123382 0.0005719461779156713 0.0006544602067874021 2.3639091168290225 5.098976046877078 -0.0008814998568677281 0.9435233842102889 1.2078547427100672 6.40041377889993" Properties=species:S:1:pos:R:3:initial_magmoms:R:1:castep_labels:S:1 n_minim_iter=2 pbc="T T T"
P        4.83206289       1.81990221       1.63440270       0.00000000 NULL
P        2.42638375       0.46281627       2.09005599       0.00000000 NULL
P        5.75175177       5.78038316       6.20411430       0.00000000 NULL
P        4.02071698       4.18465925       5.90988152       0.00000000 NULL
P        1.12403372       1.35086989       5.48175876       0.00000000 NULL
P        4.38162641       4.07507535       3.41379271       0.00000000 NULL
P        3.18141210       3.75617365       1.76919840       0.00000000 NULL
7
Lattice="4.3836873596453225 0.1029579978973053 0.12954557521063653 2.214066229810474 4.697631037132947 -0.1806767740061158 1.0342545703381434 0.8173834632703707 6.838419138572601" Properties=species:S:1:pos:R:3:initial_magmoms:R:1:castep_labels:S:1 n_minim_iter=3 pbc="T T T"
P        4.37617791       1.68109987       1.80047223       0.00000000 NULL
P        2.23898141       0.40830412       2.23739252       0.00000000 NULL
P        5.39126100       5.09978050       6.53537041       0.00000000 NULL
P        3.83055618       3.64583842       6.24746299       0.00000000 NULL
P        1.18919789       0.97441901       5.86824104       0.00000000 NULL
P        4.10526112       3.60886885       3.63627148       0.00000000 NULL
P        2.94175967       3.39731505       1.78472743       0.00000000 NULL
7
Lattice="4.516272086205021 0.12532337727074472 0.19963403057976295 2.3009944073890827 4.9188000734389465 -0.39448163978500583 1.1563409632605461 0.5611311753075551 7.041964319683211" Properties=species:S:1:pos:R:3:initial_magmoms:R:1:castep_labels:S:1 n_minim_iter=4 pbc="T T T"
P        4.53644434       1.69421904       1.85850015       0.00000000 NULL
P        2.33942640       0.35165769       2.31719429       0.00000000 NULL
P        5.67017723       5.07319584       6.57485863       0.00000000 NULL
P        4.03420322       3.53693589       6.33236501       0.00000000 NULL
P        1.30448500       0.78059514       6.02551780       0.00000000 NULL
P        4.29735752       3.61957166       3.63987495       0.00000000 NULL
P        3.05953491       3.47538927       1.71810752       0.00000000 NULL
7
Lattice="4.42590300270404 0.12756506757818442 0.18411838739250383 2.2598773743488825 4.756184768589013 -0.44350179479069246 1.1193851389611684 0.4706062430759253 6.855581680946763" Properties=species:S:1:pos:R:3:initial_magmoms:R:1:castep_labels:S:1 n_minim_iter=5 pbc="T T T"
P        4.44130731       1.62664399       1.78742611       0.00000000 NULL
P        2.28697601       0.31903917       2.24652887       0.00000000 NULL
P        5.54679204       4.83995665       6.34072022       0.00000000 NULL
P        3.94341199       3.36042125       6.12344056       0.00000000 NULL
P        1.27014975       0.68897717       5.86795795       0.00000000 NULL
P        4.20737189       3.46407713       3.49344576       0.00000000 NULL
P        2.99918973       3.34018784       1.63236678       0.00000000 NULL
7
Lattice="4.43777298747152 0.13795212014245642 0.18728102672586597 2.276354801279929 4.729610739937317 -0.5138294154789493 1.1283292124702875 0.3749895894691246 6.8313580812056705" Properties=species:S:1:pos:R:3:initial_magmoms:R:1:castep_labels:S:1 n_minim_iter=6 pbc="T T T"
P        4.45712742       1.60254757       1.76629734       0.00000000 NULL
P        2.29514085       0.29386637       2.23493485       0.00000000 NULL
P        5.57912226       4.73146267       6.25318805       0.00000000 NULL
P        3.96337671       3.25907322       6.05922811       0.00000000 NULL
P        1.28113410       0.60521880       5.84559979       0.00000000 NULL
P        4.23050245       3.39896146       3.43349974       0.00000000 NULL
P        3.01318884       3.29660703       1.58139785       0.00000000 NULL
7
Lattice="4.482598564683447 0.15576556419983473 0.1876601196915908 2.316375595049472 4.700324690298086 -0.6693456166162387 1.14179721875692 0.17413030534364404 6.808920402056222" Properties=species:S:1:pos:R:3:initial_magmoms:R:1:castep_labels:S:1 n_minim_iter=7 pbc="T T T"
P        4.50660885       1.55577271       1.72134801       0.00000000 NULL
P        2.31884393       0.24048481       2.21581494       0.00000000 NULL
P        5.65833509       4.52582587       6.08498436       0.00000000 NULL
P        4.01028646       3.06014920       5.94397995       0.00000000 NULL
P        1.30088271       0.43058550       5.82322886       0.00000000 NULL
P        4.29006141       3.27851947       3.31625386       0.00000000 NULL
P        3.04870486       3.22172951       1.47571600       0.00000000 NULL
7
Lattice="4.550833745034237 0.1668949043466074 0.1300600184284206 2.360718299356204 4.6505012578796086 -0.9562632568389449 1.0826933193113386 -0.16198041971961355 6.796488107981802" Properties=species:S:1:pos:R:3:initial_magmoms:R:1:castep_labels:S:1 n_minim_iter=8 pbc="T T T"
P        4.55540987       1.45993896       1.59804047       0.00000000 NULL
P        2.32616071       0.14616058       2.15867948       0.00000000 NULL
P        5.68911777       4.17267953       5.76435989       0.00000000 NULL
P        3.99647655       2.72166599       5.73496638       0.00000000 NULL
P        1.26535794       0.13240532       5.81369450       0.00000000 NULL
P        4.33246864       3.07052464       3.09243220       0.00000000 NULL
P        3.06385893       3.08948323       1.27704040       0.00000000 NULL
