12
Lattice="3.413449999999999 0.0 3.1783010877802957e-16 0.0 6.5974200000000005 0.0 -1.5309597569328715 0.0 12.109496806835201" Properties=species:S:1:pos:R:3:initial_magmoms:R:1:castep_labels:S:1 n_minim_iter=1 pbc="T T T"
P        1.14529728       1.97450225       4.16345813       0.00000000 NULL
P        1.14529728       4.62291775       4.16345813       0.00000000 NULL
P        1.31247444       1.09989679      10.65307067       0.00000000 NULL
P        1.31247444       5.49752321      10.65307067       0.00000000 NULL
P        1.64740842       5.59225952       2.44322903       0.00000000 NULL
P        1.64740842       1.00516048       2.44322903       0.00000000 NULL
P       -0.15846230       1.02025076       7.70035757       0.00000000 NULL
P       -0.15846230       5.57716924       7.70035757       0.00000000 NULL
P        1.38026734       2.26825765       8.82348071       0.00000000 NULL
P        1.38026734       4.32916235       8.82348071       0.00000000 NULL
P       -0.31315368       4.30479610      10.33084665       0.00000000 NULL
P       -0.31315368       2.29262390      10.33084665       0.00000000 NULL
12
Lattice="3.4202718973197075 -2.310925288210693e-34 0.0002666774691200493 0.0 6.619023532755617 -4.796947895705752e-18 -1.5330733722785301 -8.80474870867758e-18 12.132231122236918" Properties=species:S:1:pos:R:3:initial_magmoms:R:1:castep_labels:S:1 n_minim_iter=2 pbc="T T T"
P        1.14789467       1.98109963       4.17152906       0.00000000 NULL
P        1.14789467       4.63792390       4.17152906       0.00000000 NULL
P        1.31603602       1.10339317      10.67358247       0.00000000 NULL
P        1.31603602       5.51563037      10.67358247       0.00000000 NULL
P        1.65090795       5.61036723       2.44785434       0.00000000 NULL
P        1.65090795       1.00865631       2.44785434       0.00000000 NULL
P       -0.15822187       1.02370907       7.71470992       0.00000000 NULL
P       -0.15822187       5.59531446       7.71470992       0.00000000 NULL
P        1.38374523       2.27538381       8.83999827       0.00000000 NULL
P        1.38374523       4.34363972       8.83999827       0.00000000 NULL
P       -0.31306372       4.31894012      10.35041639       0.00000000 NULL
P       -0.31306372       2.30008342      10.35041639       0.00000000 NULL
12
Lattice="3.567549136711307 -2.473065688513986e-34 0.006811939825083917 -9.164674659453828e-21 7.083431071455789 -4.9894601023133495e-18 -1.5759085370008084 -9.422512289126454e-18 12.616195592476698" Properties=species:S:1:pos:R:3:initial_magmoms:R:1:castep_labels:S:1 n_minim_iter=3 pbc="T T T"
P        1.20496363       2.12308095       4.34376481       0.00000000 NULL
P        1.20496363       4.96035012       4.34376481       0.00000000 NULL
P        1.39547729       1.17842242      11.11113732       0.00000000 NULL
P        1.39547729       5.90500865      11.11113732       0.00000000 NULL
P        1.72699514       5.99949425       2.54682140       0.00000000 NULL
P        1.72699514       1.08393683       2.54682140       0.00000000 NULL
P       -0.15130271       1.09805992       8.02034315       0.00000000 NULL
P       -0.15130271       5.98537115       8.02034315       0.00000000 NULL
P        1.46085885       2.42810339       9.19203769       0.00000000 NULL
P        1.46085885       4.65532768       9.19203769       0.00000000 NULL
P       -0.30877729       4.62303933      10.76735878       0.00000000 NULL
P       -0.30877729       2.46039174      10.76735878       0.00000000 NULL
12
Lattice="3.6164962201672433 1.101160055788865e-23 0.02305121589115677 -3.191563986434599e-20 7.099606942735305 -5.0236399492935915e-18 -1.5402515194153306 -9.444045310809503e-18 12.695348456744863" Properties=species:S:1:pos:R:3:initial_magmoms:R:1:castep_labels:S:1 n_minim_iter=4 pbc="T T T"
P        1.24186807       2.12909197       4.37861884       0.00000000 NULL
P        1.24186807       4.97051498       4.37861884       0.00000000 NULL
P        1.46650975       1.18027450      11.19617734       0.00000000 NULL
P        1.46650975       5.91933244      11.19617734       0.00000000 NULL
P        1.76160106       6.01260360       2.57246946       0.00000000 NULL
P        1.76160106       1.08700334       2.57246946       0.00000000 NULL
P       -0.11785180       1.10016942       8.07317191       0.00000000 NULL
P       -0.11785180       5.99943752       8.07317191       0.00000000 NULL
P        1.52279548       2.42853672       9.25846272       0.00000000 NULL
P        1.52279548       4.67107022       9.25846272       0.00000000 NULL
P       -0.26494021       4.63372950      10.84130010       0.00000000 NULL
P       -0.26494021       2.46587744      10.84130010       0.00000000 NULL
12
Lattice="3.669109419016691 5.20956349063772e-22 0.04602891410787657 -6.313921208873691e-20 7.0576121829718925 -5.047425886701992e-18 -1.4823336729369028 -9.388139725879135e-18 12.74557660192383" Properties=species:S:1:pos:R:3:initial_magmoms:R:1:castep_labels:S:1 n_minim_iter=5 pbc="T T T"
P        1.28865541       2.11810552       4.40643913       0.00000000 NULL
P        1.28865541       4.93950666       4.40643913       0.00000000 NULL
P        1.56035638       1.17268564      11.26139975       0.00000000 NULL
P        1.56035638       5.88492654      11.26139975       0.00000000 NULL
P        1.80240417       5.97624851       2.59656751       0.00000000 NULL
P        1.80240417       1.08136367       2.59656751       0.00000000 NULL
P       -0.06964566       1.09309756       8.10916474       0.00000000 NULL
P       -0.06964566       5.96451462       8.10916474       0.00000000 NULL
P        1.60347952       2.40710799       9.30786650       0.00000000 NULL
P        1.60347952       4.65050419       9.30786650       0.00000000 NULL
P       -0.20102968       4.60696633      10.89303588       0.00000000 NULL
P       -0.20102968       2.45064585      10.89303588       0.00000000 NULL
12
Lattice="3.746981893212539 -1.621877147439065e-19 0.08278494874282488 -1.1022309066136657e-19 6.9436646509126065 -3.037361568486868e-17 -1.3868650239520948 -5.4929029697733894e-17 12.793380197547874" Properties=species:S:1:pos:R:3:initial_magmoms:R:1:castep_labels:S:1 n_minim_iter=6 pbc="T T T"
P        1.36154341       2.08719127       4.43982663       0.00000000 NULL
P        1.36154341       4.85647338       4.43982663       0.00000000 NULL
P        1.70798257       1.15348390      11.33686179       0.00000000 NULL
P        1.70798257       5.79018075      11.33686179       0.00000000 NULL
P        1.86454630       5.87768388       2.62854275       0.00000000 NULL
P        1.86454630       1.06598077       2.62854275       0.00000000 NULL
P        0.00787420       1.07504809       8.14655052       0.00000000 NULL
P        0.00787420       5.86861656       8.14655052       0.00000000 NULL
P        1.72952255       2.35599113       9.36286106       0.00000000 NULL
P        1.72952255       4.58767352       9.36286106       0.00000000 NULL
P       -0.09784185       4.53505042      10.94802203       0.00000000 NULL
P       -0.09784185       2.40861423      10.94802203       0.00000000 NULL
12
Lattice="3.9195589606213685 -1.4773245328247989e-19 0.15754840434536582 -6.951763984153097e-19 6.700817002713728 -3.0774979436619567e-17 -1.1990376698925562 -5.300740483844777e-17 12.935120247242875" Properties=species:S:1:pos:R:3:initial_magmoms:R:1:castep_labels:S:1 n_minim_iter=7 pbc="T T T"
P        1.51473306       2.02543306       4.52451433       0.00000000 NULL
P        1.51473306       4.67538394       4.52451433       0.00000000 NULL
P        2.01430940       1.11472853      11.53102504       0.00000000 NULL
P        2.01430940       5.58608847      11.53102504       0.00000000 NULL
P        1.99787845       5.66208316       2.70138635       0.00000000 NULL
P        1.99787845       1.03873385       2.70138635       0.00000000 NULL
P        0.16529642       1.04011579       8.25215198       0.00000000 NULL
P        0.16529642       5.66070121       8.25215198       0.00000000 NULL
P        1.98948440       2.24259375       9.50310672       0.00000000 NULL
P        1.98948440       4.45822325       9.50310672       0.00000000 NULL
P        0.11163587       4.38871774      11.09880591       0.00000000 NULL
P        0.11163587       2.31209926      11.09880591       0.00000000 NULL
12
Lattice="3.905145722261683 -1.4139342252453476e-19 0.1662374999409298 -7.614576718050732e-19 6.657899679363303 -3.092290564860507e-17 -1.1617479298159477 -5.2667794107387594e-17 12.994509407214387" Properties=species:S:1:pos:R:3:initial_magmoms:R:1:castep_labels:S:1 n_minim_iter=8 pbc="T T T"
P        1.52002937       2.02485295       4.55078269       0.00000000 NULL
P        1.52002937       4.63304673       4.55078269       0.00000000 NULL
P        2.03816866       1.11258439      11.59568805       0.00000000 NULL
P        2.03816866       5.54531528      11.59568805       0.00000000 NULL
P        1.99769258       5.60980213       2.71696929       0.00000000 NULL
P        1.99769258       1.04809755       2.71696929       0.00000000 NULL
P        0.18609992       1.04286894       8.29495094       0.00000000 NULL
P        0.18609992       5.61503074       8.29495094       0.00000000 NULL
P        2.00248770       2.20553550       9.53946616       0.00000000 NULL
P        2.00248770       4.45236418       9.53946616       0.00000000 NULL
P        0.13998390       4.37874261      11.15644573       0.00000000 NULL
P        0.13998390       2.27915707      11.15644573       0.00000000 NULL
12
Lattice="3.9131579432897032 -8.895495307271604e-19 0.18072014907915876 -8.37028687561151e-19 6.517649770805924 -6.225001768733298e-17 -1.113963077090301 -1.1234093525769393e-16 13.068438100309688" Properties=species:S:1:pos:R:3:initial_magmoms:R:1:castep_labels:S:1 n_minim_iter=9 pbc="T T T"
P        1.54004168       1.99603353       4.58467061       0.00000000 NULL
P        1.54004168       4.52161624       4.58467061       0.00000000 NULL
P        2.08921182       1.09395961      11.67794743       0.00000000 NULL
P        2.08921182       5.42369016      11.67794743       0.00000000 NULL
P        2.01225446       5.47775472       2.73899594       0.00000000 NULL
P        2.01225446       1.03989505       2.73899594       0.00000000 NULL
P        0.21928068       1.03098465       8.34863223       0.00000000 NULL
P        0.21928068       5.48666512       8.34863223       0.00000000 NULL
P        2.03881532       2.13719257       9.58911178       0.00000000 NULL
P        2.03881532       4.38045721       9.58911178       0.00000000 NULL
P        0.18379649       4.30026114      11.22920027       0.00000000 NULL
P        0.18379649       2.21738863      11.22920027       0.00000000 NULL
12
Lattice="3.9318653685990483 -9.032211020221249e-19 0.18448200992664787 -9.019395230425856e-19 6.564050881185215 -6.254884738807468e-17 -1.1090079945151945 -1.1314194147898364e-16 13.129864475343929" Properties=species:S:1:pos:R:3:initial_magmoms:R:1:castep_labels:S:1 n_minim_iter=10 pbc="T T T"
P        1.55070233       2.01404181       4.60827843       0.00000000 NULL
P        1.55070233       4.55000907       4.60827843       0.00000000 NULL
P        2.10899313       1.10334588      11.73677054       0.00000000 NULL
P        2.10899313       5.46070501      11.73677054       0.00000000 NULL
P        2.02413406       5.51250413       2.75292589       0.00000000 NULL
P        2.02413406       1.05154675       2.75292589       0.00000000 NULL
P        0.22711715       1.04204009       8.38925833       0.00000000 NULL
P        0.22711715       5.52201079       8.38925833       0.00000000 NULL
P        2.05503209       2.14718793       9.63242230       0.00000000 NULL
P        2.05503209       4.41686295       9.63242230       0.00000000 NULL
P        0.19351722       4.33471008      11.28434885       0.00000000 NULL
P        0.19351722       2.22934080      11.28434885       0.00000000 NULL
12
Lattice="3.9280562108583528 -1.0867002666060007e-18 0.18677357967706928 -9.323295393179926e-19 6.5329687763098825 -6.94423687716075e-17 -1.0991700230247137 -1.2641074689003979e-16 13.12762538082419" Properties=species:S:1:pos:R:3:initial_magmoms:R:1:castep_labels:S:1 n_minim_iter=11 pbc="T T T"
P        1.55203708       2.00699996       4.60869065       0.00000000 NULL
P        1.55203708       4.52596882       4.60869065       0.00000000 NULL
P        2.11506177       1.09906457      11.73730270       0.00000000 NULL
P        2.11506177       5.43390421      11.73730270       0.00000000 NULL
P        2.02406068       5.48411698       2.75371890       0.00000000 NULL
P        2.02406068       1.04885180       2.75371890       0.00000000 NULL
P        0.23273865       1.03906006       8.38918571       0.00000000 NULL
P        0.23273865       5.49390871       8.38918571       0.00000000 NULL
P        2.05867041       2.13356916       9.63004436       0.00000000 NULL
P        2.05867041       4.39939962       9.63004436       0.00000000 NULL
P        0.20094793       4.31624061      11.28401522       0.00000000 NULL
P        0.20094793       2.21672817      11.28401522       0.00000000 NULL
12
Lattice="3.9298323754401023 -2.194471836890865e-18 0.18935300291174703 -2.867181193693402e-18 6.520660033234589 -7.248884465060777e-17 -1.0908159293870525 -1.318590589054378e-16 13.14080725569666" Properties=species:S:1:pos:R:3:initial_magmoms:R:1:castep_labels:S:1 n_minim_iter=12 pbc="T T T"
P        1.55557974       2.00597473       4.61467450       0.00000000 NULL
P        1.55557974       4.51468530       4.61467450       0.00000000 NULL
P        2.12427698       1.09808021      11.75186089       0.00000000 NULL
P        2.12427698       5.42257982      11.75186089       0.00000000 NULL
P        2.02690166       5.47114400       2.75766170       0.00000000 NULL
P        2.02690166       1.04951603       2.75766170       0.00000000 NULL
P        0.23874725       1.03943261       8.39895318       0.00000000 NULL
P        0.23874725       5.48122742       8.39895318       0.00000000 NULL
P        2.06524760       2.12581538       9.63872905       0.00000000 NULL
P        2.06524760       4.39484465       9.63872905       0.00000000 NULL
P        0.20870791       4.31045296      11.29710260       0.00000000 NULL
P        0.20870791       2.21020708      11.29710260       0.00000000 NULL
12
Lattice="4.025030221771136 -1.5804264661744075e-18 0.32115008351712415 -4.718983065827817e-18 5.948367571105458 -7.648470409243833e-17 -0.6659518607580956 -1.2027243657472928e-16 13.82541339584932" Properties=species:S:1:pos:R:3:initial_magmoms:R:1:castep_labels:S:1 n_minim_iter=13 pbc="T T T"
P        1.73778906       1.95505974       4.92374152       0.00000000 NULL
P        1.73778906       3.99330783       4.92374152       0.00000000 NULL
P        2.59801398       1.05149915      12.50636755       0.00000000 NULL
P        2.59801398       4.89686842      12.50636755       0.00000000 NULL
P        2.17418794       4.87261277       2.96150408       0.00000000 NULL
P        2.17418794       1.07575480       2.96150408       0.00000000 NULL
P        0.54733599       1.05430578       8.90698730       0.00000000 NULL
P        0.54733599       4.89406180       8.90698730       0.00000000 NULL
P        2.39885938       1.77154966      10.08577473       0.00000000 NULL
P        2.39885938       4.17681791      10.08577473       0.00000000 NULL
P        0.60641334       4.03621980      11.97753364       0.00000000 NULL
P        0.60641334       1.91214777      11.97753364       0.00000000 NULL
12
Lattice="4.2207118280615035 -3.1394096337510144e-18 0.3157560141049923 -6.360409970093345e-18 7.154151280245256 -7.393984096032435e-17 -0.772852542099437 -1.4454931748576343e-16 13.361224547806806" Properties=species:S:1:pos:R:3:initial_magmoms:R:1:castep_labels:S:1 n_minim_iter=14 pbc="T T T"
P        1.78726519       2.24629819       4.75702589       0.00000000 NULL
P        1.78726519       4.90785309       4.75702589       0.00000000 NULL
P        2.65936554       1.31003577      12.09739537       0.00000000 NULL
P        2.65936554       5.84411551      12.09739537       0.00000000 NULL
P        2.27362182       5.84870270       2.87148086       0.00000000 NULL
P        2.27362182       1.30544858       2.87148086       0.00000000 NULL
P        0.51800278       1.31123116       8.59000188       0.00000000 NULL
P        0.51800278       5.84292012       8.59000188       0.00000000 NULL
P        2.47325006       2.10701058       9.75969473       0.00000000 NULL
P        2.47325006       5.04714070       9.75969473       0.00000000 NULL
P        0.56880902       4.87293724      11.57855111       0.00000000 NULL
P        0.56880902       2.28121404      11.57855111       0.00000000 NULL
12
Lattice="3.901172825475474 -1.645523880388891e-18 0.2881086274238154 -3.9724020896845674e-18 6.231344706301255 -6.957591372611704e-17 -0.7276181273587413 -1.2584654659315533e-16 12.600294173202872" Properties=species:S:1:pos:R:3:initial_magmoms:R:1:castep_labels:S:1 n_minim_iter=15 pbc="T T T"
P        1.64730901       1.96076000       4.47785477       0.00000000 NULL
P        1.64730901       4.27058470       4.47785477       0.00000000 NULL
P        2.44328211       1.13955646      11.39333354       0.00000000 NULL
P        2.44328211       5.09178825      11.39333354       0.00000000 NULL
P        2.09883489       5.09866415       2.70608283       0.00000000 NULL
P        2.09883489       1.13268055       2.70608283       0.00000000 NULL
P        0.47217813       1.13567605       8.10366794       0.00000000 NULL
P        0.47217813       5.09566866       8.10366794       0.00000000 NULL
P        2.27498058       1.83061346       9.20016168       0.00000000 NULL
P        2.27498058       4.40073124       9.20016168       0.00000000 NULL
P        0.51706933       4.23958517      10.91522552       0.00000000 NULL
P        0.51706933       1.99175954      10.91522552       0.00000000 NULL
12
Lattice="4.0572624821942345 -1.487813869211149e-18 0.2698116949926675 -3.3131590324790388e-18 6.187372802799304 -7.221632818008401e-17 -0.8625354771836261 -1.2511591556383534e-16 13.078311877818589" Properties=species:S:1:pos:R:3:initial_magmoms:R:1:castep_labels:S:1 n_minim_iter=16 pbc="T T T"
P        1.67587092       1.95106083       4.64073484       0.00000000 NULL
P        1.67587092       4.23631198       4.64073484       0.00000000 NULL
P        2.44703576       1.12927086      11.80486999       0.00000000 NULL
P        2.44703576       5.05810195      11.80486999       0.00000000 NULL
P        2.16235135       5.06596110       2.78489774       0.00000000 NULL
P        2.16235135       1.12141171       2.78489774       0.00000000 NULL
P        0.42318655       1.12421681       8.40022113       0.00000000 NULL
P        0.42318655       5.06315600       8.40022113       0.00000000 NULL
P        2.29151930       1.81597238       9.52710656       0.00000000 NULL
P        2.29151930       4.37140042       9.52710656       0.00000000 NULL
P        0.44649753       4.20578892      11.32312589       0.00000000 NULL
P        0.44649753       1.98158388      11.32312589       0.00000000 NULL
12
Lattice="4.06583884414119 -1.3123008031220397e-18 0.25444319374939944 -2.8011570431861995e-18 6.025010489151367 -7.245555746145439e-17 -0.920903076455 -1.2188441314440365e-16 13.125747613636952" Properties=species:S:1:pos:R:3:initial_magmoms:R:1:castep_labels:S:1 n_minim_iter=17 pbc="T T T"
P        1.65891828       1.90201736       4.65181974       0.00000000 NULL
P        1.65891828       4.12299313       4.65181974       0.00000000 NULL
P        2.40179477       1.09884473      11.83434348       0.00000000 NULL
P        2.40179477       4.92616576      11.83434348       0.00000000 NULL
P        2.15640821       4.93453541       2.78321137       0.00000000 NULL
P        2.15640821       1.09047508       2.78321137       0.00000000 NULL
P        0.38785734       1.09267312       8.42631936       0.00000000 NULL
P        0.38785734       4.93233737       8.42631936       0.00000000 NULL
P        2.25681430       1.76691754       9.54999908       0.00000000 NULL
P        2.25681430       4.25809295       9.54999908       0.00000000 NULL
P        0.39864779       4.09336270      11.36038522       0.00000000 NULL
P        0.39864779       1.93164779      11.36038522       0.00000000 NULL
12
Lattice="4.113996251642923 7.36409680358087e-18 0.2364027079313921 1.3904112523603468e-17 5.909256604014942 -1.0007028250879601e-16 -1.0065021795003881 -1.804656341968331e-16 13.254177206997651" Properties=species:S:1:pos:R:3:initial_magmoms:R:1:castep_labels:S:1 n_minim_iter=18 pbc="T T T"
P        1.65114965       1.86718986       4.69096288       0.00000000 NULL
P        1.65114965       4.04206674       4.69096288       0.00000000 NULL
P        2.36407051       1.07825210      11.93396482       0.00000000 NULL
P        2.36407051       4.83100450      11.93396482       0.00000000 NULL
P        2.16838863       4.84019747       2.79477628       0.00000000 NULL
P        2.16838863       1.06905914       2.79477628       0.00000000 NULL
P        0.34396016       1.07074308       8.50271178       0.00000000 NULL
P        0.34396016       4.83851352       8.50271178       0.00000000 NULL
P        2.23206228       1.73132251       9.62857158       0.00000000 NULL
P        2.23206228       4.17793409       9.62857158       0.00000000 NULL
P        0.33839523       4.01384004      11.46698009       0.00000000 NULL
P        0.33839523       1.89541656      11.46698009       0.00000000 NULL
12
Lattice="4.155640722448989 6.887448930718836e-18 0.21689389789875335 1.4084062288643312e-17 5.828907864642768 -1.0051728183229505e-16 -1.094389179953962 -1.7772408053039335e-16 13.319169289920216" Properties=species:S:1:pos:R:3:initial_magmoms:R:1:castep_labels:S:1 n_minim_iter=19 pbc="T T T"
P        1.63876524       1.84192506       4.70809140       0.00000000 NULL
P        1.63876524       3.98698280       4.70809140       0.00000000 NULL
P        2.31966150       1.06713262      11.97565950       0.00000000 NULL
P        2.31966150       4.76177525      11.97565950       0.00000000 NULL
P        2.17674022       4.77230584       2.79207229       0.00000000 NULL
P        2.17674022       1.05660203       2.79207229       0.00000000 NULL
P        0.29607173       1.05776731       8.53874900       0.00000000 NULL
P        0.29607173       4.77114055       8.53874900       0.00000000 NULL
P        2.20243984       1.70580227       9.66066363       0.00000000 NULL
P        2.20243984       4.12310559       9.66066363       0.00000000 NULL
P        0.27339102       3.96138546      11.51896450       0.00000000 NULL
P        0.27339102       1.86752240      11.51896450       0.00000000 NULL
