24
Lattice="7.532120000000005 1.0221878505367033e-31 -1.4039212028580546e-30 1.1313235288908193e-31 8.336299999999996 2.3187829517665584e-30 -3.7660600000000026 -4.168149999999997 8.469304068555154" Properties=species:S:1:pos:R:3:initial_magmoms:R:1:castep_labels:S:1 n_minim_iter=1 pbc="T T T"
P        5.61515705       1.04781622       3.85080962       0.00000000 NULL
P        1.84909705       3.12033294       4.61849613       0.00000000 NULL
P       -1.84909704       5.21596622       4.61849613       0.00000000 NULL
P        1.91696296      -1.04781706       3.85080962       0.00000000 NULL
P        1.46026378       2.48681123       1.47396465       0.00000000 NULL
P       -2.30579622       1.68133793       6.99534110       0.00000000 NULL
P        2.30579623      -1.68133877       6.99534110       0.00000000 NULL
P        6.07185623       5.84948793       1.47396465       0.00000000 NULL
P       -0.93594387      -3.16936414       7.32838803       0.00000000 NULL
P        2.83011613       7.33751331       1.14091772       0.00000000 NULL
P        4.70200387       0.99878586       1.14091772       0.00000000 NULL
P        0.93594387       3.16936331       7.32838803       0.00000000 NULL
P        3.82174082       1.85147680       5.47886987       0.00000000 NULL
P        0.05568082       2.31667237       2.99043588       0.00000000 NULL
P       -0.05568082       6.01962680       2.99043588       0.00000000 NULL
P        3.71037918      -1.85147763       5.47886987       0.00000000 NULL
P        0.64981482       6.81061288       1.23709092       0.00000000 NULL
P       -3.11624518      -2.64246371       7.23221483       0.00000000 NULL
P        3.11624518       2.64246288       7.23221483       0.00000000 NULL
P        6.88230518       1.52568629       1.23709092       0.00000000 NULL
P        1.60078414       5.25459831       3.93958148       0.00000000 NULL
P        5.36684414      -1.08644914       4.52972427       0.00000000 NULL
P        2.16527587       1.08644831       4.52972427       0.00000000 NULL
P       -1.60078413       3.08170086       3.93958148       0.00000000 NULL
24
Lattice="7.542999712095385 -7.721101832610958e-18 6.6832656169353915e-18 -8.545458809365046e-18 8.35567373942746 8.756357597091643e-18 -3.7714998560476927 -4.177836869713729 8.477882284523464" Properties=species:S:1:pos:R:3:initial_magmoms:R:1:castep_labels:S:1 n_minim_iter=2 pbc="T T T"
P        5.62311060       1.05008854       3.85463848       0.00000000 NULL
P        1.85161074       3.12774750       4.62324549       0.00000000 NULL
P       -1.85161073       5.22792541       4.62324549       0.00000000 NULL
P        1.91988912      -1.05008937       3.85463848       0.00000000 NULL
P        1.46242681       2.49264136       1.47532911       0.00000000 NULL
P       -2.30907305       1.68519468       7.00255486       0.00000000 NULL
P        2.30907306      -1.68519551       7.00255486       0.00000000 NULL
P        6.08057291       5.86303155       1.47532911       0.00000000 NULL
P       -0.93726707      -3.17677259       7.33577197       0.00000000 NULL
P        2.83423278       7.35460862       1.14211200       0.00000000 NULL
P        4.70876693       1.00106428       1.14211200       0.00000000 NULL
P        0.93726708       3.17677175       7.33577197       0.00000000 NULL
P        3.82745883       1.85573250       5.48420910       0.00000000 NULL
P        0.05595898       2.32210354       2.99367488       0.00000000 NULL
P       -0.05595897       6.03356937       2.99367488       0.00000000 NULL
P        3.71554088      -1.85573333       5.48420910       0.00000000 NULL
P        0.65078549       6.82651098       1.23811904       0.00000000 NULL
P       -3.12071437      -2.64867494       7.23976493       0.00000000 NULL
P        3.12071437       2.64867411       7.23976493       0.00000000 NULL
P        6.89221423       1.52916193       1.23811904       0.00000000 NULL
P        1.60318485       5.26659830       3.94362913       0.00000000 NULL
P        5.37468471      -1.08876226       4.53425484       0.00000000 NULL
P        2.16831501       1.08876143       4.53425484       0.00000000 NULL
P       -1.60318485       3.08907461       3.94362913       0.00000000 NULL
24
Lattice="7.710814898044096 -1.0304930915842147e-16 6.393088247437253e-17 -1.1401456232181027e-16 8.668069426084736 6.136875789961629e-17 -3.855407449022048 -4.334034713042367 8.60783416439769" Properties=species:S:1:pos:R:3:initial_magmoms:R:1:castep_labels:S:1 n_minim_iter=3 pbc="T T T"
P        5.74558556       1.08667420       3.91252987       0.00000000 NULL
P        1.89017811       3.24735965       4.69530601       0.00000000 NULL
P       -1.89017811       5.42070892       4.69530601       0.00000000 NULL
P        1.96522934      -1.08667507       3.91252987       0.00000000 NULL
P        1.49579520       2.58667993       1.49583676       0.00000000 NULL
P       -2.35961225       1.74735392       7.11199912       0.00000000 NULL
P        2.35961225      -1.74735478       7.11199912       0.00000000 NULL
P        6.21501970       6.08138863       1.49583676       0.00000000 NULL
P       -0.95766476      -3.29627489       7.44754358       0.00000000 NULL
P        2.89774269       7.63030874       1.16029229       0.00000000 NULL
P        4.81307222       1.03775982       1.16029229       0.00000000 NULL
P        0.95766477       3.29627403       7.44754358       0.00000000 NULL
P        3.91586702       1.92432379       5.56480969       0.00000000 NULL
P        0.06045957       2.40971006       3.04302619       0.00000000 NULL
P       -0.06045957       6.25835851       3.04302619       0.00000000 NULL
P        3.79494788      -1.92432466       5.56480969       0.00000000 NULL
P        0.66577771       7.08289223       1.25341649       0.00000000 NULL
P       -3.18962974      -2.74885838       7.35441939       0.00000000 NULL
P        3.18962975       2.74885752       7.35441939       0.00000000 NULL
P        7.04503720       1.58517633       1.25341649       0.00000000 NULL
P        1.64029945       5.46003003       4.00500342       0.00000000 NULL
P        5.49570689      -1.12599618       4.60283246       0.00000000 NULL
P        2.21510801       1.12599532       4.60283246       0.00000000 NULL
P       -1.64029944       3.20803853       4.00500342       0.00000000 NULL
24
Lattice="7.6734110903792905 -2.4726813612725273e-17 6.317321725990529e-17 -2.3281236481088968e-17 8.82778396470471 1.0990529405014197e-17 -3.8367055451896452 -4.413891982352354 8.56315642347395" Properties=species:S:1:pos:R:3:initial_magmoms:R:1:castep_labels:S:1 n_minim_iter=4 pbc="T T T"
P        5.71518541       1.10535763       3.89088177       0.00000000 NULL
P        1.87847987       3.30853347       4.67227636       0.00000000 NULL
P       -1.87847986       5.51924961       4.67227636       0.00000000 NULL
P        1.95822568      -1.10535851       3.89088177       0.00000000 NULL
P        1.48821862       2.63484095       1.48639057       0.00000000 NULL
P       -2.34848693       1.77905015       7.07676756       0.00000000 NULL
P        2.34848693      -1.77905103       7.07676756       0.00000000 NULL
P        6.18519248       6.19294213       1.48639057       0.00000000 NULL
P       -0.95311274      -3.35779756       7.40774745       0.00000000 NULL
P        2.88359281       7.77168866       1.15541068       0.00000000 NULL
P        4.78981829       1.05609443       1.15541068       0.00000000 NULL
P        0.95311274       3.35779668       7.40774745       0.00000000 NULL
P        3.89920037       1.95914470       5.53297873       0.00000000 NULL
P        0.06249482       2.45474640       3.03017940       0.00000000 NULL
P       -0.06249482       6.37303669       3.03017940       0.00000000 NULL
P        3.77421073      -1.95914558       5.53297873       0.00000000 NULL
P        0.66261855       7.21401460       1.24418139       0.00000000 NULL
P       -3.17408700      -2.80012350       7.31897673       0.00000000 NULL
P        3.17408700       2.80012262       7.31897673       0.00000000 NULL
P        7.01079255       1.61376848       1.24418139       0.00000000 NULL
P        1.63323084       5.55901123       3.98471104       0.00000000 NULL
P        5.46993638      -1.14512012       4.57844709       0.00000000 NULL
P        2.20347471       1.14511924       4.57844709       0.00000000 NULL
P       -1.63323083       3.26877186       3.98471104       0.00000000 NULL
24
Lattice="7.523200224050715 9.143837298870583e-18 6.184315393259455e-17 1.7971994736853508e-17 9.396119152138123 1.112633084800036e-16 -3.7616001120253575 -4.698059576069061 8.336593241032851" Properties=species:S:1:pos:R:3:initial_magmoms:R:1:castep_labels:S:1 n_minim_iter=5 pbc="T T T"
P        5.59385690       1.17303823       3.78252256       0.00000000 NULL
P        1.83225679       3.52502041       4.55407235       0.00000000 NULL
P       -1.83225678       5.87109780       4.55407235       0.00000000 NULL
P        1.92934333      -1.17303916       3.78252256       0.00000000 NULL
P        1.45828735       2.80626954       1.44016784       0.00000000 NULL
P       -2.30331276       1.89178910       6.89642706       0.00000000 NULL
P        2.30331276      -1.89179004       6.89642706       0.00000000 NULL
P        6.06491288       6.58984868       1.44016784       0.00000000 NULL
P       -0.93486346      -3.57723977       7.20670252       0.00000000 NULL
P        2.82673665       8.27529841       1.12989238       0.00000000 NULL
P        4.69646358       1.12081981       1.12989238       0.00000000 NULL
P        0.93486347       3.57723883       7.20670252       0.00000000 NULL
P        3.83162930       2.08269923       5.37464986       0.00000000 NULL
P        0.07002918       2.61535941       2.96194504       0.00000000 NULL
P       -0.07002918       6.78075881       2.96194504       0.00000000 NULL
P        3.69157093      -2.08270017       5.37464986       0.00000000 NULL
P        0.64988117       7.68142069       1.20073495       0.00000000 NULL
P       -3.11171895      -2.98336205       7.13585995       0.00000000 NULL
P        3.11171895       2.98336111       7.13585995       0.00000000 NULL
P        6.87331906       1.71469753       1.20073495       0.00000000 NULL
P        1.60548634       5.91215701       3.88126893       0.00000000 NULL
P        5.36708645      -1.21409837       4.45532597       0.00000000 NULL
P        2.15611378       1.21409743       4.45532597       0.00000000 NULL
P       -1.60548633       3.48396121       3.88126893       0.00000000 NULL
24
Lattice="7.56082484030212 4.579870228807983e-18 6.372019486648742e-17 1.2183074606388314e-17 9.543083297180043 -1.1780387279360025e-17 -3.78041242015106 -4.771541648590021 8.118257299625478" Properties=species:S:1:pos:R:3:initial_magmoms:R:1:castep_labels:S:1 n_minim_iter=6 pbc="T T T"
P        5.61339697       1.19236739       3.67714499       0.00000000 NULL
P        1.83298455       3.57917331       4.44111393       0.00000000 NULL
P       -1.83298455       5.96390904       4.44111393       0.00000000 NULL
P        1.94742787      -1.19236834       3.67714499       0.00000000 NULL
P        1.46824337       2.85141076       1.39291193       0.00000000 NULL
P       -2.31216905       1.92012994       6.72534698       0.00000000 NULL
P        2.31216905      -1.92013089       6.72534698       0.00000000 NULL
P        6.09258147       6.69167159       1.39291193       0.00000000 NULL
P       -0.94001349      -3.63680911       7.01039191       0.00000000 NULL
P        2.84039893       8.40834981       1.10786701       0.00000000 NULL
P        4.72042592       1.13473254       1.10786701       0.00000000 NULL
P        0.94001350       3.63680816       7.01039191       0.00000000 NULL
P        3.85810121       2.11306365       5.21862130       0.00000000 NULL
P        0.07768879       2.65847705       2.89963762       0.00000000 NULL
P       -0.07768878       6.88460530       2.89963762       0.00000000 NULL
P        3.70272364      -2.11306460       5.21862130       0.00000000 NULL
P        0.65340493       7.80721969       1.15759290       0.00000000 NULL
P       -3.12700749      -3.03567899       6.96066602       0.00000000 NULL
P        3.12700750       3.03567804       6.96066602       0.00000000 NULL
P        6.90741992       1.73586266       1.15759290       0.00000000 NULL
P        1.62063503       6.00327118       3.78222313       0.00000000 NULL
P        5.40104745      -1.23173048       4.33603579       0.00000000 NULL
P        2.15977740       1.23172953       4.33603579       0.00000000 NULL
P       -1.62063502       3.53981117       3.78222313       0.00000000 NULL
24
Lattice="7.6055310750256515 -4.710826653875618e-18 5.918291325660612e-17 5.556500274995514e-19 9.498471932166604 7.180029091563963e-17 -3.8027655375128258 -4.749235966083301 8.018451315933419" Properties=species:S:1:pos:R:3:initial_magmoms:R:1:castep_labels:S:1 n_minim_iter=7 pbc="T T T"
P        5.64186607       1.18705429       3.62824671       0.00000000 NULL
P        1.83910053       3.56218073       4.39020621       0.00000000 NULL
P       -1.83910053       5.93629025       4.39020621       0.00000000 NULL
P        1.96366501      -1.18705523       3.62824671       0.00000000 NULL
P        1.47903787       2.83891925       1.37019924       0.00000000 NULL
P       -2.32372767       1.91031577       6.64825367       0.00000000 NULL
P        2.32372767      -1.91031672       6.64825367       0.00000000 NULL
P        6.12649321       6.65955174       1.37019924       0.00000000 NULL
P       -0.94650986      -3.62190898       6.91955474       0.00000000 NULL
P        2.85625568       8.37114400       1.09889818       0.00000000 NULL
P        4.74927540       1.12732699       1.09889818       0.00000000 NULL
P        0.94650986       3.62190803       6.91955474       0.00000000 NULL
P        3.88400741       2.10135770       5.14568068       0.00000000 NULL
P        0.08124187       2.64787732       2.87277223       0.00000000 NULL
P       -0.08124186       6.85059366       2.87277223       0.00000000 NULL
P        3.72152367      -2.10135864       5.14568068       0.00000000 NULL
P        0.65777127       7.77389543       1.13672677       0.00000000 NULL
P       -3.14499427      -3.02466041       6.88172614       0.00000000 NULL
P        3.14499428       3.02465946       6.88172614       0.00000000 NULL
P        6.94775981       1.72457556       1.13672677       0.00000000 NULL
P        1.63372976       5.97454498       3.73682200       0.00000000 NULL
P        5.43649530      -1.22530996       4.28163092       0.00000000 NULL
P        2.16903578       1.22530902       4.28163092       0.00000000 NULL
P       -1.63372976       3.52392600       3.73682200       0.00000000 NULL
24
Lattice="7.649832503906132 -1.4538915184730812e-17 5.4310637682098677e-17 -1.1713706951259492e-17 9.501068333045858 4.9057432246145956e-17 -3.824916251953066 -4.750534166522928 7.964259992312311" Properties=species:S:1:pos:R:3:initial_magmoms:R:1:castep_labels:S:1 n_minim_iter=8 pbc="T T T"
P        5.67130164       1.18712468       3.60124067       0.00000000 NULL
P        1.84638538       3.56340854       4.36302091       0.00000000 NULL
P       -1.84638538       5.93765885       4.36302091       0.00000000 NULL
P        1.97853087      -1.18712563       3.60124067       0.00000000 NULL
P        1.48913812       2.84025805       1.35722080       0.00000000 NULL
P       -2.33577814       1.91027517       6.60704078       0.00000000 NULL
P        2.33577814      -1.91027612       6.60704078       0.00000000 NULL
P        6.16069439       6.66080934       1.35722080       0.00000000 NULL
P       -0.95288457      -3.62436044       6.86965552       0.00000000 NULL
P        2.87203168       8.37489366       1.09460606       0.00000000 NULL
P        4.77780083       1.12617373       1.09460606       0.00000000 NULL
P        0.95288457       3.62435949       6.86965552       0.00000000 NULL
P        3.90870359       2.10040276       5.10512085       0.00000000 NULL
P        0.08378734       2.65013046       2.85914072       0.00000000 NULL
P       -0.08378734       6.85093693       2.85914072       0.00000000 NULL
P        3.74112891      -2.10040371       5.10512085       0.00000000 NULL
P        0.66209413       7.77814765       1.12452318       0.00000000 NULL
P       -3.16282212      -3.02761443       6.83973839       0.00000000 NULL
P        3.16282213       3.02761348       6.83973839       0.00000000 NULL
P        6.98773838       1.72291973       1.12452318       0.00000000 NULL
P        1.64539780       5.97555396       3.71217722       0.00000000 NULL
P        5.47031405      -1.22502075       4.25208436       0.00000000 NULL
P        2.17951846       1.22501980       4.25208436       0.00000000 NULL
P       -1.64539779       3.52551342       3.71217722       0.00000000 NULL
24
Lattice="7.659891495442531 -1.2428430113450233e-17 4.7197041536417415e-17 -9.118700815300052e-18 9.495382041374262 5.095763376764102e-17 -3.8299457477212653 -4.74769102068713 7.923978151472831" Properties=species:S:1:pos:R:3:initial_magmoms:R:1:castep_labels:S:1 n_minim_iter=9 pbc="T T T"
P        5.67683527       1.18619931       3.58168061       0.00000000 NULL
P        1.84688952       3.56149077       4.34229912       0.00000000 NULL
P       -1.84688951       5.93389033       4.34229912       0.00000000 NULL
P        1.98305624      -1.18620025       3.58168061       0.00000000 NULL
P        1.49181582       2.83881324       1.34841274       0.00000000 NULL
P       -2.33812993       1.90887683       6.57556699       0.00000000 NULL
P        2.33812993      -1.90887778       6.57556699       0.00000000 NULL
P        6.16807568       6.65656785       1.34841274       0.00000000 NULL
P       -0.95474421      -3.62297740       6.83318854       0.00000000 NULL
P        2.87520154       8.37066747       1.09079119       0.00000000 NULL
P        4.78468996       1.12471362       1.09079119       0.00000000 NULL
P        0.95474422       3.62297645       6.83318854       0.00000000 NULL
P        3.91488187       2.09823053       5.07628504       0.00000000 NULL
P        0.08493612       2.64945954       2.84769469       0.00000000 NULL
P       -0.08493612       6.84592156       2.84769469       0.00000000 NULL
P        3.74500963      -2.09823148       5.07628504       0.00000000 NULL
P        0.66326761       7.77458936       1.11643571       0.00000000 NULL
P       -3.16667813      -3.02689928       6.80754402       0.00000000 NULL
P        3.16667814       3.02689834       6.80754402       0.00000000 NULL
P        6.99662389       1.72079174       1.11643571       0.00000000 NULL
P        1.64857470       5.97166654       3.69366480       0.00000000 NULL
P        5.47852045      -1.22397646       4.23031493       0.00000000 NULL
P        2.18137105       1.22397552       4.23031493       0.00000000 NULL
P       -1.64857469       3.52371456       3.69366480       0.00000000 NULL
24
Lattice="7.677572085718848 -1.5601428733619068e-17 3.7939757817488134e-17 -1.3074412582291666e-17 9.494556129003737 4.19484707124312e-17 -3.838786042859424 -4.7472780645018675 7.8911900254927" Properties=species:S:1:pos:R:3:initial_magmoms:R:1:castep_labels:S:1 n_minim_iter=10 pbc="T T T"
P        5.68799521       1.18580466       3.56554442       0.00000000 NULL
P        1.84920917       3.56147246       4.32564718       0.00000000 NULL
P       -1.84920916       5.93308272       4.32564718       0.00000000 NULL
P        1.98957688      -1.18580561       3.56554442       0.00000000 NULL
P        1.49602919       2.83883418       1.34089928       0.00000000 NULL
P       -2.34275685       1.90844293       6.55029232       0.00000000 NULL
P        2.34275686      -1.90844388       6.55029232       0.00000000 NULL
P        6.18154290       6.65572100       1.34089928       0.00000000 NULL
P       -0.95758201      -3.62345061       6.80321423       0.00000000 NULL
P        2.88120403       8.37072773       1.08797737       0.00000000 NULL
P        4.79636806       1.12382745       1.08797737       0.00000000 NULL
P        0.95758202       3.62344967       6.80321423       0.00000000 NULL
P        3.92493461       2.09708836       5.05229688       0.00000000 NULL
P        0.08614857       2.65018876       2.83889472       0.00000000 NULL
P       -0.08614856       6.84436642       2.83889472       0.00000000 NULL
P        3.75263748      -2.09708931       5.05229688       0.00000000 NULL
P        0.66513381       7.77502132       1.10941810       0.00000000 NULL
P       -3.17365223      -3.02774420       6.78177350       0.00000000 NULL
P        3.17365223       3.02774325       6.78177350       0.00000000 NULL
P        7.01243828       1.71953386       1.10941810       0.00000000 NULL
P        1.65336505       5.97079349       3.67862709       0.00000000 NULL
P        5.49215109      -1.22351637       4.21256451       0.00000000 NULL
P        2.18542100       1.22351543       4.21256451       0.00000000 NULL
P       -1.65336504       3.52376169       3.67862709       0.00000000 NULL
24
Lattice="7.754508846077045 -2.7991324437069075e-17 1.4395325435651844e-17 -2.854077728764889e-17 9.488039623717107 1.4627736479739504e-16 -3.8772544230385226 -4.744019811858553 7.741367326233697" Properties=species:S:1:pos:R:3:initial_magmoms:R:1:castep_labels:S:1 n_minim_iter=11 pbc="T T T"
P        5.73583597       1.18340532       3.49196028       0.00000000 NULL
P        1.85858155       3.56061355       4.24940859       0.00000000 NULL
P       -1.85858155       5.92742513       4.24940859       0.00000000 NULL
P        2.01867288      -1.18340626       3.49196028       0.00000000 NULL
P        1.51458111       2.83807792       1.30678662       0.00000000 NULL
P       -2.36267332       1.90594095       6.43458225       0.00000000 NULL
P        2.36267332      -1.90594190       6.43458225       0.00000000 NULL
P        6.23992775       6.64996076       1.30678662       0.00000000 NULL
P       -0.97036881      -3.62458350       6.66636178       0.00000000 NULL
P        2.90688562       8.36860237       1.07500709       0.00000000 NULL
P        4.84762324       1.11943631       1.07500709       0.00000000 NULL
P        0.97036881       3.62458256       6.66636178       0.00000000 NULL
P        3.96882433       2.09103891       4.94307471       0.00000000 NULL
P        0.09156991       2.65297996       2.79829416       0.00000000 NULL
P       -0.09156990       6.83505872       2.79829416       0.00000000 NULL
P        3.78568452      -2.09103985       4.94307471       0.00000000 NULL
P        0.67347246       7.77473681       1.07755739       0.00000000 NULL
P       -3.20378196      -3.03071794       6.66381147       0.00000000 NULL
P        3.20378197       3.03071700       6.66381147       0.00000000 NULL
P        7.08103639       1.71330187       1.07755739       0.00000000 NULL
P        1.67425259       5.96501914       3.60978745       0.00000000 NULL
P        5.55150702      -1.22100027       4.13158142       0.00000000 NULL
P        2.20300183       1.22099933       4.13158142       0.00000000 NULL
P       -1.67425259       3.52301954       3.60978745       0.00000000 NULL
24
Lattice="7.926806294545427 -4.597070326849708e-16 -1.3021415759009026e-15 -5.574755293581924e-16 9.467463077268167 1.177101718637045e-15 -3.9634031472727145 -4.733731538634082 7.495264768304175" Properties=species:S:1:pos:R:3:initial_magmoms:R:1:castep_labels:S:1 n_minim_iter=12 pbc="T T T"
P        5.84142922       1.17485975       3.36921870       0.00000000 NULL
P        1.87802607       3.55887084       4.12604756       0.00000000 NULL
P       -1.87802606       5.90859129       4.12604756       0.00000000 NULL
P        2.08537708      -1.17486069       3.36921870       0.00000000 NULL
P        1.55645002       2.83431758       1.24751173       0.00000000 NULL
P       -2.40695312       1.89941302       6.24775453       0.00000000 NULL
P        2.40695313      -1.89941396       6.24775453       0.00000000 NULL
P        6.37035628       6.63314456       1.24751173       0.00000000 NULL
P       -1.00133520      -3.62460621       6.43825956       0.00000000 NULL
P        2.96206795       8.35833681       1.05700670       0.00000000 NULL
P        4.96473835       1.10912532       1.05700670       0.00000000 NULL
P        1.00133520       3.62460527       6.43825956       0.00000000 NULL
P        4.06562304       2.07448898       4.75901170       0.00000000 NULL
P        0.10221989       2.65924162       2.73625456       0.00000000 NULL
P       -0.10221989       6.80822051       2.73625456       0.00000000 NULL
P        3.86118326      -2.07448992       4.75901170       0.00000000 NULL
P        0.69354442       7.76877920       1.02050920       0.00000000 NULL
P       -3.26985873      -3.03504861       6.47475706       0.00000000 NULL
P        3.26985873       3.03504766       6.47475706       0.00000000 NULL
P        7.23326188       1.69868293       1.02050920       0.00000000 NULL
P        1.71867661       5.94770712       3.49636914       0.00000000 NULL
P        5.68207976      -1.21397653       3.99889712       0.00000000 NULL
P        2.24472654       1.21397559       3.99889712       0.00000000 NULL
P       -1.71867660       3.51975501       3.49636914       0.00000000 NULL
24
Lattice="7.898406839876281 -4.615703687397297e-16 -1.3202167753988762e-15 -5.609287600060769e-16 9.411853690539727 1.1761116182423012e-15 -3.9492034199381414 -4.705926845269862 7.3807151745718915" Properties=species:S:1:pos:R:3:initial_magmoms:R:1:castep_labels:S:1 n_minim_iter=13 pbc="T T T"
P        5.81392570       1.16533439       3.31512853       0.00000000 NULL
P        1.86472228       3.54059152       4.06558811       0.00000000 NULL
P       -1.86472227       5.87126123       4.06558811       0.00000000 NULL
P        2.08448115      -1.16533533       3.31512853       0.00000000 NULL
P        1.55259512       2.81807044       1.22406612       0.00000000 NULL
P       -2.39660830       1.88785546       6.15665053       0.00000000 NULL
P        2.39660831      -1.88785640       6.15665053       0.00000000 NULL
P        6.34581173       6.59378231       1.22406612       0.00000000 NULL
P       -1.00136900      -3.60526066       6.33580302       0.00000000 NULL
P        2.94783442       8.31118656       1.04491363       0.00000000 NULL
P        4.95057243       1.10066619       1.04491363       0.00000000 NULL
P        1.00136901       3.60525972       6.33580302       0.00000000 NULL
P        4.05259817       2.05844758       4.68031814       0.00000000 NULL
P        0.10339475       2.64747832       2.70039850       0.00000000 NULL
P       -0.10339474       6.76437443       2.70039850       0.00000000 NULL
P        3.84580868      -2.05844852       4.68031814       0.00000000 NULL
P        0.69300115       7.72566275       0.99925057       0.00000000 NULL
P       -3.25620227      -3.01973684       6.38146607       0.00000000 NULL
P        3.25620227       3.01973590       6.38146607       0.00000000 NULL
P        7.20540569       1.68619000       0.99925057       0.00000000 NULL
P        1.71305851       5.91142145       3.44279272       0.00000000 NULL
P        5.66226193      -1.20549554       3.93792392       0.00000000 NULL
P        2.23614492       1.20549460       3.93792392       0.00000000 NULL
P       -1.71305850       3.50043131       3.44279272       0.00000000 NULL
24
Lattice="7.959158818414996 -4.494792323513869e-16 -1.3281662257542267e-15 -5.497827018144027e-16 9.429865305175372 1.165008443955545e-15 -3.9795794092074988 -4.7149326525876845 7.3980103353575855" Properties=species:S:1:pos:R:3:initial_magmoms:R:1:castep_labels:S:1 n_minim_iter=14 pbc="T T T"
P        5.85645999       1.16644317       3.32219124       0.00000000 NULL
P        1.87688058       3.54848854       4.07582057       0.00000000 NULL
P       -1.87688058       5.88137582       4.07582057       0.00000000 NULL
P        2.10269883      -1.16644411       3.32219124       0.00000000 NULL
P        1.56553342       2.82374119       1.22536451       0.00000000 NULL
P       -2.41404599       1.89119053       6.17264730       0.00000000 NULL
P        2.41404600      -1.89119147       6.17264730       0.00000000 NULL
P        6.39362540       6.60612318       1.22536451       0.00000000 NULL
P       -1.01011565      -3.61285117       6.34946193       0.00000000 NULL
P        2.96946376       8.32778288       1.04854988       0.00000000 NULL
P        4.98969507       1.10208148       1.04854988       0.00000000 NULL
P        1.01011566       3.61285023       6.34946193       0.00000000 NULL
P        4.08432773       2.06102187       4.68921617       0.00000000 NULL
P        0.10474832       2.65390984       2.70879564       0.00000000 NULL
P       -0.10474831       6.77595452       2.70879564       0.00000000 NULL
P        3.87483110      -2.06102281       4.68921617       0.00000000 NULL
P        0.69906555       7.74146039       0.99966261       0.00000000 NULL
P       -3.28051386      -3.02652868       6.39834920       0.00000000 NULL
P        3.28051387       3.02652774       6.39834920       0.00000000 NULL
P        7.26009327       1.68840397       0.99966261       0.00000000 NULL
P        1.72655052       5.92201995       3.45081417       0.00000000 NULL
P        5.70612993      -1.20708824       3.94719763       0.00000000 NULL
P        2.25302889       1.20708730       3.94719763       0.00000000 NULL
P       -1.72655052       3.50784441       3.45081417       0.00000000 NULL
24
Lattice="7.97088676049526 -4.504055761934197e-16 -1.3300732412855269e-15 -5.520914559102078e-16 9.422762367039121 1.1706659371366123e-15 -3.985443380247631 -4.711381183519559 7.3783275040082525" Properties=species:S:1:pos:R:3:initial_magmoms:R:1:castep_labels:S:1 n_minim_iter=15 pbc="T T T"