14
Lattice="3.2964858197744946 0.1877705192195792 -0.5063249128101898 1.4769895811624731 5.210068927488668 1.0512203009923835 -1.1496693470524324 3.972488191496185 17.368152005300267" Properties=species:S:1:pos:R:3:initial_magmoms:R:1:castep_labels:S:1:forces:R:3 n_minim_iter=1 energy=-76.245533958943 stress="0.0009132550562198403 -0.0009202390294636739 0.000860783843628734 -0.0009202390294636739 -0.002200719443211375 0.0022908163545873233 0.000860783843628734 0.0022908163545873233 -0.006572467302021597" free_energy=-76.245533958943 pbc="T T T"
P        2.20542408       5.53534003      13.09212311       0.00000000 NULL       0.06127800       0.15561000      -0.03592000
P        1.53989810       3.30197047       3.02099707       0.00000000 NULL       0.22487500      -0.22761300       0.12884600
P        1.17280330       3.55903428      10.38453385       0.00000000 NULL      -0.11918100       0.07962600       0.08202300
P        1.65836496       5.35294523       4.50175597       0.00000000 NULL       0.03040600      -0.13408400       0.14613200
P        1.58218069       0.99581229       1.92643178       0.00000000 NULL      -0.03762400       0.06779100      -0.12146300
P        0.93883998       5.99285794      16.07928647       0.00000000 NULL      -0.00516400      -0.11451300      -0.09431400
P        2.97481655       4.27505351       1.62801877       0.00000000 NULL       0.02142500       0.01468800      -0.20834000
P        2.64166806       6.83646417      10.07845912       0.00000000 NULL      -0.21496900      -0.03663000       0.18479600
P        1.86928062       6.98081717       6.11606199       0.00000000 NULL      -0.02722300       0.05173900       0.04422300
P        0.58478591       6.84842793      13.92827103       0.00000000 NULL       0.02231900      -0.19166300       0.20132900
P        2.55143807       2.47436184       7.50982661       0.00000000 NULL      -0.08245600       0.14966400      -0.17260400
P       -0.73735115       4.49983050      15.72454043       0.00000000 NULL      -0.00096000       0.15066500      -0.03977800
P        3.73994158       6.04079175       6.97489407       0.00000000 NULL       0.13925500      -0.01173800      -0.12017500
P        2.59769493       4.55387610       8.98646872       0.00000000 NULL      -0.01198200       0.04645900       0.00524400
14
Lattice="3.2933080124400957 0.19390620876520967 -0.5151262149297461 1.4803736325801913 5.223932359703164 1.0428007107678585 -1.1633675529720409 3.929586347540859 17.509609251842363" Properties=species:S:1:pos:R:3:initial_magmoms:R:1:castep_labels:S:1:forces:R:3 n_minim_iter=2 energy=-76.258255506235 stress="0.003388109949390357 0.00044255198258102627 -0.0006734895747995144 0.00044255198258102627 0.0015272204762740973 0.00020669312547038607 -0.0006734895747995144 0.00020669312547038607 0.0007636645167939475" free_energy=-76.258255506235 pbc="T T T"
P        2.19478983       5.51496800      13.18727198       0.00000000 NULL       0.08129700       0.15878400       0.10365100
P        1.53969492       3.30318291       3.03624780       0.00000000 NULL       0.25608200      -0.16220600       0.04605500
P        1.16323356       3.53951632      10.46375408       0.00000000 NULL      -0.03847700       0.12247400      -0.05700200
P        1.65788610       5.35623785       4.52366379       0.00000000 NULL       0.07803200      -0.06428700       0.03508700
P        1.57909070       0.99510601       1.93786351       0.00000000 NULL      -0.08141500       0.00363100      -0.00510300
P        0.92654353       5.96182235      16.20040167       0.00000000 NULL      -0.02512900      -0.12829900      -0.20984500
P        2.97468556       4.28632027       1.62477617       0.00000000 NULL      -0.04470500      -0.03309500      -0.06945800
P        2.63421956       6.82871953      10.14378625       0.00000000 NULL      -0.15362800       0.02624000       0.05619600
P        1.86840734       6.98510631       6.14640041       0.00000000 NULL      -0.06409100      -0.02539200       0.08795300
P        0.57656782       6.82566782      14.02976310       0.00000000 NULL      -0.00500700      -0.26270600       0.27049500
P        2.54235434       2.46249274       7.56432703       0.00000000 NULL      -0.14116200       0.08137300      -0.05936300
P       -0.74901794       4.46474189      15.84930179       0.00000000 NULL       0.02571800       0.22922200      -0.11818200
P        3.73547444       6.04168283       7.01268496       0.00000000 NULL       0.17103900       0.05815100      -0.15516600
P        2.58974499       4.54313645       9.04837344       0.00000000 NULL      -0.05855400      -0.00388700       0.07468200
14
Lattice="3.274184308841897 0.1937731057299364 -0.5146156993393468 1.4715042793960236 5.215728137387693 1.038108298005586 -1.1473251205427175 3.898438467468434 17.542613947074976" Properties=species:S:1:pos:R:3:initial_magmoms:R:1:castep_labels:S:1:forces:R:3 n_minim_iter=3 energy=-76.263406518851 stress="-0.0018312794142144218 0.00034337397894177753 -0.0003333763247110746 0.00034337397894177753 -0.0006259622201608814 -0.00038620029415547933 -0.0003333763247110746 -0.00038620029415547933 0.00036933152483531153" free_energy=-76.263406518851 pbc="T T T"
P        2.18941940       5.48897433      13.21059691       0.00000000 NULL       0.07782900       0.07247900       0.08430200
P        1.53387254       3.29290488       3.03954695       0.00000000 NULL       0.25726100      -0.15950400       0.04337000
P        1.16154593       3.51992085      10.48260776       0.00000000 NULL      -0.00342400       0.11330900      -0.03418300
P        1.65049186       5.34191996       4.52725057       0.00000000 NULL       0.08718800      -0.08197800       0.03200200
P        1.57049024       0.99077870       1.94142318       0.00000000 NULL      -0.08915600       0.01396200      -0.00430300
P        0.92935293       5.92884639      16.22722769       0.00000000 NULL      -0.02426600      -0.04529000      -0.17074700
P        2.95760880       4.27789978       1.62292449       0.00000000 NULL      -0.06242900      -0.03666500      -0.07778500
P        2.62248126       6.80456068      10.15864721       0.00000000 NULL      -0.13231200       0.01571800       0.04772900
P        1.85953584       6.96688008       6.15141652       0.00000000 NULL      -0.07297900       0.00357100       0.08992900
P        0.58009808       6.79409652      14.05346955       0.00000000 NULL      -0.01776800      -0.16688300       0.29132100
P        2.53082595       2.44822847       7.57856964       0.00000000 NULL      -0.15446200       0.09708900      -0.05548200
P       -0.73626487       4.43697219      15.87721552       0.00000000 NULL       0.03987700       0.13628300      -0.15294200
P        3.71826866       6.02325448       7.02050437       0.00000000 NULL       0.17575700       0.02809900      -0.15371600
P        2.57898861       4.52340699       9.06395762       0.00000000 NULL      -0.08111600       0.00980900       0.06050600
14
Lattice="3.274961861918902 0.18637190025997816 -0.5056738755652841 1.4633513572624146 5.220933642743896 1.0422834321124907 -1.104346762567551 3.8992382027153263 17.575833505618252" Properties=species:S:1:pos:R:3:initial_magmoms:R:1:castep_labels:S:1:forces:R:3 n_minim_iter=4 energy=-76.272963135247 stress="0.00020097737280172842 -0.0023848108920969807 0.002484051384193316 -0.0023848108920969807 0.00027731621287583225 -6.841551970622294e-05 0.002484051384193316 -6.841551970622294e-05 0.001551342712577014" free_energy=-76.272963135247 pbc="T T T"
P        2.22101261       5.49047184      13.24663074       0.00000000 NULL       0.03577600       0.00919200       0.07789900
P        1.54557871       3.28739086       3.05135727       0.00000000 NULL       0.08395600      -0.06191800      -0.03317900
P        1.18504133       3.52211115      10.50648013       0.00000000 NULL      -0.10745300       0.09817600      -0.03753500
P        1.65562658       5.34211909       4.54130682       0.00000000 NULL      -0.02917700      -0.03312400      -0.01864800
P        1.57242918       0.98832088       1.94947393       0.00000000 NULL       0.03673400      -0.04839800       0.03781700
P        0.96440031       5.92618110      16.25653020       0.00000000 NULL       0.00015400       0.01384800      -0.10878400
P        2.95301602       4.27641014       1.63022815       0.00000000 NULL       0.11890700      -0.08376700       0.01631900
P        2.63398197       6.80559132      10.18810279       0.00000000 NULL      -0.19842000       0.06649800      -0.02389800
P        1.86069886       6.97163698       6.17033461       0.00000000 NULL       0.02994400      -0.03418700       0.04267000
P        0.60662635       6.79041340      14.09313178       0.00000000 NULL       0.04456300      -0.05453800       0.22578700
P        2.54501167       2.44612305       7.59936639       0.00000000 NULL      -0.06796700       0.03708400       0.00219200
P       -0.69817412       4.44458429      15.90282613       0.00000000 NULL      -0.00624200       0.02638100      -0.14164000
P        3.73439220       6.02257074       7.03890466       0.00000000 NULL       0.06590900       0.06731000      -0.10302300
P        2.59544889       4.52088490       9.09185819       0.00000000 NULL      -0.00668600      -0.00255700       0.06402400
14
Lattice="3.2795354365918845 0.2003765008223035 -0.5166269943183983 1.4818121952305898 5.234390754818796 1.0327575803262445 -1.1511046373258245 3.8930754008670276 17.54535220096178" Properties=species:S:1:pos:R:3:initial_magmoms:R:1:castep_labels:S:1:forces:R:3 n_minim_iter=5 energy=-76.285339033873 stress="8.105958384780728e-05 -6.01888208490635e-05 -0.000114264714580644 -6.01888208490635e-05 -0.00012786507313788432 5.3895037899702296e-06 -0.000114264714580644 5.3895037899702296e-06 -0.00034366225173494734" free_energy=-76.285339033873 pbc="T T T"
P        2.20198745       5.50724655      13.21602077       0.00000000 NULL       0.00345600      -0.06131400      -0.07048600
P        1.56169199       3.28894294       3.04083351       0.00000000 NULL       0.05479300       0.01902300      -0.08288500
P        1.16078984       3.53418996      10.47922761       0.00000000 NULL       0.00827700       0.05908000       0.02351300
P        1.66566509       5.35084392       4.52644111       0.00000000 NULL       0.02115700       0.01522600      -0.06391000
P        1.56719599       0.99569264       1.93939101       0.00000000 NULL       0.00199200      -0.11474300       0.06210300
P        0.93077976       5.92887434      16.21071092       0.00000000 NULL       0.01131600       0.07596100       0.11837300
P        2.96552615       4.29201676       1.61066171       0.00000000 NULL       0.09692900      -0.13224500       0.07770500
P        2.61849582       6.82367938      10.15937199       0.00000000 NULL      -0.08161100       0.12636400      -0.09262300
P        1.86574498       6.98677450       6.15355894       0.00000000 NULL       0.00972000      -0.01878800      -0.03477400
P        0.58491774       6.78721977      14.07742506       0.00000000 NULL      -0.01549200       0.14907900       0.09229200
P        2.52245402       2.46206791       7.57169693       0.00000000 NULL      -0.15743800      -0.02935100       0.06584200
P       -0.73513820       4.44965965      15.86583752       0.00000000 NULL       0.07607600      -0.17170800      -0.08894800
P        3.74497748       6.04641866       7.00132219       0.00000000 NULL       0.06981000       0.05231500      -0.01855000
P        2.58021533       4.53491079       9.06707519       0.00000000 NULL      -0.09898600       0.03110100       0.01234900
14
Lattice="3.269858583414137 0.21369766714795393 -0.5153335587845328 1.4988485005396637 5.2547139479650555 1.0396795511653028 -1.1156106049889902 3.9047946099291266 17.609931590731076" Properties=species:S:1:pos:R:3:initial_magmoms:R:1:castep_labels:S:1:forces:R:3 n_minim_iter=6 energy=-76.297073898006 stress="-0.0018270459831571395 0.000864708510715182 0.0006399600072422429 0.000864708510715182 0.0020984458442646604 0.003209281726364147 0.0006399600072422429 0.003209281726364147 0.0009251317529064951" free_energy=-76.297073898006 pbc="T T T"
P        2.23358047       5.53463236      13.26665260       0.00000000 NULL       0.02543100       0.07134200       0.05521500
P        1.58954551       3.29881952       3.04909055       0.00000000 NULL       0.00871900      -0.02109400      -0.02270300
P        1.17995156       3.56311012      10.52002746       0.00000000 NULL      -0.02094400      -0.01414800       0.00851000
P        1.69105585       5.37087746       4.54231943       0.00000000 NULL       0.02314000      -0.01766500       0.02329900
P        1.56490304       0.99508236       1.95385878       0.00000000 NULL       0.03456900      -0.06328100      -0.01525900
P        0.96664557       5.95725860      16.27441632       0.00000000 NULL       0.00302000      -0.10601900       0.04599100
P        2.98199262       4.30183753       1.62428250       0.00000000 NULL       0.10004000      -0.04832600       0.03895000
P        2.63181449       6.86831523      10.19540627       0.00000000 NULL      -0.04968100       0.03554400      -0.01399500
P        1.89149308       7.01288270       6.18149143       0.00000000 NULL       0.03452300      -0.01632200      -0.12006800
P        0.62180977       6.81593292      14.15516886       0.00000000 NULL      -0.05401200       0.07801500      -0.04173700
P        2.51093628       2.48300087       7.60571457       0.00000000 NULL      -0.12868400       0.03683500      -0.02047100
P       -0.69240406       4.45675815      15.90933410       0.00000000 NULL       0.09516700      -0.04990700      -0.00837900
P        3.77835210       6.08693426       7.02282223       0.00000000 NULL       0.00382800       0.03405800       0.08340500
P        2.58711782       4.56326316       9.10884866       0.00000000 NULL      -0.07511600       0.08096800      -0.01275900
14
Lattice="3.2742039796618063 0.22139947205840993 -0.5185297828907796 1.5073515257546488 5.235205372000059 1.0025134219031284 -1.1189783851018815 3.7678529928388778 17.596299055913345" Properties=species:S:1:pos:R:3:initial_magmoms:R:1:castep_labels:S:1:forces:R:3 n_minim_iter=7 energy=-76.307959729676 stress="0.0001777380516854132 0.0002881117220276136 0.0005280905652593804 0.0002881117220276136 -0.0009209472251763068 4.026708600911919e-05 0.0005280905652593804 4.026708600911919e-05 -9.09617597033956e-05" free_energy=-76.307959729676 pbc="T T T"
P        2.24218560       5.42897108      13.23561663       0.00000000 NULL      -0.00051700       0.09406900       0.10226700
P        1.61021171       3.26472177       3.02218006       0.00000000 NULL      -0.05151700      -0.01939900      -0.00395100
P        1.18057701       3.49088757      10.50243476       0.00000000 NULL      -0.06733600       0.06353200       0.03398000
P        1.70341578       5.32412486       4.50343677       0.00000000 NULL       0.00293500      -0.02784200       0.02482200
P        1.56448535       0.97089778       1.95273785       0.00000000 NULL       0.08312300      -0.06602300      -0.02851200
P        0.96906946       5.82929959      16.24591499       0.00000000 NULL       0.04161600      -0.16702600       0.04307900
P        2.99797622       4.26961200       1.59741266       0.00000000 NULL       0.11041600      -0.10577300      -0.04822600
P        2.62564121       6.79298643      10.14772805       0.00000000 NULL      -0.04532500       0.00081400       0.00292700
P        1.89922485       6.95062004       6.13583853       0.00000000 NULL       0.08958100       0.08596000      -0.04923200
P        0.62417301       6.70163322      14.13853264       0.00000000 NULL      -0.04115200       0.06353900      -0.10279300
P        2.49390981       2.42787954       7.59558575       0.00000000 NULL      -0.07269800       0.07798100      -0.02065500
P       -0.68572609       4.32412461      15.87597708       0.00000000 NULL       0.06032200       0.00791800       0.00720700
P        3.80144669       6.03290106       6.97517328       0.00000000 NULL      -0.08919600      -0.08309800       0.02990900
P        2.58116733       4.49333449       9.08653523       0.00000000 NULL      -0.02025300       0.07534900       0.00917700
14
Lattice="3.2705243819892837 0.215714105394724 -0.5246765670754188 1.4922953860780894 5.248717291909651 0.9914973595993006 -1.1605241408199212 3.761711037821444 17.57063320577373" Properties=species:S:1:pos:R:3:initial_magmoms:R:1:castep_labels:S:1:forces:R:3 n_minim_iter=8 energy=-76.310714281625 stress="-0.0005278059334379422 -0.0009839759112924697 -0.0005840475492960836 -0.0009839759112924697 0.0005390542566095705 3.8936503286405574e-05 -0.0005840475492960836 3.8936503286405574e-05 -0.0005402079307810195" free_energy=-76.310714281625 pbc="T T T"
P        2.20252975       5.42859613      13.20880391       0.00000000 NULL      -0.08004500       0.10681700       0.07422400
P        1.59834537       3.26682707       3.00943717       0.00000000 NULL      -0.03899700      -0.02067100       0.00958500
P        1.14927462       3.49146160      10.48233053       0.00000000 NULL      -0.05643200       0.06431400       0.04104000
P        1.68240414       5.33207077       4.48688456       0.00000000 NULL       0.00608200      -0.00936100       0.04691100
P        1.55726318       0.96466427       1.94661928       0.00000000 NULL       0.08130900      -0.08743500      -0.06010400
P        0.92384377       5.82444339      16.21631009       0.00000000 NULL       0.12257300      -0.16917600       0.05008300
P        2.98561110       4.27039012       1.58388731       0.00000000 NULL       0.07449500      -0.09710000      -0.06728600
P        2.58318426       6.80128505      10.11905568       0.00000000 NULL      -0.04537400       0.02865500       0.03637900
P        1.87108720       6.96409604       6.11423187       0.00000000 NULL       0.09396600       0.04412800      -0.03733600
P        0.57971906       6.70798750      14.11358518       0.00000000 NULL       0.03064800       0.02750500      -0.10034100
P        2.46378179       2.42361924       7.57778785       0.00000000 NULL      -0.05198800       0.05251400      -0.04778700
P       -0.72230422       4.31977522      15.84737782       0.00000000 NULL      -0.01223700       0.03702700       0.02236900
P        3.77159067       6.03697769       6.94911937       0.00000000 NULL      -0.10481100      -0.03997600       0.02593700
P        2.54685593       4.49438974       9.06500070       0.00000000 NULL      -0.01918900       0.06275800       0.00632600
14
Lattice="3.271991787632646 0.23222084777107696 -0.5114710731341221 1.5187169680932455 5.272937923697806 0.9709488928095084 -1.0789621008531896 3.697261298391239 17.49859549660526" Properties=species:S:1:pos:R:3:initial_magmoms:R:1:castep_labels:S:1:forces:R:3 n_minim_iter=9 energy=-76.323495806148 stress="-0.0004849961530493927 0.0007165394540675583 0.0011902390570051262 0.0007165394540675583 0.0020466902415978002 -0.0009885560636073891 0.0011902390570051262 -0.0009885560636073891 -0.001484740837945882" free_energy=-76.323495806148 pbc="T T T"
P        2.27760649       5.42064733      13.16982428       0.00000000 NULL       0.02506800       0.07937000      -0.13394800
P        1.63792739       3.26333275       2.98639213       0.00000000 NULL       0.00167500      -0.09855300       0.05596700
P        1.19430433       3.48957496      10.44524744       0.00000000 NULL      -0.16077700       0.04394100       0.06177000
P        1.73052437       5.33601818       4.45748124       0.00000000 NULL       0.01607000      -0.00382800       0.04369200
P        1.57805221       0.94263118       1.94318931       0.00000000 NULL       0.10365200      -0.07391200      -0.10452600
P        1.02116756       5.75729127      16.15524144       0.00000000 NULL       0.01904500      -0.02739200       0.06995800
P        3.03357844       4.26114834       1.56788868       0.00000000 NULL       0.03232700      -0.01935500      -0.11500000
P        2.62741982       6.81372747      10.06454967       0.00000000 NULL      -0.11854000       0.08938800       0.08207600
P        1.93621748       6.98388898       6.06624745       0.00000000 NULL       0.00307600      -0.09087400       0.05092300
P        0.65698875       6.68873322      14.05546549       0.00000000 NULL      -0.03072100       0.00958200       0.05514100
P        2.46869544       2.42484526       7.55255689       0.00000000 NULL       0.09259900      -0.02733600      -0.07344400
P       -0.62934348       4.26406079      15.76312065       0.00000000 NULL       0.03860500      -0.04888600       0.03805900
P        3.82799594       6.04596302       6.91035968       0.00000000 NULL      -0.07214800       0.11601200      -0.01796100
P        2.58415244       4.49992263       9.03532190       0.00000000 NULL       0.05007000       0.05184300      -0.01270700
14
Lattice="3.2797359356901046 0.22717541289205706 -0.5177781997287189 1.5154782381800516 5.243660555070363 0.9814270718097146 -1.1115764793752154 3.7067729793781097 17.563301873203205" Properties=species:S:1:pos:R:3:initial_magmoms:R:1:castep_labels:S:1:forces:R:3 n_minim_iter=10 energy=-76.330905096377 stress="0.00016542040208001788 -8.683041771135157e-05 -4.246162159112924e-05 -8.683041771135157e-05 -0.00031489970385082376 0.00024177935209389608 -4.246162159112924e-05 0.00024177935209389608 0.0002990305723917661" free_energy=-76.330905096377 pbc="T T T"
P        2.25797563       5.42077236      13.22504561       0.00000000 NULL      -0.05580800       0.05507700      -0.16351300
P        1.64129590       3.24120963       2.99690432       0.00000000 NULL       0.04359200      -0.17563900       0.06627400
P        1.16993664       3.50009450      10.48662721       0.00000000 NULL      -0.16160600       0.00509100       0.04350100
P        1.72702086       5.30852760       4.47997308       0.00000000 NULL       0.02419900      -0.06009900       0.01899300
P        1.58353812       0.92490212       1.94757614       0.00000000 NULL       0.10055300       0.01715200      -0.07731300
P        0.99955280       5.73644194      16.22172982       0.00000000 NULL       0.09653600       0.04306400       0.00644800
P        3.04639250       4.21883056       1.57231012       0.00000000 NULL      -0.03092000       0.04362700      -0.09540600
P        2.59635100       6.80036570      10.10369786       0.00000000 NULL      -0.13192900       0.03891900       0.05676700
P        1.93106922       6.95676048       6.09275147       0.00000000 NULL      -0.03946000      -0.08477800       0.03770200
P        0.62758253       6.68019251      14.11836784       0.00000000 NULL       0.05838500       0.07586800       0.07601600
P        2.44147345       2.42883270       7.57541150       0.00000000 NULL       0.15490800      -0.00768200      -0.06352600
P       -0.64978835       4.26480546      15.81401954       0.00000000 NULL      -0.05029400      -0.16156600       0.10228700
P        3.82029378       6.02059720       6.93396211       0.00000000 NULL      -0.05934500       0.11875700       0.01432300
P        2.56246811       4.49659513       9.07220648       0.00000000 NULL       0.05118800       0.09220800      -0.02255400
14
Lattice="3.285363756726361 0.21982993213863186 -0.5042302179242063 1.5086145957903077 5.242814183031293 0.9674666506199104 -1.0765619658593 3.6862761314761014 17.3893477723707" Properties=species:S:1:pos:R:3:initial_magmoms:R:1:castep_labels:S:1:forces:R:3 n_minim_iter=11 energy=-76.358545604865 stress="0.0005852746586643332 -5.286772267833488e-05 -0.00014248937584879985 -5.286772267833488e-05 0.000648281396650842 -0.00020437357999761782 -0.00014248937584879985 -0.00020437357999761782 0.0005398663543912977" free_energy=-76.358545604865 pbc="T T T"
P        2.27826098       5.44296614      13.09343445       0.00000000 NULL       0.00635200       0.06904900      -0.06386000
P        1.67600405       3.18356855       2.97029130       0.00000000 NULL      -0.01630300      -0.05285700      -0.08877600
P        1.14263921       3.52978845      10.40273930       0.00000000 NULL      -0.08012900       0.01266300       0.02136000
P        1.74921892       5.28093200       4.43960912       0.00000000 NULL       0.03689600      -0.13635300      -0.08055800
P        1.62488464       0.87443364       1.91716142       0.00000000 NULL       0.07806100       0.02748000      -0.04932900
P        1.06725987       5.67302164      16.08252648       0.00000000 NULL      -0.03532500       0.00336800      -0.05908600
P        3.08421885       4.15805268       1.53233758       0.00000000 NULL       0.04769300      -0.00256900       0.07448200
P        2.54370993       6.82421549      10.00650117       0.00000000 NULL       0.03583600       0.03842800       0.04967100
P        1.95001193       6.94742927       6.02585241       0.00000000 NULL      -0.12815700       0.03312800      -0.13655200
P        0.64924564       6.69626468      14.00837276       0.00000000 NULL       0.14009700      -0.12830500       0.13551500
P        2.42177956       2.43640636       7.49122187       0.00000000 NULL       0.09920700       0.06134100       0.02098800
P       -0.59744331       4.21117391      15.64571873       0.00000000 NULL      -0.08460600       0.08082800      -0.03097900
P        3.82465887       6.02450176       6.85892341       0.00000000 NULL      -0.02016100      -0.04140100       0.17238400
P        2.55798201       4.52529402       8.99421774       0.00000000 NULL      -0.07946000       0.03520000       0.03474000
14
Lattice="3.2935989999428736 0.20713525639136446 -0.49010160777635614 1.4977892683615528 5.232043446799754 0.9702643014569448 -1.0403012689310596 3.7044250177130134 17.265810707799698" Properties=species:S:1:pos:R:3:initial_magmoms:R:1:castep_labels:S:1:forces:R:3 n_minim_iter=12 energy=-76.382027368573 stress="0.001423792150867681 -0.00010136925480395971 -0.0003047265354465891 -0.00010136925480395971 0.001484795695230854 -0.00018235546375864922 -0.0003047265354465891 -0.00018235546375864922 0.0012990551899293794" free_energy=-76.382027368573 pbc="T T T"
P        2.30149486       5.49197644      12.99619560       0.00000000 NULL       0.14702600      -0.00191600       0.12463900
P        1.70251317       3.12343062       2.94061388       0.00000000 NULL       0.08125600      -0.07943000       0.06690800
P        1.10734597       3.57725612      10.35782352       0.00000000 NULL      -0.04353600      -0.00586300       0.00081800
P        1.77368205       5.22893335       4.40915512       0.00000000 NULL       0.06013200       0.04392000      -0.00285700
P        1.67973707       0.83086430       1.88832031       0.00000000 NULL       0.01100200      -0.10247200      -0.02126600
P        1.12596780       5.64269669      15.99184880       0.00000000 NULL      -0.11727300      -0.06345900      -0.04259400
P        3.13279299       4.08724529       1.52699192       0.00000000 NULL      -0.02278800       0.11489600      -0.15870100
P        2.50169284       6.86269862       9.95729765       0.00000000 NULL       0.15625600       0.04893900       0.07656300
P        1.94351511       6.94867190       5.96271601       0.00000000 NULL      -0.03593600      -0.28707400       0.00917700
P        0.69205571       6.71612558      13.96818128       0.00000000 NULL       0.06477900      -0.04255900      -0.01436900
P        2.41811772       2.46682301       7.43886677       0.00000000 NULL      -0.00055000       0.06592700       0.03504200
P       -0.55688290       4.20123787      15.51809768       0.00000000 NULL      -0.09985500       0.14309200      -0.09743900
P        3.82548492       6.01506422       6.85258454       0.00000000 NULL      -0.09888000       0.15939600      -0.03991900
P        2.53748634       4.56992709       8.95453457       0.00000000 NULL      -0.10163200       0.00660400       0.06399800
14
Lattice="3.295292906606855 0.20252729649837878 -0.4742599468895978 1.4952301573589197 5.249541900006209 0.9696766376031893 -0.9850724814062386 3.727974886401956 17.130709732622663" Properties=species:S:1:pos:R:3:initial_magmoms:R:1:castep_labels:S:1:forces:R:3 n_minim_iter=13 energy=-76.412954524088 stress="0.0022237921479435502 -9.724368086737935e-05 -0.00021069464187932192 -9.724368086737935e-05 0.0025323875225880038 -0.0001520710114465099 -0.00021069464187932192 -0.0001520710114465099 0.0021836389764142267" free_energy=-76.412954524088 pbc="T T T"
P        2.36123938       5.55373915      12.90472731       0.00000000 NULL       0.19227200       0.08762200       0.13256200
P        1.74001041       3.07389159       2.91636754       0.00000000 NULL       0.11988800       0.06052400      -0.09963200
P        1.08001864       3.63356263      10.31025120       0.00000000 NULL      -0.07177300       0.04068500      -0.03452800
P        1.81502914       5.21132969       4.37190316       0.00000000 NULL       0.05780400      -0.09110600       0.06210300
P        1.73586753       0.77690120       1.85870524       0.00000000 NULL      -0.05126900      -0.04153300      -0.08878600
P        1.18218255       5.63015802      15.89551430       0.00000000 NULL      -0.14107200      -0.06972800      -0.12592500
P        3.18529264       4.05931382       1.49768886       0.00000000 NULL      -0.07032200       0.00057100      -0.02374700
P        2.50368489       6.94062235       9.90759584       0.00000000 NULL      -0.00266400       0.05256000       0.08757400
P        1.94681730       6.94416061       5.89062421       0.00000000 NULL      -0.04203300      -0.16600900       0.07287000
P        0.76244222       6.77115726      13.90524130       0.00000000 NULL      -0.00632300      -0.13206100      -0.04820400
P        2.41576477       2.51971445       7.39080695       0.00000000 NULL       0.06869200       0.06540100       0.01630500