15
Lattice="6.973499999999998 9.239448851441605e-16 0.0 -3.4867499999999993 6.0392281532907806 0.0 0.0 0.0 7.758239999999999" Properties=species:S:1:pos:R:3:initial_magmoms:R:1:castep_labels:S:1 n_minim_iter=1 pbc="T T T"
P        5.61534846       1.61729624       7.05812323       0.00000000 NULL
P        2.76520614       4.05438630       7.05812323       0.00000000 NULL
P        2.07969540       0.36754562       7.05812323       0.00000000 NULL
P        0.55763139       2.82037692       4.19685717       0.00000000 NULL
P        0.76541624       5.11196265       4.19685717       0.00000000 NULL
P       -1.32304764       4.14611674       4.19685717       0.00000000 NULL
P        4.80414457       3.00965901       2.38577517       0.00000000 NULL
P        1.96498655       2.65568174       2.38577517       0.00000000 NULL
P        3.69111887       0.37388741       2.38577517       0.00000000 NULL
P       -0.93431511       5.35068488       1.11189311       0.00000000 NULL
P       -0.67992148       2.55474510       1.11189311       0.00000000 NULL
P        1.61423659       4.17302633       1.11189311       0.00000000 NULL
P        4.84062922       0.43705169       5.58254633       0.00000000 NULL
P        4.17468752       3.97358203       5.58254633       0.00000000 NULL
P        1.44493325       1.62859443       5.58254633       0.00000000 NULL
15
Lattice="6.976735526975702 -1.3863570663817205e-15 0.0 -3.488367763487849 6.042030201846371 0.0 0.0 0.0 7.763334071905785" Properties=species:S:1:pos:R:3:initial_magmoms:R:1:castep_labels:S:1 n_minim_iter=2 pbc="T T T"
P        5.61800779       1.61816885       7.06275939       0.00000000 NULL
P        2.76635630       4.05625304       7.06275939       0.00000000 NULL
P        2.08073920       0.36760832       7.06275939       0.00000000 NULL
P        0.55788598       2.82169487       4.19947191       0.00000000 NULL
P        0.76576533       5.11432620       4.19947191       0.00000000 NULL
P       -1.32365132       4.14803933       4.19947191       0.00000000 NULL
P        4.80618860       3.01110857       2.38748920       0.00000000 NULL
P        1.96594471       2.65672714       2.38748920       0.00000000 NULL
P        3.69296998       0.37419449       2.38748920       0.00000000 NULL
P       -0.93487565       5.35301608       1.11253691       0.00000000 NULL
P       -0.68004233       2.55589610       1.11253691       0.00000000 NULL
P        1.61491797       4.17514822       1.11253691       0.00000000 NULL
P        4.84280439       0.43724583       5.58628972       0.00000000 NULL
P        4.17666734       3.97536871       5.58628972       0.00000000 NULL
P        1.44563156       1.62941566       5.58628972       0.00000000 NULL
15
Lattice="7.066710415102668 -4.691825618594485e-16 0.0 -3.5333552075513333 6.119950740666987 0.0 0.0 0.0 7.905653442414772" Properties=species:S:1:pos:R:3:initial_magmoms:R:1:castep_labels:S:1 n_minim_iter=3 pbc="T T T"
P        5.69201760       1.64258169       7.19228502       0.00000000 NULL
P        2.79818415       4.10814100       7.19228502       0.00000000 NULL
P        2.10986387       0.36922806       7.19228502       0.00000000 NULL
P        0.56498253       2.85835786       4.27234621       0.00000000 NULL
P        0.77545342       5.18006104       4.27234621       0.00000000 NULL
P       -1.34043595       4.20148258       4.27234621       0.00000000 NULL
P        4.86286656       3.05147454       2.43552848       0.00000000 NULL
P        1.99262266       2.68562871       2.43552848       0.00000000 NULL
P        3.74457639       0.38284749       2.43552848       0.00000000 NULL
P       -0.95057820       5.41768987       1.13045876       0.00000000 NULL
P       -0.68321276       2.58788094       1.13045876       0.00000000 NULL
P        1.63379095       4.23433067       1.13045876       0.00000000 NULL
P        4.90319973       0.44261880       5.69096328       0.00000000 NULL
P        4.23179143       4.02498613       5.69096328       0.00000000 NULL
P        1.46507446       1.65234582       5.69096328       0.00000000 NULL
15
Lattice="7.065514014281291 7.051746404574677e-16 0.0 -3.5327570071406456 6.118914627162564 0.0 0.0 0.0 7.912901962036955" Properties=species:S:1:pos:R:3:initial_magmoms:R:1:castep_labels:S:1 n_minim_iter=4 pbc="T T T"
P        5.69236391       1.64582354       7.19900404       0.00000000 NULL
P        2.79400706       4.10681999       7.19900404       0.00000000 NULL
P        2.11190004       0.36627110       7.19900404       0.00000000 NULL
P        0.56541249       2.85816651       4.27197658       0.00000000 NULL
P        0.77480595       5.17949296       4.27197658       0.00000000 NULL
P       -1.34021845       4.20016979       4.27197658       0.00000000 NULL
P        4.85836637       3.05219229       2.44123773       0.00000000 NULL
P        1.99305477       2.68137255       2.44123773       0.00000000 NULL
P        3.74684988       0.38534979       2.44123773       0.00000000 NULL
P       -0.95294110       5.41321912       1.13019698       0.00000000 NULL
P       -0.67875772       2.58703387       1.13019698       0.00000000 NULL
P        1.63169881       4.23757627       1.13019698       0.00000000 NULL
P        4.90009821       0.44184354       5.69816559       0.00000000 NULL
P        4.23281718       4.02268776       5.69816559       0.00000000 NULL
P        1.46535563       1.65438333       5.69816559       0.00000000 NULL
15
Lattice="7.045880773354518 2.533169054329622e-16 0.0 -3.5229403866772584 6.1019117417613575 0.0 0.0 0.0 7.90508198474721" Properties=species:S:1:pos:R:3:initial_magmoms:R:1:castep_labels:S:1 n_minim_iter=5 pbc="T T T"
P        5.67879936       1.64745794       7.19199278       0.00000000 NULL
P        2.77974066       4.09425554       7.19199278       0.00000000 NULL
P        2.11028114       0.36019826       7.19199278       0.00000000 NULL
P        0.56483333       2.85061960       4.26039481       0.00000000 NULL
P        0.77181473       5.16576196       4.26039481       0.00000000 NULL
P       -1.33664806       4.18744193       4.26039481       0.00000000 NULL
P        4.83902009       3.04566438       2.44434915       0.00000000 NULL
P        1.98874800       2.66788214       2.44434915       0.00000000 NULL
P        3.74105306       0.38836522       2.44434915       0.00000000 NULL
P       -0.95424215       5.39239959       1.12731680       0.00000000 NULL
P       -0.66989357       2.57931400       1.12731680       0.00000000 NULL
P        1.62413572       4.23210989       1.12731680       0.00000000 NULL
P        4.88244276       0.43925180       5.69603035       0.00000000 NULL
P        4.22425618       4.00869357       5.69603035       0.00000000 NULL
P        1.46212222       1.65396638       5.69603035       0.00000000 NULL
15
Lattice="6.949268700604728 1.8125560421528656e-15 0.0 -3.474634350302365 6.018243232447769 0.0 0.0 0.0 7.8871851809351865" Properties=species:S:1:pos:R:3:initial_magmoms:R:1:castep_labels:S:1 n_minim_iter=6 pbc="T T T"
P        5.61003474       1.65018861       7.17491923       0.00000000 NULL
P        2.71514608       4.03333829       7.17491923       0.00000000 NULL
P        2.09872224       0.33471633       7.17491923       0.00000000 NULL
P        0.56083789       2.81215442       4.22235735       0.00000000 NULL
P        0.75881824       5.09786588       4.22235735       0.00000000 NULL
P       -1.31965613       4.12646616       4.22235735       0.00000000 NULL
P        4.75138607       3.01070477       2.45821062       0.00000000 NULL
P        1.96622885       2.60946866       2.45821062       0.00000000 NULL
P        3.70628813       0.39806981       2.45821062       0.00000000 NULL
P       -0.95510761       5.29741534       1.11972688       0.00000000 NULL
P       -0.63550811       2.54238811       1.11972688       0.00000000 NULL
P        1.59061572       4.19668302       1.11972688       0.00000000 NULL
P        4.79901001       0.42718355       5.69796035       0.00000000 NULL
P        4.17981188       3.94247281       5.69796035       0.00000000 NULL
P        1.44508115       1.64858687       5.69796035       0.00000000 NULL
15
Lattice="6.902757562194976 1.1029006821487963e-15 0.0 -3.4513787810974885 5.9779634050259896 0.0 0.0 0.0 8.011740470693148" Properties=species:S:1:pos:R:3:initial_magmoms:R:1:castep_labels:S:1 n_minim_iter=7 pbc="T T T"
P        5.57860452       1.65640988       7.28482433       0.00000000 NULL
P        2.67896226       4.00300830       7.28482433       0.00000000 NULL
P        2.09656955       0.31854523       7.28482433       0.00000000 NULL
P        0.55852655       2.79106278       4.27407863       0.00000000 NULL
P        0.75498423       5.06613020       4.27407863       0.00000000 NULL
P       -1.31351079       4.09873383       4.27407863       0.00000000 NULL
P        4.70885119       2.99269096       2.50366062       0.00000000 NULL
P        1.95658557       2.58163927       2.50366062       0.00000000 NULL
P        3.68869958       0.40363318       2.50366062       0.00000000 NULL
P       -0.95457431       5.25211691       1.13766001       0.00000000 NULL
P       -0.61980073       2.52521935       1.13766001       0.00000000 NULL
P        1.57437504       4.17859055       1.13766001       0.00000000 NULL
P        4.75534498       0.41887943       5.79942387       0.00000000 NULL
P        4.16232484       3.90880984       5.79942387       0.00000000 NULL
P        1.43646652       1.65027413       5.79942387       0.00000000 NULL
15
Lattice="6.888751197806396 -1.3783347943130059e-15 0.0 -3.4443755989031963 5.965833537650819 0.0 0.0 0.0 8.010785307100019" Properties=species:S:1:pos:R:3:initial_magmoms:R:1:castep_labels:S:1 n_minim_iter=8 pbc="T T T"
P        5.56776869       1.65448012       7.28362629       0.00000000 NULL
P        2.67204504       3.99458907       7.28362629       0.00000000 NULL
P        2.09331307       0.31676435       7.28362629       0.00000000 NULL
P        0.55754831       2.78510855       4.27247738       0.00000000 NULL
P        0.75362669       5.05613026       4.27247738       0.00000000 NULL
P       -1.31117500       4.09042827       4.27247738       0.00000000 NULL
P        4.69864309       2.98671262       2.50370242       0.00000000 NULL
P        1.95286064       2.57578797       2.50370242       0.00000000 NULL
P        3.68162306       0.40333294       2.50370242       0.00000000 NULL
P       -0.95294002       5.24081132       1.13767517       0.00000000 NULL
P       -0.61783014       2.52015761       1.13767517       0.00000000 NULL
P        1.57077015       4.17069814       1.13767517       0.00000000 NULL
P        4.74470377       0.41743496       5.79966261       0.00000000 NULL
P        4.15489003       3.90031652       5.79966261       0.00000000 NULL
P        1.43353299       1.64808206       5.79966261       0.00000000 NULL
15
Lattice="6.855092335544322 1.1772862715531415e-16 0.0 -3.4275461677721606 5.936684107869381 0.0 0.0 0.0 8.01726528147834" Properties=species:S:1:pos:R:3:initial_magmoms:R:1:castep_labels:S:1 n_minim_iter=9 pbc="T T T"
P        5.54195871       1.65048013       7.28854079       0.00000000 NULL
P        2.65475526       3.97423697       7.28854079       0.00000000 NULL
P        2.08592453       0.31196701       7.28854079       0.00000000 NULL
P        0.55523297       2.77059962       4.27283201       0.00000000 NULL
P        0.75052003       5.03223016       4.27283201       0.00000000 NULL
P       -1.30575301       4.07053844       4.27283201       0.00000000 NULL
P        4.67375276       2.97238108       2.50669768       0.00000000 NULL
P        1.94405843       2.56139809       2.50669768       0.00000000 NULL
P        3.66482730       0.40290495       2.50669768       0.00000000 NULL
P       -0.94918238       5.21333642       1.13898797       0.00000000 NULL
P       -0.61274442       2.50799984       1.13898797       0.00000000 NULL
P        1.56192680       4.15203195       1.13898797       0.00000000 NULL
P        4.71868197       0.41369484       5.80707013       0.00000000 NULL
P        4.13748111       3.87965104       5.80707013       0.00000000 NULL
P        1.42647542       1.64333823       5.80707013       0.00000000 NULL
15
Lattice="6.836153287161385 7.140741173848443e-16 0.0 -3.4180766435806924 5.920282410846254 0.0 0.0 0.0 8.039343916402713" Properties=species:S:1:pos:R:3:initial_magmoms:R:1:castep_labels:S:1 n_minim_iter=10 pbc="T T T"
P        5.52792215       1.64958328       7.30766814       0.00000000 NULL
P        2.64361119       3.96252938       7.30766814       0.00000000 NULL
P        2.08269659       0.30816976       7.30766814       0.00000000 NULL
P        0.55400736       2.76198550       4.28187929       0.00000000 NULL
P        0.74912335       5.01907411       4.28187929       0.00000000 NULL
P       -1.30313072       4.05950521       4.28187929       0.00000000 NULL
P        4.65899913       2.96437613       2.51444016       0.00000000 NULL
P        1.93942868       2.55262354       2.51444016       0.00000000 NULL
P        3.65580212       0.40328274       2.51444016       0.00000000 NULL
P       -0.94741279       5.19724370       1.14240995       0.00000000 NULL
P       -0.60916203       2.50117702       1.14240995       0.00000000 NULL
P        1.55657482       4.14214410       1.14240995       0.00000000 NULL
P        4.70308034       0.41100324       5.82560157       0.00000000 NULL
P        4.12867387       3.86748543       5.82560157       0.00000000 NULL
P        1.42247572       1.64179374       5.82560157       0.00000000 NULL
15
Lattice="6.766624646518752 1.9278136084896708e-15 0.0 -3.3833123232593767 5.8600688417591345 0.0 0.0 0.0 8.13197871707801" Properties=species:S:1:pos:R:3:initial_magmoms:R:1:castep_labels:S:1 n_minim_iter=11 pbc="T T T"
P        5.47665701       1.64702044       7.38799427       0.00000000 NULL
P        2.60193460       3.91941388       7.38799427       0.00000000 NULL
P        2.07134536       0.29363453       7.38799427       0.00000000 NULL
P        0.54953337       2.72986244       4.32070384       0.00000000 NULL
P        0.74441542       4.97104749       4.32070384       0.00000000 NULL
P       -1.29394879       4.01922776       4.32070384       0.00000000 NULL
P        4.60454654       2.93491832       2.54651994       0.00000000 NULL
P        1.92263755       2.52019512       2.54651994       0.00000000 NULL
P        3.62275288       0.40495540       2.54651994       0.00000000 NULL
P       -0.94097264       5.13794014       1.15667552       0.00000000 NULL
P       -0.59578804       2.47619257       1.15667552       0.00000000 NULL
P        1.53676068       4.10600498       1.15667552       0.00000000 NULL
P        4.64522859       0.40061993       5.90291147       0.00000000 NULL
P        4.09706332       3.82257601       5.90291147       0.00000000 NULL
P        1.40764506       1.63687291       5.90291147       0.00000000 NULL
15
Lattice="6.708830129490189 4.188499348701123e-16 0.0 -3.354415064745094 5.810017321812948 0.0 0.0 0.0 8.237795544379312" Properties=species:S:1:pos:R:3:initial_magmoms:R:1:castep_labels:S:1 n_minim_iter=12 pbc="T T T"
P        5.43500973       1.64758457       7.47950151       0.00000000 NULL
P        2.56447517       3.88306422       7.47950151       0.00000000 NULL
P        2.06376029       0.27936854       7.47950151       0.00000000 NULL
P        0.54597342       2.70129080       4.36690183       0.00000000 NULL
P        0.74204190       4.93219878       4.36690183       0.00000000 NULL
P       -1.28801532       3.98654507       4.36690183       0.00000000 NULL
P        4.55831551       2.91014386       2.58208840       0.00000000 NULL
P        1.90941386       2.49254510       2.58208840       0.00000000 NULL
P        3.59551582       0.40732836       2.58208840       0.00000000 NULL
P       -0.93571584       5.08786220       1.17281062       0.00000000 NULL
P       -0.58394493       2.45573254       1.17281062       0.00000000 NULL
P        1.51966077       4.07643991       1.17281062       0.00000000 NULL
P        4.59502727       0.39003845       5.99086016       0.00000000 NULL
P        4.07353329       3.78439112       5.99086016       0.00000000 NULL
P        1.39468464       1.63558775       5.99086016       0.00000000 NULL
15
Lattice="6.638027049646276 4.136814934961974e-16 0.0 -3.3190135248231374 5.74870005600194 0.0 0.0 0.0 8.317705847224943" Properties=species:S:1:pos:R:3:initial_magmoms:R:1:castep_labels:S:1 n_minim_iter=13 pbc="T T T"
P        5.38285489       1.64506349       7.54660244       0.00000000 NULL
P        2.52193283       3.83915734       7.54660244       0.00000000 NULL
P        2.05225285       0.26447923       7.54660244       0.00000000 NULL
P        0.54147041       2.66670997       4.39984403       0.00000000 NULL
P        0.73883974       4.88427220       4.39984403       0.00000000 NULL
P       -1.28031015       3.94641794       4.39984403       0.00000000 NULL
P        4.50376209       2.87938721       2.60893064       0.00000000 NULL
P        1.89252354       2.46067878       2.60893064       0.00000000 NULL
P        3.56075495       0.40863407       2.60893064       0.00000000 NULL
P       -0.92800833       5.02826220       1.18534269       0.00000000 NULL
P       -0.57158511       2.43089017       1.18534269       0.00000000 NULL
P        1.49959344       4.03824775       1.18534269       0.00000000 NULL
P        4.53558069       0.37787195       6.06089635       0.00000000 NULL
P        4.04299000       3.73899213       6.06089635       0.00000000 NULL
P        1.37846988       1.63183599       6.06089635       0.00000000 NULL
15
Lattice="6.611302195134665 1.980036173649879e-15 0.0 -3.3056510975673334 5.725555653082441 0.0 0.0 0.0 8.449474729737819" Properties=species:S:1:pos:R:3:initial_magmoms:R:1:castep_labels:S:1 n_minim_iter=14 pbc="T T T"
P        5.36665254       1.65360233       7.65948378       0.00000000 NULL
P        2.49591430       3.82085627       7.65948378       0.00000000 NULL
P        2.05438645       0.25109706       7.65948378       0.00000000 NULL
P        0.54076589       2.64880938       4.46068503       0.00000000 NULL
P        0.74133194       4.86946796       4.46068503       0.00000000 NULL
P       -1.28209783       3.93283396       4.46068503       0.00000000 NULL
P        4.47896253       2.86744908       2.65166892       0.00000000 NULL
P        1.88853718       2.44517079       2.65166892       0.00000000 NULL
P        3.54945358       0.41293578       2.65166892       0.00000000 NULL
P       -0.92622396       5.00219271       1.20502973       0.00000000 NULL
P       -0.56326288       2.42232582       1.20502973       0.00000000 NULL
P        1.48948684       4.02659278       1.20502973       0.00000000 NULL
P        4.50584947       0.36765915       6.17012932       0.00000000 NULL
P        4.03997530       3.71835053       6.17012932       0.00000000 NULL
P        1.37112853       1.63954597       6.17012932       0.00000000 NULL
15
Lattice="6.592332418107584 1.1206020879463536e-15 0.0 -3.296166209053792 5.709127344272863 0.0 0.0 0.0 8.44867992041998" Properties=species:S:1:pos:R:3:initial_magmoms:R:1:castep_labels:S:1 n_minim_iter=15 pbc="T T T"
P        5.35205745       1.65115135       7.65762821       0.00000000 NULL
P        2.48636468       3.80944204       7.65762821       0.00000000 NULL
P        2.05007650       0.24853396       7.65762821       0.00000000 NULL
P        0.53949497       2.64018286       4.45905555       0.00000000 NULL
P        0.73995329       4.85625226       4.45905555       0.00000000 NULL
P       -1.27944826       3.92181956       4.45905555       0.00000000 NULL
P        4.46526681       2.85914140       2.65153699       0.00000000 NULL
P        1.88360993       2.43746379       2.65153699       0.00000000 NULL
P        3.53962189       0.41252215       2.65153699       0.00000000 NULL
P       -0.92370539       4.98700221       1.20510387       0.00000000 NULL
P       -0.56085170       2.41567391       1.20510387       0.00000000 NULL
P        1.48455708       4.01557857       1.20510387       0.00000000 NULL
P        4.49115813       0.36515173       6.17158889       0.00000000 NULL
P        4.03052268       3.70688117       6.17158889       0.00000000 NULL
P        1.36681782       1.63709445       6.17158889       0.00000000 NULL
15
Lattice="6.566622966991278 8.724646252988741e-16 0.0 -3.283311483495639 5.686862306488788 0.0 0.0 0.0 8.460459156953142" Properties=species:S:1:pos:R:3:initial_magmoms:R:1:castep_labels:S:1 n_minim_iter=16 pbc="T T T"
P        5.33267582       1.64890143       7.66615430       0.00000000 NULL
P        2.47229453       3.79378201       7.66615430       0.00000000 NULL
P        2.04496410       0.24417887       7.66615430       0.00000000 NULL
P        0.53793096       2.62790472       4.46309382       0.00000000 NULL
P        0.73851376       4.83877183       4.46309382       0.00000000 NULL
P       -1.27644472       3.90704807       4.46309382       0.00000000 NULL
P        4.44623688       2.84783398       2.65546229       0.00000000 NULL
P        1.87720795       2.42663711       2.65546229       0.00000000 NULL
P        3.52648961       0.41239123       2.65546229       0.00000000 NULL
P       -0.92039614       4.96603474       1.20706867       0.00000000 NULL
P       -0.55720269       2.40675850       1.20706867       0.00000000 NULL
P        1.47759882       4.00093138       1.20706867       0.00000000 NULL
P        4.47041782       0.36108142       6.18400909       0.00000000 NULL
P        4.01870837       3.69095469       6.18400909       0.00000000 NULL
P        1.36080825       1.63482620       6.18400909       0.00000000 NULL
15
Lattice="6.5553420268836256 1.428140427561286e-15 0.0 -3.277671013441813 5.67709272577699 0.0 0.0 0.0 8.476619888245379" Properties=species:S:1:pos:R:3:initial_magmoms:R:1:castep_labels:S:1 n_minim_iter=17 pbc="T T T"
P        5.32450850       1.64882157       7.67931435       0.00000000 NULL
P        2.46516642       3.78674884       7.67931435       0.00000000 NULL
P        2.04333812       0.24152232       7.67931435       0.00000000 NULL
P        0.53738726       2.62201183       4.47023268       0.00000000 NULL
P        0.73824853       4.83147784       4.47023268       0.00000000 NULL
P       -1.27563579       3.90069579       4.47023268       0.00000000 NULL
P        4.43749525       2.84282725       2.66068746       0.00000000 NULL
P        1.87463379       2.42157000       2.66068746       0.00000000 NULL
P        3.52088400       0.41269549       2.66068746       0.00000000 NULL
P       -0.91902179       4.95652158       1.20951737       0.00000000 NULL
P       -0.55529170       2.40293572       1.20951737       0.00000000 NULL
P        1.47431348       3.99472815       1.20951737       0.00000000 NULL
P        4.46061581       0.35871257       6.19839536       0.00000000 NULL
P        4.01437992       3.68365032       6.19839536       0.00000000 NULL
P        1.35801731       1.63472983       6.19839536       0.00000000 NULL
15
Lattice="6.494355366107437 1.1010695497269623e-15 0.0 -3.2471776830537187 5.624276728252827 0.0 0.0 0.0 8.572425987568824" Properties=species:S:1:pos:R:3:initial_magmoms:R:1:castep_labels:S:1 n_minim_iter=18 pbc="T T T"
P        5.28052911       1.64882609       7.75745527       0.00000000 NULL
P        2.42616553       3.74865931       7.75745527       0.00000000 NULL
P        2.03483840       0.22679133       7.75745527       0.00000000 NULL
P        0.53458130       2.58984312       4.51304314       0.00000000 NULL
P        0.73701710       4.79231616       4.51304314       0.00000000 NULL
P       -1.27159840       3.86639418       4.51304314       0.00000000 NULL
P        4.39007169       2.81570966       2.69159535       0.00000000 NULL
P        1.86084343       2.39405878       2.69159535       0.00000000 NULL
P        3.49061793       0.41450829       2.69159535       0.00000000 NULL
P       -0.91156418       4.90498683       1.22393450       0.00000000 NULL
P       -0.54488343       2.38234558       1.22393450       0.00000000 NULL
P        1.45644761       3.96122105       1.22393450       0.00000000 NULL
P        4.40727817       0.34552907       6.28323721       0.00000000 NULL
P        3.99147933       3.64405032       6.28323721       0.00000000 NULL
P        1.34277555       1.63469734       6.28323721       0.00000000 NULL
15
Lattice="6.439745974271044 -3.1105101051445935e-16 0.0 -3.2198729871355205 5.576983607637292 0.0 0.0 0.0 8.687760288441481" Properties=species:S:1:pos:R:3:initial_magmoms:R:1:castep_labels:S:1 n_minim_iter=19 pbc="T T T"
P        5.24181667       1.65040014       7.85163563       0.00000000 NULL
P        2.38954919       3.71434632       7.85163563       0.00000000 NULL
P        2.02825310       0.21223714       7.85163563       0.00000000 NULL
P        0.53267158       2.55982658       4.56683401       0.00000000 NULL
P        0.73666235       4.75837744       4.56683401       0.00000000 NULL
P       -1.26933393       3.83576320       4.56683401       0.00000000 NULL
P        4.34709980       2.79119895       2.72851498       0.00000000 NULL
P        1.84894688       2.36909938       2.72851498       0.00000000 NULL
P        3.46357228       0.41668528       2.72851498       0.00000000 NULL
P       -0.90462254       4.85857231       1.24081161       0.00000000 NULL
P       -0.53546279       2.36427135       1.24081161       0.00000000 NULL
P        1.44008533       3.93112356       1.24081161       0.00000000 NULL
P        4.35830860       0.33210765       6.38377305       0.00000000 NULL
P        3.97297801       3.60835214       6.38377305       0.00000000 NULL
P        1.32833235       1.63652381       6.38377305       0.00000000 NULL
15
Lattice="6.366057714181963 -2.983874348913455e-16 0.0 -3.18302885709098 5.513167702439473 0.0 0.0 0.0 8.789071469291713" Properties=species:S:1:pos:R:3:initial_magmoms:R:1:castep_labels:S:1 n_minim_iter=20 pbc="T T T"
P        5.18760413       1.64684696       7.93136337       0.00000000 NULL
P        2.34604435       3.66917348       7.93136337       0.00000000 NULL
P        2.01543810       0.19714726       7.93136337       0.00000000 NULL
P        0.52945806       2.52229105       4.61399878       0.00000000 NULL
P        0.73393170       4.71054631       4.61399878       0.00000000 NULL
P       -1.26338976       3.79349805       4.61399878       0.00000000 NULL
P        4.29165256       2.75830290       2.76095298       0.00000000 NULL
P        1.83147105       2.33752869       2.76095298       0.00000000 NULL
P        3.42596296       0.41733611       2.76095298       0.00000000 NULL
P       -0.89447685       4.79806293       1.25544634       0.00000000 NULL
P       -0.52497711       2.33949656       1.25544634       0.00000000 NULL
P        1.41945395       3.88877591       1.25544634       0.00000000 NULL
P        4.29670563       0.31713059       6.47535549       0.00000000 NULL
P        3.94306175       3.56249093       6.47535549       0.00000000 NULL
P        1.30931919       1.63354618       6.47535549       0.00000000 NULL
15
Lattice="6.336640225087291 1.7459624737013654e-16 0.0 -3.168320112543645 5.487691409567935 0.0 0.0 0.0 8.971416422972526" Properties=species:S:1:pos:R:3:initial_magmoms:R:1:castep_labels:S:1 n_minim_iter=21 pbc="T T T"
P        5.16967229       1.65451639       8.08213905       0.00000000 NULL
P        2.31895085       3.64980934       8.08213905       0.00000000 NULL
P        2.01633719       0.18336568       8.08213905       0.00000000 NULL
P        0.53027076       2.50173766       4.70446204       0.00000000 NULL
P        0.73661636       4.69605053       4.70446204       0.00000000 NULL
P       -1.26688712       3.77759463       4.70446204       0.00000000 NULL
P        4.26610263       2.74449426       2.81903716       0.00000000 NULL
P        1.82678716       2.32230613       2.81903716       0.00000000 NULL
P        3.41207054       0.42089103       2.81903716       0.00000000 NULL
P       -0.89038734       4.77136819       1.28106839       0.00000000 NULL
P       -0.51861228       2.33090927       1.28106839       0.00000000 NULL
P        1.40899961       3.87310537       1.28106839       0.00000000 NULL
P        4.26542482       0.30381472       6.62835638       0.00000000 NULL
P        3.94081655       3.54205889       6.62835638       0.00000000 NULL
P        1.29871897       1.64181780       6.62835638       0.00000000 NULL
15
Lattice="6.313649946550931 -4.214197367052254e-16 0.0 -3.1568249732754645 5.4677812443153675 0.0 0.0 0.0 8.975081015445586" Properties=species:S:1:pos:R:3:initial_magmoms:R:1:castep_labels:S:1 n_minim_iter=22 pbc="T T T"
P        5.15178975       1.65067841       8.08314974       0.00000000 NULL
P        2.30822564       3.63624160       8.08314974       0.00000000 NULL
P        2.01045953       0.18086124       8.08314974       0.00000000 NULL
P        0.52883873       2.49155772       4.70573018       0.00000000 NULL
P        0.73465333       4.67999016       4.70573018       0.00000000 NULL
P       -1.26349206       3.76401461       4.70573018       0.00000000 NULL
P        4.24993115       2.73436575       2.82027097       0.00000000 NULL
P        1.82065417       2.31336547       2.82027097       0.00000000 NULL
P        3.39988960       0.42005004       2.82027097       0.00000000 NULL
P       -0.88700737       4.75339348       1.28156301       0.00000000 NULL
P       -0.51623085       2.32291359       1.28156301       0.00000000 NULL
P        1.40323822       3.85925542       1.28156301       0.00000000 NULL
P        4.24836567       0.30088962       6.63395442       0.00000000 NULL
P        3.92888906       3.52874779       6.63395442       0.00000000 NULL
P        1.29322019       1.63814384       6.63395442       0.00000000 NULL
15