28
Lattice="4.361091928564368 7.226853308450317e-07 -2.252768272660806e-16 -2.180546925747179 5.802023072617776 -0.9655565276639294 5.16982756192681e-07 -3.1197662843850424 21.267538656126664" Properties=species:S:1:pos:R:3:initial_magmoms:R:1:castep_labels:S:1:forces:R:3 n_minim_iter=16 energy=-151.639596641422 stress="2.2666712604705545e-06 3.8095315302026124e-08 1.9047657651013062e-08 3.8095315302026124e-08 -1.529526909376349e-05 -1.1047641437587574e-05 1.9047657651013062e-08 -1.1047641437587574e-05 1.0933355491681497e-05" free_energy=-151.639596641422 pbc="T T T"
P        2.44766070       3.27334124       6.44347466       0.00000000 NULL       0.00019000      -0.00136300      -0.00009000
P        1.91343040       1.71345801      17.07724399       0.00000000 NULL      -0.00019000      -0.00136300      -0.00009000
P        3.28899747       0.96959032       3.26363422       0.00000000 NULL       0.00072000      -0.00280700      -0.00028700
P        1.07209439      -0.59029319      13.89740355       0.00000000 NULL      -0.00072000      -0.00281000      -0.00028900
P        1.81825974       6.35361299      -1.01962312       0.00000000 NULL       0.00434500      -0.00178800       0.00062900
P       -1.81826159       4.79372924       9.61414621       0.00000000 NULL      -0.00434600      -0.00179000       0.00063000
P        1.29116448      -0.00596424       8.08940969       0.00000000 NULL      -0.00248400       0.00570200      -0.00016400
P        3.06992770      -1.56584709      18.72317902       0.00000000 NULL       0.00248500       0.00570300      -0.00016300
P        0.34174394      -0.01860274      17.73475904       0.00000000 NULL       0.00272100       0.00084700       0.00139300
P       -0.34174419       1.54128029       7.10098971       0.00000000 NULL      -0.00272200       0.00084600       0.00139200
P        2.04699129      -0.01009476      19.95310051       0.00000000 NULL       0.00558200      -0.00237600      -0.00185300
P        2.31410038       1.54978842       9.31933118       0.00000000 NULL      -0.00558000      -0.00237700      -0.00185400
P        3.55863353       1.96297504      12.72828291       0.00000000 NULL       0.00189500      -0.00016600       0.00013900
P       -3.55863445       3.52285700       2.09451358       0.00000000 NULL      -0.00189700      -0.00016400       0.00013900
P        1.76837749      -1.56413891      16.93127937       0.00000000 NULL       0.00062200      -0.00329700      -0.00141900
P       -1.76837723      -0.00425636       6.29751004       0.00000000 NULL      -0.00062100      -0.00329600      -0.00141900
P       -2.65568337       4.30162539      11.57964074       0.00000000 NULL       0.00124900       0.00135300      -0.00071900
P        2.65568169       5.86150941       0.94587141       0.00000000 NULL      -0.00124700       0.00135000      -0.00071900
P        2.00797149       1.74054550       1.66000612       0.00000000 NULL      -0.00261400      -0.00223300       0.00298100
P        2.35312011       0.18066241      12.29377545       0.00000000 NULL       0.00261600      -0.00223100       0.00298200
P        3.15676112       0.15108345      16.02174023       0.00000000 NULL      -0.00061800       0.00191100       0.00057900
P        1.20433050       1.71096627       5.38797090       0.00000000 NULL       0.00061900       0.00191000       0.00057900
P        3.06599907       1.75853506      19.01180096       0.00000000 NULL      -0.00196900       0.00206200       0.00046100
P       -3.06599991       3.31841719       8.37803163       0.00000000 NULL       0.00196900       0.00206500       0.00046000
P       -0.71825628      -0.27637628      21.65724214       0.00000000 NULL       0.00118700       0.00122600      -0.00072300
P        0.71825611       1.28350710      11.02347281       0.00000000 NULL      -0.00118900       0.00122700      -0.00072100
P       -0.25620088       2.90920236       3.94141516       0.00000000 NULL       0.00328900       0.00092800      -0.00092600
P        0.25620018       1.34931931      14.57518449       0.00000000 NULL      -0.00329000       0.00092900      -0.00092600
