14
Lattice="5.583220981118278 1.0930139552241203 1.534747124112754 2.567188444358228 7.977208328661109 2.5105354598529765 3.933613440573573 6.044467672563818 9.015043201416688" Properties=species:S:1:pos:R:3:initial_magmoms:R:1:castep_labels:S:1:forces:R:3 n_minim_iter=15 energy=-76.035570506031 stress="-2.547256786391034e-05 -1.1153242991260176e-06 5.756512511618156e-07 -1.1153242991260176e-06 8.059117516265418e-06 4.533253602899298e-06 5.756512511618156e-07 4.533253602899298e-06 -1.7737254176423446e-05" free_energy=-76.035570506031 pbc="T T T"
P        7.33528263       6.52664885       5.67775636       0.00000000 NULL      -0.00204700      -0.00343200      -0.00052100
P        8.65003995      11.60937070      12.53049836       0.00000000 NULL      -0.00540600      -0.00517300      -0.00193800
P        6.90173094       5.26739580       3.80862456       0.00000000 NULL       0.00572000       0.00394800       0.00201500
P        5.72647489       9.66598837       5.95638506       0.00000000 NULL       0.00172800       0.00147200       0.00211900
P        4.47723450       8.26609992       8.84119406       0.00000000 NULL       0.00112500       0.00198600       0.00229900
P        3.59724043      10.07908294       5.50736489       0.00000000 NULL      -0.00179500       0.00157100       0.00001100
P        4.21683196       5.17354297       8.00000702       0.00000000 NULL       0.00406800      -0.00240000      -0.00348800
P        9.93324465      12.88925978       9.77340608       0.00000000 NULL       0.00074200       0.00061600      -0.00103500
P        8.12627648      10.31100171      10.72729196       0.00000000 NULL      -0.00008100      -0.00189800       0.00239000
P        8.06830579      11.85057922       9.05653511       0.00000000 NULL      -0.00256800       0.00184100      -0.00017500
P        5.77649184       9.92717441       8.15560471       0.00000000 NULL      -0.00213700      -0.00182100      -0.00015700
P        6.13880823       5.63694996       9.04713662       0.00000000 NULL      -0.00046200       0.00254500      -0.00038700
P        9.30965644       8.20598467       8.62087464       0.00000000 NULL      -0.00154300      -0.00071900       0.00269600
P        5.34999971       7.51299268       5.65891976       0.00000000 NULL       0.00265600       0.00146500      -0.00382700
