12
Lattice="6.874501764642932 -8.704345604616044e-16 -3.356314104604346e-16 1.1695150156479684e-15 6.874501764642931 -2.2872315660004595e-16 -3.4372508823214676 -3.4372508823214645 4.854836388972309" Properties=species:S:1:pos:R:3:initial_magmoms:R:1:castep_labels:S:1:forces:R:3 n_minim_iter=18 energy=-64.787932709012 stress="-5.4699918192775135e-05 0.0 0.0 0.0 -5.4699918192775135e-05 0.0 0.0 0.0 -1.6170254700812412e-05" free_energy=-64.787932709012 pbc="T T T"
P       -1.91928888       3.71717467       3.62847709       0.00000000 NULL       0.00492500       0.00106000       0.00094100
P        1.91928958       3.15732779       3.62847709       0.00000000 NULL      -0.00492800      -0.00105700       0.00094200
P        3.71717467       1.91928958       3.62847709       0.00000000 NULL       0.00106000      -0.00492800       0.00094200
P        3.15732779      -1.91928888       3.62847709       0.00000000 NULL      -0.00105700       0.00492500       0.00094100
P       -0.27959411       1.51818911       2.18728342       0.00000000 NULL      -0.00060400       0.00028300       0.00125600
P        0.27959480      -1.51818841       2.18728342       0.00000000 NULL       0.00060400      -0.00028400       0.00125600
P        1.51818911       0.27959480       2.18728342       0.00000000 NULL       0.00028300       0.00060400       0.00125700
P       -1.51818841      -0.27959411       2.18728342       0.00000000 NULL      -0.00028400      -0.00060500       0.00125600
P        5.97422147       2.77976730       0.48067845       0.00000000 NULL       0.00106800      -0.00011100      -0.00219700
P        0.90028099       4.09473515       0.48067845       0.00000000 NULL      -0.00106900       0.00011300      -0.00219800
P        2.77976730       0.90028099       0.48067845       0.00000000 NULL      -0.00011100      -0.00106800      -0.00219800
P        4.09473515       5.97422147       0.48067845       0.00000000 NULL       0.00011300       0.00106900      -0.00219700
