24
Lattice="3.3450928602165346 0.010655048202003229 0.009933657273181237 0.8209261307384993 12.472166270203072 -1.805576990157333 0.8209261307385239 -0.928216573352559 12.567953442463523" Properties=species:S:1:pos:R:3:initial_magmoms:R:1:castep_labels:S:1:forces:R:3 n_minim_iter=17 energy=-130.93024603589 stress="5.323040021002168e-06 -7.521686986198717e-07 -6.364504372937375e-07 -7.521686986198717e-07 -3.8572753775378035e-06 3.7029843624362916e-06 -6.364504372937375e-07 3.7029843624362916e-06 -4.378007553505407e-06" free_energy=-130.93024603589 pbc="T T T"
P        0.86668015       7.59890060      -0.27812717       0.00000000 NULL       0.00014300       0.00605900       0.00169300
P        2.53922658       0.25973290       7.60469860       0.00000000 NULL       0.00014600       0.00211300       0.00592600
P        2.64309499       4.04545109       7.82245418       0.00000000 NULL       0.00029900      -0.00760900      -0.00134200
P        0.97054856       8.08108630       3.48306635       0.00000000 NULL       0.00029600      -0.00187200      -0.00749900
P        2.65117467       7.75465373       2.08624833       0.00000000 NULL      -0.00282300       0.00068700      -0.00052400
P        0.97862824       2.61855633       7.58465240       0.00000000 NULL      -0.00282500      -0.00047600       0.00072100
P        1.66596992       8.98742130       9.41707843       0.00000000 NULL       0.00259600      -0.00365500      -0.00596200
P        3.33851635      10.02834576       8.31124237       0.00000000 NULL       0.00259900      -0.00620300      -0.00322800
P        4.18586712       0.78883456      10.52710472       0.00000000 NULL       0.00140300       0.00166300      -0.00408800
P        2.51332069      10.55117206       0.04513644       0.00000000 NULL       0.00140200      -0.00396100       0.00194600
P        2.54451652       8.68589995      -1.23903279       0.00000000 NULL      -0.00346200      -0.00110600       0.00436100
P        4.21706295      -0.62273668       8.75628647       0.00000000 NULL      -0.00346500       0.00427300      -0.00140900
P        2.64517112       5.55195308       1.53698090       0.00000000 NULL       0.00328100       0.00155800       0.00482500
P        0.97262469       1.91646788       5.42579699       0.00000000 NULL       0.00327800       0.00492100       0.00121700
P        0.97009736       4.71384372       2.71741907       0.00000000 NULL      -0.00105800      -0.00156300       0.00327500
P        2.64264379       3.04600661       4.51705722       0.00000000 NULL      -0.00105500       0.00315800      -0.00178800
P        2.51133399      -0.26007196      11.60792649       0.00000000 NULL      -0.00119900      -0.00357300      -0.00229900
P        4.18388042      11.56658490      -1.06691136       0.00000000 NULL      -0.00119900      -0.00254200      -0.00340400
P        3.33129869       1.05662988       1.99399806       0.00000000 NULL      -0.00116100       0.00415800       0.00473700
P        1.65875226       2.05773458       0.90951101       0.00000000 NULL      -0.00116000       0.00501500       0.00381700
P        1.66344788       7.28940861       7.83374393       0.00000000 NULL      -0.00131300      -0.00111200       0.00124300
P        3.33599431       8.33004945       6.72821207       0.00000000 NULL      -0.00131000       0.00116300      -0.00119500
P        0.93955654       6.02837706       4.53335402       0.00000000 NULL       0.00329400      -0.00068800      -0.00036000
P        2.61210297       4.94949305       5.70126878       0.00000000 NULL       0.00329400      -0.00040700      -0.00066100
