64
Lattice="10.07797722589882 5.34963593302354e-16 4.681831822784356e-16 1.4596853489912675e-16 12.553654526903726 3.7929815215260317e-16 -5.038988612949413 -6.276827263451864 14.594635573738094" Properties=species:S:1:pos:R:3:initial_magmoms:R:1:castep_labels:S:1:forces:R:3 n_minim_iter=15 energy=-341.135409714058 stress="9.802610688775293e-07 -0.0 0.0 -0.0 1.2082665440142363e-05 5.41580701037309e-09 0.0 5.41580701037309e-09 1.5435049979563306e-06" free_energy=-341.135409714058 pbc="T T T"
P        2.03398443       5.24820805       7.91186273       0.00000000 NULL       0.00622000      -0.00174400      -0.00410400
P       -2.03398443       7.30544647       7.91186273       0.00000000 NULL      -0.00621900       0.00174400      -0.00410300
P        3.00500419      -1.02861921       7.91186273       0.00000000 NULL      -0.00622000      -0.00174400      -0.00410400
P        7.07297304       1.02861921       7.91186273       0.00000000 NULL       0.00621900       0.00174400      -0.00410400
P       -0.08409703      -2.11911099       8.76513242       0.00000000 NULL      -0.00199700      -0.00407400       0.00111400
P        0.08409703       2.11911099       8.76513242       0.00000000 NULL       0.00199700       0.00407400       0.00111400
P        5.12308565       4.15771627       8.76513242       0.00000000 NULL       0.00199700      -0.00407400       0.00111400
P        4.95489158       8.39593825       8.76513242       0.00000000 NULL      -0.00199800       0.00407600       0.00111600
P        5.13012921       1.12580355       6.80398787       0.00000000 NULL       0.00155800       0.00172400      -0.00048400
P        4.94784802      -1.12580356       6.80398787       0.00000000 NULL      -0.00155900      -0.00172300      -0.00048400
P       -0.09114059       7.40263082       6.80398787       0.00000000 NULL      -0.00155800       0.00172300      -0.00048400
P        0.09114060       5.15102371       6.80398787       0.00000000 NULL       0.00155900      -0.00172300      -0.00048400
P        4.16152209       4.14369725      10.73535527       0.00000000 NULL      -0.00015900       0.00079100       0.00240900
P        5.91645514      -4.14369726      10.73535527       0.00000000 NULL       0.00015700      -0.00079200       0.00240900
P        0.87746653      -2.13313001      10.73535527       0.00000000 NULL       0.00015900       0.00079000       0.00240900
P       -0.87746653       2.13313001      10.73535527       0.00000000 NULL      -0.00015900      -0.00079100       0.00240900
P        7.37732533       3.25282435       2.52790256       0.00000000 NULL       0.00351200      -0.00293600       0.00474100
P        2.70065189       9.30083017       2.52790256       0.00000000 NULL      -0.00351400       0.00293600       0.00474200
P        7.73964051       9.52965162       2.52790256       0.00000000 NULL      -0.00351400      -0.00293400       0.00474200
P        2.33833672       3.02400290       2.52790256       0.00000000 NULL       0.00351400       0.00293600       0.00474100
P        3.43466826       5.69748639       6.22107161       0.00000000 NULL      -0.00356400       0.00336000       0.00702300
P        6.64330896       6.85616813       6.22107161       0.00000000 NULL       0.00356300      -0.00336000       0.00702300
P        1.60432035      -0.57934087       6.22107161       0.00000000 NULL       0.00356400       0.00335900       0.00702200
P       -1.60432035       0.57934087       6.22107161       0.00000000 NULL      -0.00356200      -0.00336000       0.00702300
P        6.16385230      -0.21384619       3.80611054       0.00000000 NULL       0.00018800       0.00759300      -0.00508400
P        3.91412493       0.21384619       3.80611054       0.00000000 NULL      -0.00018900      -0.00759700      -0.00508200
P        8.95311354       6.06298107       3.80611054       0.00000000 NULL      -0.00018800       0.00759700      -0.00508200
P        1.12486368       6.49067345       3.80611054       0.00000000 NULL       0.00018900      -0.00759700      -0.00508200
P        0.71171970       7.09246371      10.32376748       0.00000000 NULL       0.00611000       0.00265900      -0.00356900
P       -0.71171970       5.46119081      10.32376748       0.00000000 NULL      -0.00611000      -0.00265800      -0.00356900
P        4.32726891       0.81563645      10.32376748       0.00000000 NULL      -0.00611100       0.00265900      -0.00356900
P        5.75070832      -0.81563645      10.32376748       0.00000000 NULL       0.00611000      -0.00265900      -0.00356900
P       -2.50629573      -1.22401654       5.35675474       0.00000000 NULL       0.00037100      -0.00107100      -0.00302600
P        2.50629573       1.22401654       5.35675474       0.00000000 NULL      -0.00037200       0.00106900      -0.00302600
P        7.54528435       5.05281072       5.35675474       0.00000000 NULL      -0.00037300      -0.00107000      -0.00302500
P        2.53269288       7.50084380       5.35675474       0.00000000 NULL       0.00037200       0.00107000      -0.00302500
P       -0.79221849      -3.53339225      10.31238816       0.00000000 NULL       0.00006400       0.00188200      -0.00210800
P        0.79221849       3.53339225      10.31238816       0.00000000 NULL      -0.00006400      -0.00188200      -0.00210800
P        5.83120711       2.74343501      10.31238816       0.00000000 NULL      -0.00006400       0.00188200      -0.00210800
P        4.24677012      -2.74343501      10.31238816       0.00000000 NULL       0.00006400      -0.00188600      -0.00211000
P        0.66685888       8.37497674       2.75736580       0.00000000 NULL       0.00225900      -0.00068300       0.00018500
P        9.41111835       4.17867779       2.75736580       0.00000000 NULL      -0.00225800       0.00068300       0.00018500
P        4.37212974       2.09814947       2.75736580       0.00000000 NULL      -0.00226000      -0.00068300       0.00018600
P        5.70584749      10.45550505       2.75736580       0.00000000 NULL       0.00226000       0.00068600       0.00018700
P       -1.08904566      11.08121927       3.59736665       0.00000000 NULL      -0.00047000      -0.00079700       0.00634000
P        1.08904566       1.47243525       3.59736665       0.00000000 NULL       0.00047200       0.00079400       0.00634000
P        6.12803427       4.80439201       3.59736665       0.00000000 NULL       0.00047200      -0.00079400       0.00634000
P        3.94994295       7.74926251       3.59736665       0.00000000 NULL      -0.00047200       0.00079400       0.00634000
P       -3.47003418      -1.10789347       8.33447463       0.00000000 NULL       0.00521500       0.00311800       0.00500200
P        3.47003418       1.10789347       8.33447463       0.00000000 NULL      -0.00521500      -0.00311800       0.00500200
P       -1.56895443       5.16893379       8.33447463       0.00000000 NULL      -0.00521500       0.00311700       0.00500200
P        1.56895443       7.38472073       8.33447463       0.00000000 NULL       0.00521500      -0.00311800       0.00500200
P        2.85144999       4.31135527       4.52414491       0.00000000 NULL      -0.00174600       0.00022500      -0.00539100
P        7.22652724       8.24229925       4.52414491       0.00000000 NULL       0.00174600      -0.00022400      -0.00539100
P        2.18753863      -1.96547199       4.52414491       0.00000000 NULL       0.00174600       0.00022600      -0.00539000
P        7.89043860       1.96547199       4.52414491       0.00000000 NULL      -0.00174800      -0.00022500      -0.00539100
P        1.14711755       1.28262349      10.50639966       0.00000000 NULL      -0.00098600       0.00596300       0.00192200
P       -1.14711755      -1.28262349      10.50639966       0.00000000 NULL       0.00098600      -0.00596400       0.00192200
P        3.89187106       7.55945075      10.50639966       0.00000000 NULL       0.00098800       0.00596700       0.00192200
P        6.18610617       4.99420377      10.50639966       0.00000000 NULL      -0.00098600      -0.00596300       0.00192200
P        0.20417822       9.59002925       4.61093207       0.00000000 NULL       0.00250300       0.00204300      -0.00497500
P       -0.20417822       2.96362528       4.61093207       0.00000000 NULL      -0.00250200      -0.00204000      -0.00497400
P        4.83481039       3.31320198       4.61093207       0.00000000 NULL      -0.00250300       0.00204000      -0.00497400
P        5.24316683       9.24045254       4.61093207       0.00000000 NULL       0.00250400      -0.00204000      -0.00497400
