60
Lattice="14.031540023133426 -5.1212090469159e-16 -1.160525660637161e-16 7.015770011566713 9.598268810115234 0.5185746071246866 7.015770011566711 3.0646832293995296 9.110620202698767" Properties=species:S:1:pos:R:3:initial_magmoms:R:1:castep_labels:S:1:forces:R:3 n_minim_iter=4 energy=-319.360555999819 stress="0.00012961682465815582 0.0 -0.0 0.0 -7.063971680057034e-05 2.9351590905618894e-05 -0.0 2.9351590905618894e-05 -8.69424669528994e-05" free_energy=-319.360555999819 pbc="T T T"
P       18.71230223       6.03743946       3.47110956       0.00000000 NULL      -0.00647300       0.00012500       0.00509700
P        9.35077782       8.22506468       0.59425497       0.00000000 NULL       0.00647300       0.00494500      -0.00124100
P       16.36654783       7.70468015       4.73891704       0.00000000 NULL       0.00647300      -0.00494500       0.00124100
P       11.69653222       9.89230537       1.86206246       0.00000000 NULL      -0.00647300      -0.00012600      -0.00509600
P       13.07812807      11.24346100       4.44274857       0.00000000 NULL       0.00314600       0.00945900       0.00053100
P       14.98495198      10.55258469       5.35129115       0.00000000 NULL      -0.00314600       0.00304200       0.00897500
P        7.96918197       5.37716014      -0.01811914       0.00000000 NULL      -0.00314700      -0.00304200      -0.00897500
P        6.06235806       4.68628384       0.89042345       0.00000000 NULL       0.00314700      -0.00945900      -0.00053100
P       16.97675226       5.27637068      -0.50571657       0.00000000 NULL      -0.00204400       0.00333400      -0.00020300
P       11.08632779       4.18948508       0.92360130       0.00000000 NULL       0.00204400       0.00069700       0.00326900
P       18.10209780      11.74025976       4.40957072       0.00000000 NULL       0.00204300      -0.00069800      -0.00327000
P       23.99252227      10.65337416       5.83888859       0.00000000 NULL      -0.00204300      -0.00333500       0.00020300
P       18.63221014      11.18949123       9.59760891       0.00000000 NULL      -0.00292900       0.00006300      -0.00165500
P       16.44663992       5.90728242       3.40316401       0.00000000 NULL       0.00293000      -0.00158000       0.00050300
P        2.41509990       0.42419361       1.41143339       0.00000000 NULL       0.00293000       0.00158000      -0.00050200
P       18.63221014       7.80493684       4.84618330       0.00000000 NULL      -0.00293000      -0.00006300       0.00165700
P        9.11043930       3.46167843      -0.01970200       0.00000000 NULL       0.00274500       0.00177800      -0.00031300
P       11.93687074       7.23756305       8.15564694       0.00000000 NULL      -0.00274600       0.00017500       0.00179500
P       11.93687074      11.75686501       6.28814527       0.00000000 NULL      -0.00274600      -0.00017500      -0.00179900
P        9.11043930       2.86979759       4.83429941       0.00000000 NULL       0.00274500      -0.00177900       0.00031100
P       22.63504421       7.75606538       6.89701838       0.00000000 NULL      -0.00311400       0.00049200      -0.00087700
P       12.44380586       2.38738412       0.81628979       0.00000000 NULL       0.00311400      -0.00071300       0.00070800
P       12.44380586       3.94409190       3.99830762       0.00000000 NULL       0.00311400       0.00071300      -0.00070800
P       22.63504421      11.23836268       7.54677384       0.00000000 NULL      -0.00311400      -0.00049200       0.00087700
P       12.11612150       0.72776552       2.42536670       0.00000000 NULL      -0.00081300      -0.00541000       0.00014900
P       22.96272856       8.86311978       4.86775915       0.00000000 NULL       0.00081200      -0.00130400      -0.00525300
P       22.96272856      10.13130829       9.57603307       0.00000000 NULL       0.00081200       0.00130500       0.00525400
P       12.11612150       5.60371051       2.38923070       0.00000000 NULL      -0.00081200       0.00541100      -0.00014700
P       24.86146696      11.18804943       9.83297641       0.00000000 NULL      -0.00473300      -0.00131300       0.00054400
P       10.21738311       6.13370480       3.33887684       0.00000000 NULL       0.00473300       0.00017300      -0.00141100
P       10.21738311       0.19777122       1.47572057       0.00000000 NULL       0.00473300      -0.00017300       0.00141100
P       10.82992693       7.80637863       4.61081581       0.00000000 NULL      -0.00473300       0.00131300      -0.00054400
P        8.28752187       3.95137115       3.14915553       0.00000000 NULL      -0.00470500       0.00099300      -0.00116500
P       12.75978817      10.42203770       7.78070928       0.00000000 NULL       0.00470600      -0.00085900       0.00127000
P       12.75978817       8.57239037       6.66308293       0.00000000 NULL       0.00470500       0.00085800      -0.00126900
P        8.28752187       2.38010487       1.66544188       0.00000000 NULL      -0.00470500      -0.00099300       0.00116600
P       18.05835910      12.25861164       7.69018247       0.00000000 NULL       0.00032900       0.00600000       0.00020900
P       17.02049097       4.35492861       4.94312886       0.00000000 NULL      -0.00032900       0.00180900       0.00572800
P        2.98895094       1.97654741      -0.12853145       0.00000000 NULL      -0.00032800      -0.00181100      -0.00573100
P       18.05835910       6.73581642       6.75360974       0.00000000 NULL       0.00032900      -0.00600300      -0.00021300
P       12.44157486       9.15043261       3.75214471       0.00000000 NULL       0.00033600       0.00009900       0.00013700
P       15.62150520       9.32777171       3.51893347       0.00000000 NULL      -0.00033600       0.00015800       0.00005800
P        8.60573518       6.60197313       1.81423854       0.00000000 NULL      -0.00033600      -0.00015700      -0.00005700
P       19.45734487       6.77931222       1.58102730       0.00000000 NULL       0.00033600      -0.00009800      -0.00013600
P        2.59389458       3.74780078       1.11407560       0.00000000 NULL       0.00037500      -0.00611400       0.00308400
P       18.45341546       8.40656873       8.12838156       0.00000000 NULL      -0.00037600       0.00133500      -0.00671800
P       18.45341546      10.58785934       6.31541066       0.00000000 NULL      -0.00037600      -0.00133300       0.00672000
P       16.62543461       2.58367524       3.70052180       0.00000000 NULL       0.00037500       0.00611600      -0.00308300
P       13.94519809       4.58938452       8.27083809       0.00000000 NULL      -0.00049500      -0.00471200       0.00379500
P       14.11788196       5.92968453       6.50826550       0.00000000 NULL       0.00049500       0.00239800      -0.00555500
P       21.13365197       3.46647472       7.41695211       0.00000000 NULL       0.00049500      -0.00239800       0.00555400
P       20.96096810       4.80677474       5.65437952       0.00000000 NULL      -0.00049500       0.00471200      -0.00379600
P       14.33824484       3.51984099       1.38700028       0.00000000 NULL       0.00299700       0.00191700      -0.00293700
P       20.74060522       8.60864948       7.83577787       0.00000000 NULL      -0.00299700      -0.00231800       0.00263200
P       20.74060522      10.38577858       6.60801434       0.00000000 NULL      -0.00299700       0.00231900      -0.00263300
P       14.33824484       2.81163503       3.42759712       0.00000000 NULL       0.00299700      -0.00191700       0.00293800
P       15.21428934       4.01708849       6.43504183       0.00000000 NULL       0.00056000       0.00165300      -0.00653900
P       12.84879072       4.00771627       6.44736684       0.00000000 NULL      -0.00056000      -0.00586000       0.00334000
P       19.86456073       5.38844298       7.47785077       0.00000000 NULL      -0.00056000       0.00586000      -0.00334000
P        8.19851932       5.37907077       7.49017578       0.00000000 NULL       0.00056000      -0.00165300       0.00653900
