44
Lattice="5.198746706492889 -7.349418979361626e-18 0.0 -2.5993733532464445 10.385411692615058 0.0 0.0 0.0 19.327369341107183" Properties=species:S:1:pos:R:3:initial_magmoms:R:1:castep_labels:S:1:forces:R:3 n_minim_iter=13 energy=-240.857176322608 stress="-1.5055009497821499e-05 9.583074155201466e-09 0.0 9.583074155201466e-09 -2.0699440175235165e-05 0.0 0.0 0.0 -6.664069767527099e-05" free_energy=-240.857176322608 pbc="T T T"
P        4.05286423       1.47440122       1.21147944       0.00000000 NULL       0.00062800       0.00100800      -0.00322000
P       -1.45349088       8.91101046       1.21147944       0.00000000 NULL      -0.00062800      -0.00100800      -0.00322000
P        1.45349088       8.91101046       1.21147944       0.00000000 NULL       0.00062800      -0.00100800      -0.00322000
P        1.14588247       1.47440122       1.21147944       0.00000000 NULL      -0.00062800       0.00100800      -0.00322000
P        4.05329265       1.13511906      15.53582117       0.00000000 NULL       0.00252800       0.00080800      -0.00364600
P       -1.45391930       9.25029262      15.53582117       0.00000000 NULL      -0.00252800      -0.00080800      -0.00364600
P        1.45391929       9.25029262      15.53582117       0.00000000 NULL       0.00253000      -0.00080700      -0.00364600
P        1.14545405       1.13511906      15.53582117       0.00000000 NULL      -0.00253000       0.00080700      -0.00364600
P       -1.47109042       9.24510776       5.82825695       0.00000000 NULL      -0.00249800      -0.00127800      -0.00107500
P        4.07046376       1.14030392       5.82825695       0.00000000 NULL       0.00249800       0.00127800      -0.00107500
P        1.12828294       1.14030392       5.82825695       0.00000000 NULL      -0.00249900       0.00127800      -0.00107500
P        1.47109041       9.24510776       5.82825695       0.00000000 NULL       0.00249900      -0.00127800      -0.00107500
P       -1.13049889       6.31378007       6.09309960       0.00000000 NULL      -0.00000300       0.00079500       0.00242300
P        3.72987223       4.07163161       6.09309960       0.00000000 NULL       0.00000300      -0.00079500       0.00242300
P        1.46887447       4.07163161       6.09309960       0.00000000 NULL      -0.00000300      -0.00079500       0.00242300
P        1.13049888       6.31378007       6.09309960       0.00000000 NULL       0.00000300       0.00079500       0.00242300
P        1.12757796       4.07760070       3.20559942       0.00000000 NULL       0.00244600      -0.00232700       0.00474300
P        1.47179539       6.30781098       3.20559942       0.00000000 NULL      -0.00244600       0.00232700       0.00474300
P       -1.47179540       6.30781098       3.20559942       0.00000000 NULL       0.00244600       0.00232700       0.00474300
P        4.07116874       4.07760070       3.20559942       0.00000000 NULL      -0.00244500      -0.00232700       0.00474300
P        1.45184786       1.42239879       8.11437027       0.00000000 NULL       0.00402600       0.00210000      -0.00142800
P        1.14752549       8.96301289       8.11437027       0.00000000 NULL      -0.00402600      -0.00210000      -0.00142800
P       -1.14752550       8.96301289       8.11437027       0.00000000 NULL       0.00402600      -0.00210000      -0.00142800
P        3.74689884       1.42239879       8.11437027       0.00000000 NULL      -0.00402600       0.00210000      -0.00142800
P        1.15985894       1.13126462      10.65682145       0.00000000 NULL       0.00005300      -0.00272600       0.00022900
P        1.43951441       9.25414706      10.65682145       0.00000000 NULL      -0.00005300       0.00272600       0.00022900
P       -1.43951441       9.25414706      10.65682145       0.00000000 NULL       0.00005400       0.00272500       0.00022900
P        4.03888776       1.13126462      10.65682145       0.00000000 NULL      -0.00005400      -0.00272500       0.00022900
P       -1.15567013       9.25288489      18.31034823       0.00000000 NULL       0.00484300      -0.00429400      -0.00181300
P        3.75504348       1.13252679      18.31034823       0.00000000 NULL      -0.00484300       0.00429400      -0.00181300
P        1.44370322       1.13252679      18.31034823       0.00000000 NULL       0.00484200       0.00429500      -0.00181300
P        1.15567012       9.25288489      18.31034823       0.00000000 NULL      -0.00484200      -0.00429500      -0.00181300
P        1.48122129       6.73194977       8.28815315       0.00000000 NULL       0.00402700      -0.00180900       0.00073600
P        1.11815206       3.65346192       8.28815315       0.00000000 NULL      -0.00402700       0.00180800       0.00073600
P        4.08059464       3.65346192       8.28815315       0.00000000 NULL       0.00402700       0.00180800       0.00073600
P       -1.48122129       6.73194977       8.28815315       0.00000000 NULL      -0.00402700      -0.00180800       0.00073600
P        1.15543283       9.24063890      13.17479806       0.00000000 NULL      -0.00031200      -0.00352300       0.00125200
P        1.44394051       1.14477278      13.17479806       0.00000000 NULL       0.00031200       0.00352300       0.00125200
P        3.75480619       1.14477278      13.17479806       0.00000000 NULL      -0.00031300       0.00352300       0.00125200
P       -1.15543284       9.24063890      13.17479806       0.00000000 NULL       0.00031300      -0.00352300       0.00125200
P       -1.13588832       6.67665935       0.99959810       0.00000000 NULL       0.00013300      -0.00032700       0.00180000
P        3.73526167       3.70875233       0.99959810       0.00000000 NULL      -0.00013300       0.00032700       0.00180000
P        1.46348503       3.70875233       0.99959810       0.00000000 NULL       0.00013300       0.00032700       0.00180000
P        1.13588832       6.67665935       0.99959810       0.00000000 NULL      -0.00013300      -0.00032700       0.00180000
