4
Lattice="2.459036478500789 -0.20801531234841777 -0.06143795689840243 -1.8787149685386686 7.155515523703345 -0.288939312006682 -0.1895855925322625 -3.3077708551361997 3.6604814413618536" Properties=species:S:1:pos:R:3:initial_magmoms:R:1:castep_labels:S:1:forces:R:3 n_minim_iter=11 energy=-22.11218204479 stress="-5.835280096975367e-05 1.4463514770280823e-05 -9.077102373072792e-05 1.4463514770280823e-05 -0.0004910945130047075 -0.0003699002340675268 -9.077102373072792e-05 -0.0003699002340675268 -0.0003331595816050893" free_energy=-22.11218204479 pbc="T T T"
P       -0.46007433       4.94366896       1.77173451       0.00000000 NULL       0.00097400      -0.00183200      -0.00083600
P       -0.74951380       1.47136463       1.94880814       0.00000000 NULL      -0.00071300      -0.00088400      -0.00301100
P        1.51370916      -0.56148408       0.22497890       0.00000000 NULL      -0.00084900       0.00408500       0.00685100
P        1.80356332       2.91535958       0.05458912       0.00000000 NULL       0.00058800      -0.00136900      -0.00300400
