8
Lattice="4.602560149471648 1.363300501762447e-17 -0.16898909329894038 -1.7884382889816824e-17 6.9708330242048655 1.457976787655677e-16 -2.130933757766096 -1.0606121972487929e-16 4.714125777423052" Properties=species:S:1:pos:R:3:initial_magmoms:R:1:castep_labels:S:1:forces:R:3 n_minim_iter=12 energy=-41.528748414365 stress="-0.00010797635386386101 -0.0 2.164905725041298e-05 -0.0 4.450831024774345e-05 -0.0 2.164905725041298e-05 -0.0 4.208791875390846e-05" free_energy=-41.528748414365 pbc="T T T"
P        1.07801785       5.87030846       4.81129391       0.00000000 NULL      -0.00054900      -0.00402000       0.00012900
P       -1.22326223       1.10052457       4.89578845       0.00000000 NULL      -0.00054800       0.00402000       0.00012900
P        3.20916947       3.48678564       0.09856893       0.00000000 NULL       0.00122500      -0.00673600      -0.00098800
P        0.90788940       3.48404738       0.18306348       0.00000000 NULL       0.00122600       0.00673600      -0.00098800
P       -1.22353114       5.86998891       4.89470335       0.00000000 NULL       0.00102700      -0.00540900       0.00202100
P        1.07774893       1.10084411       4.81020880       0.00000000 NULL       0.00102700       0.00540900       0.00202100
P       -1.30735122       3.48531107       2.58221590       0.00000000 NULL      -0.00170500       0.00035400      -0.00116200
P        0.99392885       3.48552196       2.49772135       0.00000000 NULL      -0.00170400      -0.00035400      -0.00116300
