6
Lattice="4.613719143846473 0.0 0.0 0.0 4.596249255674762 0.40613148265058746 0.0 -0.4018812566792371 4.559706947725829" Properties=species:S:1:pos:R:3:initial_magmoms:R:1:castep_labels:S:1:forces:R:3 n_minim_iter=5 energy=-31.54937460145 stress="1.826666298686532e-05 0.0 -0.0 0.0 0.00012940596644065827 7.245092173442088e-05 -0.0 7.245092173442088e-05 5.644193619537037e-05" free_energy=-31.54937460145 pbc="T T T"
P        0.00058197       1.68552827       2.41499663       0.00000000 NULL      -0.00086300       0.00599200       0.00581300
P        4.61313718       1.48458764       4.69485010       0.00000000 NULL       0.00086300       0.00599300       0.00581400
P        0.00008758       3.78353858       4.90029845       0.00000000 NULL      -0.00119600      -0.00516200      -0.00435000
P        4.61363157       3.98447921       2.62044498       0.00000000 NULL       0.00119600      -0.00516300      -0.00435000
P        2.30581010       1.88786969       0.13612067       0.00000000 NULL       0.00551500      -0.00083000      -0.00146400
P        2.30790904       1.68692906       2.41597415       0.00000000 NULL      -0.00551500      -0.00083000      -0.00146400
