22
Lattice="7.953616972074744 0.6486725882515307 0.4808310703960991 0.7747867701319182 7.942323622596409 0.4808310703960933 1.2140510749275153 1.194938787494881 7.110586584336475" Properties=species:S:1:pos:R:3:initial_magmoms:R:1:castep_labels:S:1:forces:R:3 n_minim_iter=12 energy=-117.31947839526 stress="-1.7679839081563587e-05 -1.033801716024158e-05 1.008642824704986e-05 -1.033801716024158e-05 -1.7359635010228673e-05 9.949197930763467e-06 1.008642824704986e-05 9.949197930763467e-06 -1.9440961473905625e-06" free_energy=-117.31947839526 pbc="T T T"
P        1.92245583       4.05232536       3.39987501       0.00000000 NULL       0.00434500       0.00412100       0.00437400
P        4.08231784       1.85791772       3.39987501       0.00000000 NULL       0.00418900       0.00427700       0.00437500
P        4.01052723       5.50593814       1.13432807       0.00000000 NULL       0.00392500       0.00231700       0.00118200
P        5.56887797       3.92266257       1.13432807       0.00000000 NULL       0.00237900       0.00388800       0.00118200
P        2.55613048       8.07806848       7.93241630       0.00000000 NULL      -0.00089200      -0.00083000      -0.00223300
P        8.11760838       2.42763827       7.93241630       0.00000000 NULL      -0.00084400      -0.00088000      -0.00223300
P        4.73772093       6.24535610       4.45549671       0.00000000 NULL      -0.00276300       0.00021600      -0.00029500
P        6.31974084       4.63803278       4.45549671       0.00000000 NULL       0.00017200      -0.00276600      -0.00029500
P        5.66652605       8.10052557       5.21440725       0.00000000 NULL       0.00027500      -0.00039100      -0.00855400
P        8.18941365       5.53728599       5.21440725       0.00000000 NULL      -0.00038900       0.00028300      -0.00855400
P        1.48134913       3.41296822      -0.11319081       0.00000000 NULL      -0.00281100      -0.00427400      -0.00192400
P        3.43604238       1.42701090      -0.11319081       0.00000000 NULL      -0.00431700      -0.00274500      -0.00192500
P        5.41681988       6.90487194       2.14231935       0.00000000 NULL      -0.00206200       0.00203400       0.00391200
P        6.98994857       5.30658206       2.14231935       0.00000000 NULL       0.00200100      -0.00209500       0.00391200
P        1.41501343       6.47937507       6.90578106       0.00000000 NULL       0.00701400      -0.00295700       0.00288100
P        6.50101072       1.31203048       6.90578106       0.00000000 NULL      -0.00284800       0.00706300       0.00288100
P        1.22108133       3.23995806       5.95842922       0.00000000 NULL       0.00225200      -0.00736800       0.00203200
P        3.25892446       1.16952092       5.95842922       0.00000000 NULL      -0.00733000       0.00236800       0.00203100
P        3.40879350       8.92185730       2.42613983       0.00000000 NULL      -0.00912400       0.00019700       0.00190300
P        8.97481974       3.26680600       2.42613983       0.00000000 NULL       0.00005300      -0.00912700       0.00190300
P        2.43102229       5.99794173       2.55949117       0.00000000 NULL       0.00058800       0.00617900      -0.00327900
P        6.03575845       2.33555010       2.55949117       0.00000000 NULL       0.00618700       0.00048900      -0.00327800
