27
Lattice="5.199353001668619 -6.752226112932793e-42 -2.762588810547797e-41 1.616748087929387e-41 11.305494735392978 2.7160559997835225e-14 4.1296280396261924e-41 -5.652747367696511 9.790845643201532" Properties=species:S:1:pos:R:3:initial_magmoms:R:1:castep_labels:S:1:forces:R:3 n_minim_iter=7 energy=-142.925267701053 stress="3.944271043916515e-06 -0.0 -0.0 -0.0 6.428988045150267e-07 1.7375643365270992e-08 -0.0 1.7375643365270992e-08 6.428988045150267e-07" free_energy=-142.925267701053 pbc="T T T"
P        1.73923587      -0.71585828       2.03255521       0.00000000 NULL      -0.00117700      -0.00134700       0.00248400
P        1.73923587       4.25043262       8.15461560       0.00000000 NULL      -0.00117700      -0.00147800      -0.00240600
P        1.73923587      -3.53457265       9.39451949       0.00000000 NULL      -0.00117700       0.00282300      -0.00007600
P        4.74742116       0.22894101       7.92029586       0.00000000 NULL      -0.00077800       0.00267100      -0.00438400
P        4.74742116      -1.32090000       6.02896546       0.00000000 NULL      -0.00077800       0.00246200       0.00450600
P        4.74742116       1.09196068       5.63242897       0.00000000 NULL      -0.00077800      -0.00513300      -0.00012100
P        3.68096419       6.85044489       6.40742595       0.00000000 NULL      -0.00189000      -0.00186300       0.00442900
P        3.68096419       2.33127920       2.72894534       0.00000000 NULL      -0.00189100      -0.00290200      -0.00383000
P        3.68096419       7.77651970       0.65447336       0.00000000 NULL      -0.00189000       0.00476700      -0.00060200
P        4.80498964       0.58783570       3.45879845       0.00000000 NULL       0.00391900      -0.00524800       0.00166200
P        4.80498964       2.36342275       8.57052608       0.00000000 NULL       0.00391800       0.00118600      -0.00537400
P        4.80498964      -2.95125676       7.55236576       0.00000000 NULL       0.00391800       0.00406200       0.00371400
P        2.59647979      -0.34839921       8.26824551       0.00000000 NULL      -0.00526600       0.00027400       0.00299500
P        2.59647979      -1.33356312       5.35499934       0.00000000 NULL      -0.00526500      -0.00272900      -0.00126000
P        2.59647979       1.68196402       5.95844545       0.00000000 NULL      -0.00526500       0.00245500      -0.00173200
P        1.93956751      -3.47076852       5.47881294       0.00000000 NULL       0.00763500      -0.00515100       0.00174400
P        1.93956751       2.64334099       4.04566448       0.00000000 NULL       0.00763400       0.00106600      -0.00533400
P        1.93956751       0.82742922      10.05721287       0.00000000 NULL       0.00763500       0.00408500       0.00358800
P        2.75726488       1.07600422       1.24544255       0.00000000 NULL      -0.00029300       0.00202600      -0.00136800
P        2.75726488       9.68890830       0.30912473       0.00000000 NULL      -0.00029400       0.00017100       0.00243700
P        2.75726488       6.19333128       8.23627737       0.00000000 NULL      -0.00029300      -0.00219500      -0.00107000
P        2.67198053       5.15542427       2.04534594       0.00000000 NULL      -0.00063900       0.00353000       0.00503700
P        2.67198053       6.95646162       3.44205444       0.00000000 NULL      -0.00063900      -0.00612700       0.00053900
P        2.67198053       4.84635790       4.30344428       0.00000000 NULL      -0.00063900       0.00259700      -0.00557600
P        3.45193597      -2.16082597       9.20474959       0.00000000 NULL      -0.00151000      -0.00296900      -0.00380900
P        3.45193597      -1.23838607       3.31713968       0.00000000 NULL      -0.00150900       0.00478300      -0.00066600
P        3.45193597       3.39921373       7.05980103       0.00000000 NULL      -0.00150900      -0.00181400       0.00447600
