12
Lattice="6.540594163453427 0.023557509226988762 -2.497118734456524 -0.36542171735593865 5.583725468080681 -0.6693908395612462 -6.743632379661568 -1.5896869120607977 9.74200025011062" Properties=species:S:1:pos:R:3:initial_magmoms:R:1:castep_labels:S:1:forces:R:3 n_minim_iter=19 energy=-64.443447891065 stress="-3.821911739113805e-05 1.4356820155184983e-05 -1.1477567761425358e-05 1.4356820155184983e-05 0.0001133163305105672 -1.3804634764600947e-05 -1.1477567761425358e-05 -1.3804634764600947e-05 -5.10771486290235e-05" free_energy=-64.443447891065 pbc="T T T"
P       -0.69641365       4.45325695       0.06775470       0.00000000 NULL       0.00211600       0.00136000       0.00247500
P       -4.93458906       1.67002175       9.07331569       0.00000000 NULL       0.00154100       0.00451800       0.00136500
P       -4.00680010       3.97947635       8.83530782       0.00000000 NULL      -0.00135800       0.00269800      -0.00111400
P       -2.90301945       3.70755400       4.74626991       0.00000000 NULL       0.00421600      -0.00438300       0.00155400
P       -1.24520700       0.81395248       4.83835570       0.00000000 NULL      -0.00045100       0.00272400      -0.00285000
P        0.28977979       3.82431801       4.11692074       0.00000000 NULL       0.00051600      -0.00549900      -0.00034600
P       -1.33072338      -0.47230884       2.58309004       0.00000000 NULL      -0.00732900      -0.00275800      -0.00062600
P       -3.16745457       0.43526505       8.55646649       0.00000000 NULL       0.00266700      -0.00676700      -0.00054200
P       -0.71602662      -0.85772108       6.35439903       0.00000000 NULL       0.00317900       0.00527800       0.00697100
P        0.76084137       1.71292750       4.55584098       0.00000000 NULL       0.00135300       0.00649200      -0.00152500
P        4.92679765       3.15677631       0.46304155       0.00000000 NULL      -0.00333500      -0.00012000      -0.00803100
P       -2.56109508       2.00500374       6.15273663       0.00000000 NULL      -0.00311500      -0.00354300       0.00266800
