16
Lattice="7.879435365334141 -0.8111850386523567 -0.6862629619579393 -1.0553025385968284 7.154959377994075 -1.7624048703450257 -3.109417466462113 -4.311846653049943 7.313226538624737" Properties=species:S:1:pos:R:3:initial_magmoms:R:1:castep_labels:S:1:forces:R:3 n_minim_iter=16 energy=-87.066946473154 stress="7.020817412647007e-06 -1.8866513752047022e-06 -1.9485087973425614e-06 -1.8866513752047022e-06 9.371399453885653e-06 2.598011729790082e-06 -1.9485087973425614e-06 2.598011729790082e-06 1.1258050829090355e-05" free_energy=-87.066946473154 pbc="T T T"
P        5.69730006       0.84456560       1.35700631       0.00000000 NULL      -0.00236000      -0.00076900       0.00038800
P        3.43052768      -1.01822285      -0.42724872       0.00000000 NULL       0.00053300      -0.00376100      -0.00287500
P        2.37454571      -2.09884885       6.88872762       0.00000000 NULL      -0.00069000      -0.00292000       0.00576700
P       -0.63343272       5.56328020      -0.50716398       0.00000000 NULL      -0.00070000      -0.00097100      -0.00038800
P        2.14912797       3.63147718       0.24183479       0.00000000 NULL       0.00363600      -0.00470500      -0.00096300
P        5.35281349      -1.27492926       0.62928064       0.00000000 NULL      -0.00161300      -0.00178400       0.00313400
P        3.06593475      -0.22174426       2.99289260       0.00000000 NULL       0.00071500       0.00398800       0.00016100
P        0.61525067       3.76413085       2.02767791       0.00000000 NULL       0.00011600       0.00223100       0.00169200
P        0.00577869       1.49028719       2.25795819       0.00000000 NULL      -0.00098600       0.00253600      -0.00273500
P        3.28223363      -3.29916205       5.29979182       0.00000000 NULL       0.00047900      -0.00203900      -0.00471100
P        0.61404592       0.46394727       0.37985025       0.00000000 NULL      -0.00065700       0.00286500      -0.00046000
P        2.78118382       0.66000414       0.85601681       0.00000000 NULL       0.00394400       0.00333100       0.00273500
P        0.05241047       5.96320783       1.56284295       0.00000000 NULL      -0.00264200       0.00100700      -0.00244700
P        3.33230613       2.02677148      -1.00416194       0.00000000 NULL       0.00040300       0.00152700      -0.00468600
P        4.53802856      -1.87681892       2.62138057       0.00000000 NULL       0.00070700      -0.00291900       0.00458200
P        1.06087363       4.49274760      -1.46059909       0.00000000 NULL      -0.00088400       0.00238300       0.00080800
