33
Lattice="5.218663890436465 1.0447502694243992e-39 1.4479124993183672e-38 -4.411832338152408e-39 13.25085594845247 1.5802097998587115e-12 -2.834475152533562e-38 -6.625427974227602 11.475577873247195" Properties=species:S:1:pos:R:3:initial_magmoms:R:1:castep_labels:S:1:forces:R:3 n_minim_iter=3 energy=-175.076375003227 stress="-5.225841046003273e-05 -0.0 -0.0 -0.0 2.6085099988489932e-05 0.0 -0.0 0.0 2.6097701486068913e-05" free_energy=-175.076375003227 pbc="T T T"
P        1.11371974      -6.03990642      10.87504008       0.00000000 NULL      -0.00006000      -0.00347300      -0.00150000
P        4.59282900       0.22732086       0.80734429       0.00000000 NULL      -0.00005900       0.00303600      -0.00225900
P        2.85327437       5.81258753      11.26877022       0.00000000 NULL      -0.00006000       0.00043800       0.00375800
P        1.05884994      10.63742509       1.08510524       0.00000000 NULL      -0.00132400      -0.00039100      -0.00226700
P        4.53795921       6.99241536       8.66972659       0.00000000 NULL      -0.00132300       0.00215900       0.00079500
P        2.79840457       2.24644545       1.72074489       0.00000000 NULL      -0.00132400      -0.00176800       0.00147100
P        5.27540085       0.71741130       7.31007460       0.00000000 NULL       0.00149100      -0.00178500      -0.00448800
P        3.53584622      -0.06398733       8.44183584       0.00000000 NULL       0.00149100       0.00477900       0.00069800
P        1.79629159      -0.65342200       7.19924415       0.00000000 NULL       0.00149100      -0.00299400       0.00379000
P       -0.38164293       3.11681066       1.04443668       0.00000000 NULL      -0.00387100       0.00279100      -0.00448300
P        3.09746633      10.78794258       2.17701772       0.00000000 NULL      -0.00387100       0.00248700       0.00465900
P        1.35791170       5.97153266       8.25412232       0.00000000 NULL      -0.00387200      -0.00527800      -0.00017600
P        0.67495954       7.92593354       5.70824699       0.00000000 NULL       0.00322500      -0.00097100       0.00158800
P        4.15406880       4.34440293       4.00993515       0.00000000 NULL       0.00322600      -0.00089000      -0.00163500
P        2.41451417       7.60594943       1.75739458       0.00000000 NULL       0.00322600       0.00186100       0.00004700
P        2.83523136       9.88313103       4.21729286       0.00000000 NULL       0.00157800      -0.00097500      -0.00260500
P        1.09567673       4.65700834       6.45039496       0.00000000 NULL       0.00157700       0.00274300       0.00045800
P        4.57478599       5.33614654       0.80788890       0.00000000 NULL       0.00157800      -0.00176800       0.00214700
P        2.16228398       4.10567765       2.82703921       0.00000000 NULL      -0.00100700      -0.00083200       0.00065200
P        0.42272935       8.74973000       2.14210039       0.00000000 NULL      -0.00100700      -0.00014900      -0.00104700
P        3.90183861       7.02087825       6.50643712       0.00000000 NULL      -0.00100700       0.00098100       0.00039500
P        3.41859776       5.17525121       9.23292029       0.00000000 NULL       0.00367400      -0.00567000       0.00038700
P        1.67904313      -3.95814050      11.34101559       0.00000000 NULL       0.00367400       0.00249900      -0.00510300
P       -0.06051150      -1.21710873       2.37721870       0.00000000 NULL       0.00367400       0.00317000       0.00471700
P        3.76028153       2.50314097      12.32464151       0.00000000 NULL      -0.00186400       0.00156100       0.00068700
P        2.02072690      -5.29959450       7.48103964       0.00000000 NULL      -0.00186400      -0.00137500       0.00100800
P        5.49983616       2.79645550       3.14547344       0.00000000 NULL      -0.00186500      -0.00018500      -0.00169500
P        3.31568917       7.58157882       3.76871950       0.00000000 NULL       0.00098400      -0.00128400       0.00312900
P        1.57613454       6.19626037       4.68147897       0.00000000 NULL       0.00098300      -0.00206800      -0.00267700
P        5.05524380       6.09844671       3.02537825       0.00000000 NULL       0.00098400       0.00335200      -0.00045200
P        4.12785962       4.75492735       6.25567088       0.00000000 NULL      -0.00282500       0.00246500      -0.00056600
P        2.38830499       5.45582303       0.99005129       0.00000000 NULL      -0.00282600      -0.00074200       0.00241700
P        0.64875036       9.66553552       4.22985455       0.00000000 NULL      -0.00282600      -0.00172200      -0.00185100
