12
Lattice="5.344673092557034 -0.7327531911579238 -0.30579586227853417 -1.0839096442484006 6.741317551518734 -0.5585608624647873 -2.95040972610748 -1.2432250693120148 10.075559086597023" Properties=species:S:1:pos:R:3:initial_magmoms:R:1:castep_labels:S:1:forces:R:3 n_minim_iter=1 energy=-61.229559327577 stress="-3.026703414914297e-05 9.365318835763661e-05 0.0006184078929184029 9.365318835763661e-05 -2.613441987108691e-05 1.1961299072401692e-05 0.0006184078929184029 1.1961299072401692e-05 0.0008232633288566888" free_energy=-61.229559327577 pbc="T T T"
P       -0.60287361       4.89110302       1.20315173       0.00000000 NULL       0.15590800      -0.14191500       0.45570800
P       -1.81070032       2.33904782       9.17658359       0.00000000 NULL      -0.60215300       0.33926700      -0.84203100
P       -1.90296773       4.95642845       9.14984348       0.00000000 NULL       0.38729300      -0.17292500       0.39857400
P       -1.04138694       5.14444387       7.09017743       0.00000000 NULL      -1.07050600      -0.24337800      -0.38378100
P       -0.19523660       2.09551776       7.32216126       0.00000000 NULL      -0.04579100      -0.32646000      -0.30660400
P        2.03588345       3.86451570       6.14677679       0.00000000 NULL       0.26853800       0.09759700      -0.15571000
P       -0.45896588      -0.16907313       2.75111718       0.00000000 NULL      -0.01175800      -0.05900000      -0.02302600
P       -0.60584523       0.31811655       8.59262082       0.00000000 NULL       0.09136300       0.21370200       0.18801200
P        2.48482006      -1.96739559       8.67809990       0.00000000 NULL       0.31170500      -0.08516500       0.05557400
P        1.87968885       1.71836513       6.56748004       0.00000000 NULL       0.49601600       0.12790600       0.52638000
P        3.21022772       3.84449628       2.41303606       0.00000000 NULL      -0.11091200       0.06800800       0.13918900
P        0.36488554       3.07683692       9.24507214       0.00000000 NULL       0.13029800       0.18236500      -0.05228400
12
Lattice="5.366653047106521 -0.75716984600902 -0.4472623609022265 -1.0997361696370236 6.754789659008773 -0.5096794784176257 -3.239536205166488 -1.2366646189071877 9.780443373290746" Properties=species:S:1:pos:R:3:initial_magmoms:R:1:castep_labels:S:1:forces:R:3 n_minim_iter=2 energy=-61.675692993046 stress="-0.0062121202492582414 -0.0017816382843955296 -0.004166792618345188 -0.0017816382843955296 -0.0026682476916609077 0.0012948480751171834 -0.004166792618345188 0.0012948480751171834 -0.004565284014633116" free_energy=-61.675692993046 pbc="T T T"
P       -0.64039255       4.87960093       1.23234905       0.00000000 NULL       0.40178300      -0.26784200       0.74394900
P       -2.16763933       2.39262742       8.77182590       0.00000000 NULL      -0.73369000       0.29210400      -0.68065100
P       -2.13910074       4.94245051       8.90782282       0.00000000 NULL       0.37019500      -0.33140700       0.71095600
P       -1.41544584       5.11913418       6.80328931       0.00000000 NULL       0.09116800       0.38520500      -0.12140100
P       -0.41989443       2.05047622       7.00990796       0.00000000 NULL       0.36781500      -0.14660900      -0.47062800
P        1.88375577       3.87059392       5.83271207       0.00000000 NULL      -0.90346000      -0.09298500      -0.61817100
P       -0.53951327      -0.17672212       2.65750750       0.00000000 NULL       0.07036400       0.03148600       0.03166000
P       -0.84323647       0.34634380       8.30995992       0.00000000 NULL       0.04441000      -0.10647000       0.13098500
P        2.29192713      -1.99703081       8.28626166       0.00000000 NULL       0.21124600       0.15032100       0.12957900
P        1.75333872       1.72624404       6.33246619       0.00000000 NULL       0.23173300      -0.33295800       0.20968600
P        3.11407360       3.84332106       2.24678536       0.00000000 NULL      -0.07699800      -0.05733700       0.12702800
P        0.10470605       3.09956133       8.87660470       0.00000000 NULL      -0.07456400       0.47649000      -0.19299100
12
Lattice="5.436752822548128 -0.7455287398551044 -0.4342461333779199 -1.0965621835816783 6.793750594951334 -0.5319461223388039 -3.262190904065965 -1.2816172924533584 9.787006771857463" Properties=species:S:1:pos:R:3:initial_magmoms:R:1:castep_labels:S:1:forces:R:3 n_minim_iter=3 energy=-61.773356518377 stress="0.0015360518730975965 -0.0008705811532194854 -0.003719126943674195 -0.0008705811532194854 0.004440620187504728 0.00011659780183026523 -0.003719126943674195 0.00011659780183026523 0.0021645684215031336" free_energy=-61.773356518377 pbc="T T T"
P       -0.62494889       4.89725345       1.23595905       0.00000000 NULL       0.11811400      -0.20637500       0.55850700
P       -2.19053908       2.38798543       8.74075847       0.00000000 NULL      -0.53155100       0.32814100      -0.68848600
P       -2.11704583       4.93253552       8.91373136       0.00000000 NULL       0.05870900      -0.33054600       0.34528700
P       -1.43508842       5.12107510       6.78112000       0.00000000 NULL       0.23527500       0.45808900       0.11406900
P       -0.40019172       2.03006281       6.99816539       0.00000000 NULL       0.44440900      -0.13191100      -0.11306100
P        1.93864444       3.88449457       5.82314473       0.00000000 NULL      -0.94875700      -0.26728500      -0.44453500
P       -0.54044331      -0.18866919       2.65904300       0.00000000 NULL       0.01408200      -0.19897100       0.03092000
P       -0.82936274       0.32775648       8.32179994       0.00000000 NULL       0.05779400      -0.07896500       0.03978600
P        2.34999150      -2.02855566       8.30725013       0.00000000 NULL       0.32920700       0.04728900       0.25478300
P        1.81527040       1.72469922       6.35397032       0.00000000 NULL       0.14723100      -0.21011000       0.14701400
P        3.16946468       3.87018633       2.24954214       0.00000000 NULL       0.09310400       0.15252800      -0.04114300
P        0.14171326       3.10131098       8.87399135       0.00000000 NULL      -0.01761700       0.43811400      -0.20314000
12
Lattice="5.446015986238304 -0.7165499845787885 -0.37392067298079346 -1.0789956727117795 6.723311517149193 -0.5519509741166305 -3.169376463921468 -1.3006287057121115 9.674310731620732" Properties=species:S:1:pos:R:3:initial_magmoms:R:1:castep_labels:S:1:forces:R:3 n_minim_iter=4 energy=-61.849305799697 stress="-0.0019819443144934185 -0.00033300098968994346 0.0016095247979856877 -0.00033300098968994346 -0.004127146777376118 -2.9811574356483394e-05 0.0016095247979856877 -2.9811574356483394e-05 -0.002433921406071321" free_energy=-61.849305799697 pbc="T T T"
P       -0.58769804       4.83729720       1.22792501       0.00000000 NULL       0.29372700      -0.41817600       0.16858600
P       -2.11429626       2.35174887       8.61209114       0.00000000 NULL      -0.51993000       0.26703100      -0.59356500
P       -1.99392377       4.84931599       8.82274668       0.00000000 NULL      -0.15013500      -0.33124500       0.34536300
P       -1.37030778       5.05064216       6.69092038       0.00000000 NULL       0.53868800       0.33852400      -0.07323500
P       -0.31166900       1.98448975       6.92114639       0.00000000 NULL       0.40413200       0.11124400      -0.14173800
P        2.01980814       3.84184651       5.77719326       0.00000000 NULL      -0.84165600      -0.17460600      -0.57749800
P       -0.51345060      -0.19730253       2.63141940       0.00000000 NULL      -0.10150900       0.30530300       0.14728700
P       -0.73572704       0.30942209       8.24830934       0.00000000 NULL       0.03904000      -0.11914400       0.15836100
P        2.45302919      -2.01711373       8.26905582       0.00000000 NULL       0.25447300       0.23302000       0.43339500
P        1.91305915       1.70222926       6.33048443       0.00000000 NULL       0.21100000      -0.45825500      -0.09350900
P        3.21709651       3.84241553       2.25883859       0.00000000 NULL      -0.17118900      -0.10751500       0.19469100
P        0.25560252       3.06408497       8.79121242       0.00000000 NULL       0.04335900       0.35381900       0.03186500
12
Lattice="5.4075406762678 -0.6970220321197108 -0.4151022056444409 -1.0374826432471 6.743711099608546 -0.5173676682997895 -3.234878091674908 -1.2901034480324416 9.569304318652938" Properties=species:S:1:pos:R:3:initial_magmoms:R:1:castep_labels:S:1:forces:R:3 n_minim_iter=5 energy=-61.971703859435 stress="-0.0072508401260856555 0.00037350167718827614 -0.0010934034226954717 0.00037350167718827614 -0.0009517914123871204 0.0024864200146144525 -0.0010934034226954717 0.0024864200146144525 -0.0044517749749197495" free_energy=-61.971703859435 pbc="T T T"
P       -0.55875441       4.83585310       1.25667910       0.00000000 NULL       0.25308700      -0.24947900       0.26553500
P       -2.20712034       2.40486096       8.46726787       0.00000000 NULL      -0.27309400       0.13268900       0.09002100
P       -2.02734404       4.86420450       8.76268424       0.00000000 NULL       0.06919200      -0.45069200       0.27068000
P       -1.41196155       5.09486811       6.61570061       0.00000000 NULL       0.49172500       0.43687600      -0.03896100
P       -0.33967109       2.00203685       6.82365187       0.00000000 NULL       0.34046900       0.10375000      -0.01197900
P        1.94018826       3.87559411       5.66968938       0.00000000 NULL      -0.73789100      -0.08384100      -0.41983200
P       -0.53742484      -0.18928380       2.60463972       0.00000000 NULL      -0.00868100      -0.00130100       0.12107600
P       -0.79391088       0.33550938       8.15780733       0.00000000 NULL       0.03550300      -0.15648500       0.08249900
P        2.38233635      -1.98491554       8.15346890       0.00000000 NULL      -0.00274600       0.22428400       0.12337300
P        1.87995415       1.72394141       6.25294748       0.00000000 NULL      -0.10548200      -0.30822700      -0.71956700
P        3.18432330       3.88131866       2.22282348       0.00000000 NULL      -0.16620100      -0.00929500       0.18689100
P        0.19928871       3.12900038       8.67812552       0.00000000 NULL       0.10411900       0.36172100       0.05026300
12
Lattice="5.463570344152967 -0.7180576618129378 -0.44866891451917823 -1.0825183971434356 6.680525070060126 -0.5520696096593302 -3.329404483887359 -1.3261866140276337 9.56469079495051" Properties=species:S:1:pos:R:3:initial_magmoms:R:1:castep_labels:S:1:forces:R:3 n_minim_iter=6 energy=-62.003613219863 stress="-0.0036390135075254596 -0.0007349374803358725 -0.004082542551278848 -0.0007349374803358725 -0.00696273364761496 0.001722938566102573 -0.004082542551278848 0.001722938566102573 -0.00432028664450417" free_energy=-62.003613219863 pbc="T T T"
P       -0.59670021       4.76901400       1.23344551       0.00000000 NULL       0.13469800      -0.30520400       0.34146100
P       -2.32144213       2.34103081       8.41886234       0.00000000 NULL      -0.11288800       0.15571400       0.28151600
P       -2.13872388       4.74825010       8.72016987       0.00000000 NULL      -0.00765700      -0.42067000       0.22380700
P       -1.51074660       5.00546590       6.56184798       0.00000000 NULL       0.37937300       0.35031500       0.03084900
P       -0.39833836       1.93038896       6.78422164       0.00000000 NULL       0.32441900      -0.05991400      -0.15194900
P        1.87937984       3.77879932       5.59899207       0.00000000 NULL      -0.63779700       0.00801000      -0.39391700
P       -0.56319552      -0.20388369       2.60219980       0.00000000 NULL       0.06139400       0.23000400       0.06060000
P       -0.86274505       0.27871633       8.13430374       0.00000000 NULL       0.09805800      -0.01831600       0.04833400
P        2.36198179      -2.03377415       8.12420458       0.00000000 NULL       0.14899100       0.30824700       0.14815600
P        1.84752690       1.64510720       6.20132154       0.00000000 NULL      -0.48235200      -0.50760500      -0.89772800
P        3.16900729       3.80717752       2.16994512       0.00000000 NULL      -0.05905100      -0.19209400       0.09898200
P        0.12179106       3.04179181       8.62258750       0.00000000 NULL       0.15281100       0.45151400       0.20989100
12
Lattice="5.46210994569994 -0.8130798231416092 -0.4238629260346649 -1.2006962737114952 6.762434086040787 -0.6789317956989769 -3.2876084083112507 -1.4819099561226783 9.450615434489412" Properties=species:S:1:pos:R:3:initial_magmoms:R:1:castep_labels:S:1:forces:R:3 n_minim_iter=7 energy=-62.048860629158 stress="-0.008807077027586084 -0.0035976653270989073 -0.003269217368182207 -0.0035976653270989073 -0.0036592105434278396 -0.0033629931690704945 -0.003269217368182207 -0.0033629931690704945 -0.008598524361568237" free_energy=-62.048860629158 pbc="T T T"
P       -0.67448664       4.76873245       1.13862494       0.00000000 NULL       0.18908100      -0.09426700       0.23971900
P       -2.37466757       2.24229764       8.22813143       0.00000000 NULL      -0.00357300       0.33688400       0.42186900
P       -2.20741391       4.60443723       8.50950914       0.00000000 NULL      -0.03143100      -0.16662200       0.15024300
P       -1.60941900       4.93807311       6.35473777       0.00000000 NULL       0.73151100       0.41032700       0.03242300
P       -0.40949797       1.79602347       6.64513385       0.00000000 NULL       0.19715100      -0.63527900      -0.35320600
P        1.79419268       3.65120696       5.42814772       0.00000000 NULL      -0.66942200      -0.44978200      -0.55868600
P       -0.55889159      -0.25144078       2.57263349       0.00000000 NULL       0.14360000       0.01555400      -0.02102800
P       -0.84957413       0.12786064       8.01838066       0.00000000 NULL       0.09906300       0.08149600       0.01265700
P        2.42092788      -2.26026589       8.06188612       0.00000000 NULL       0.26531500       0.38424300       0.47793800
P        1.82265138       1.47956070       6.05645824       0.00000000 NULL      -0.78072800      -0.32197800      -1.29561300
P        3.08633323       3.73447159       2.07342066       0.00000000 NULL      -0.21351800      -0.14704100       0.17699100
P        0.09231308       2.90074250       8.44347598       0.00000000 NULL       0.07295100       0.58646200       0.71669300
12
Lattice="5.491476646581691 -0.8711854514395048 -0.4201028362933323 -1.2793369359239162 6.772697752584245 -0.6860927315696875 -3.284479001908427 -1.4648095398754182 9.387552741432213" Properties=species:S:1:pos:R:3:initial_magmoms:R:1:castep_labels:S:1:forces:R:3 n_minim_iter=8 energy=-62.125611792551 stress="-0.009045407234665783 -0.00697810449483407 -0.0023214874757187566 -0.00697810449483407 -0.005906859573121172 0.00033799935716777286 -0.0023214874757187566 0.00033799935716777286 -0.007189774567752628" free_energy=-62.125611792551 pbc="T T T"
P       -0.72520739       4.75098153       1.14102040       0.00000000 NULL       0.09446700       0.10019800       0.22871900
P       -2.43224553       2.27720890       8.15013548       0.00000000 NULL       0.00411300       0.18408100       0.44091000
P       -2.26472987       4.57698556       8.45178534       0.00000000 NULL      -0.02825100      -0.01185500       0.05664500
P       -1.69079742       4.94782738       6.28976337       0.00000000 NULL       0.84727000       0.54652900       0.09355500
P       -0.41629350       1.76565253       6.59333740       0.00000000 NULL       0.23812900      -0.40636500      -0.32451000
P        1.74593976       3.61280806       5.36744826       0.00000000 NULL      -0.65958300      -0.33542700      -0.50351400
P       -0.56065140      -0.25321857       2.55866743       0.00000000 NULL       0.32125200       0.00524600      -0.15432600
P       -0.84516768       0.13129974       7.96989866       0.00000000 NULL       0.11474900      -0.13760500       0.06846600
P        2.47862263      -2.29382480       8.02596285       0.00000000 NULL       0.41209400       0.36844300       0.29320300
P        1.80834968       1.43837110       5.97628647       0.00000000 NULL      -0.88802300      -0.27655500      -1.16468500
P        3.04625994       3.69787318       2.06220520       0.00000000 NULL      -0.31545000      -0.32975700       0.22792900
P        0.07957405       2.90799672       8.39425498       0.00000000 NULL      -0.14076700       0.29306700       0.73761000
12
Lattice="5.535758102789035 -0.8388574392970751 -0.43822796469461495 -1.250700213539163 6.774920126363417 -0.7797330354165146 -3.3855252924600405 -1.6481190218842394 9.21659377051355" Properties=species:S:1:pos:R:3:initial_magmoms:R:1:castep_labels:S:1:forces:R:3 n_minim_iter=9 energy=-62.245494499386 stress="-0.01175911207181911 -0.0030243020008762075 -0.005300953976315863 -0.0030243020008762075 -0.010516227842531494 -0.0037776218006964723 -0.005300953976315863 -0.0037776218006964723 -0.009790940167457516" free_energy=-62.245494499386 pbc="T T T"
P       -0.71078573       4.69053809       1.07052563       0.00000000 NULL       0.21618600      -0.10848800       0.35225500
P       -2.54162695       2.16967279       7.90521808       0.00000000 NULL       0.13179300      -0.37783200       0.59026500
P       -2.31664179       4.35479270       8.20351928       0.00000000 NULL       0.23216400       0.59660700       0.18357400
P       -1.76207478       4.84221566       6.04420049       0.00000000 NULL       0.98678200       0.19025900       0.01554900
P       -0.42813364       1.60495624       6.40589155       0.00000000 NULL       0.18170300      -0.30506400      -0.37116600
P        1.71487406       3.51080564       5.13336378       0.00000000 NULL      -0.74340000      -0.29703000      -0.72867000
P       -0.58434390      -0.30988379       2.51063919       0.00000000 NULL       0.19953300       0.05748300       0.00417000
P       -0.88771171       0.00138585       7.79989275       0.00000000 NULL       0.13156300      -0.08139400       0.14425300
P        2.48392425      -2.41148462       7.88566708       0.00000000 NULL       0.02533000       0.29232700       0.53141700
P        1.77456181       1.32682681       5.72673166       0.00000000 NULL      -1.01488600      -0.31112400      -1.29293100
P        3.05273774       3.67551387       1.94439378       0.00000000 NULL      -0.15970800      -0.13776800      -0.05171800
P        0.07015429       2.80267862       8.17432776       0.00000000 NULL      -0.18705900       0.48202600       0.62300000
12
Lattice="5.635937158168411 -0.8609464589050831 -0.43235836523295784 -1.2905096499926005 6.83784378178224 -0.7735304163548304 -3.442306167709531 -1.6645117823905546 8.946821551522655" Properties=species:S:1:pos:R:3:initial_magmoms:R:1:castep_labels:S:1:forces:R:3 n_minim_iter=10 energy=-62.3046812154 stress="-0.009409265862142448 -0.0032099220632962194 -0.005623394905818601 -0.0032099220632962194 -0.010043267959241826 -0.002781047652733261 -0.005623394905818601 -0.002781047652733261 -0.015644192710414236" free_energy=-62.3046812154 pbc="T T T"
P       -0.73505299       4.71590969       1.04441625       0.00000000 NULL       0.20016700      -0.06365100       0.44071200
P       -2.61215463       2.19216947       7.64851704       0.00000000 NULL       0.26061000      -0.31701300       0.83644600
P       -2.36237915       4.38279829       7.94818736       0.00000000 NULL       0.11647600       0.46941300       0.45988000
P       -1.81732736       4.88595645       5.83789235       0.00000000 NULL       0.70369500       0.24470600      -0.33507800
P       -0.42537311       1.60068512       6.20868893       0.00000000 NULL       0.16644900      -0.29780000      -0.63340200
P        1.71829410       3.52566046       4.94663729       0.00000000 NULL      -0.41504400      -0.26198800      -0.96675100
P       -0.59223722      -0.32464537       2.43846710       0.00000000 NULL       0.29808800       0.05153000       0.00574300
P       -0.89252559      -0.00267816       7.57518828       0.00000000 NULL       0.09681800      -0.30446000       0.22531800
P        2.55615879      -2.44677582       7.66648084       0.00000000 NULL       0.07589000       0.29271100       0.64092000
P        1.78891328       1.32793889       5.51304934       0.00000000 NULL      -1.12474800      -0.20780100      -1.39433400
P        3.08587455       3.70396701       1.87364645       0.00000000 NULL      -0.21585600      -0.21565300      -0.13432000
P        0.07226123       2.83748069       7.93160589       0.00000000 NULL      -0.16254400       0.61000400       0.85486600
12
Lattice="5.713572407607326 -0.9136283999104204 -0.4321135342536699 -1.3638158107651703 6.934985885737517 -0.8505314893664654 -3.505176266864964 -1.7966913994543026 8.691515236342958" Properties=species:S:1:pos:R:3:initial_magmoms:R:1:castep_labels:S:1:forces:R:3 n_minim_iter=11 energy=-62.463877924322 stress="-0.009638177238204544 -0.0031942955490918555 -0.006041873688438641 -0.0031942955490918555 -0.008477944278873729 -0.004773184869906432 -0.006041873688438641 -0.004773184869906432 -0.015340900953629803" free_energy=-62.463877924322 pbc="T T T"
P       -0.79094243       4.71092799       0.99726150       0.00000000 NULL       0.17352000       0.03352200       0.19346600
P       -2.74229640       2.11463692       7.33399148       0.00000000 NULL       0.29517500       0.02089600       0.88713900
P       -2.44122761       4.32408313       7.63880458       0.00000000 NULL       0.16333900       0.23564800       0.40225900
P       -1.93856935       4.87610760       5.52814055       0.00000000 NULL       0.58796700       0.09599800      -0.35452100
P       -0.42010140       1.50027906       5.97793465       0.00000000 NULL      -0.24176500      -0.57345200      -0.58962800
P        1.64780380       3.45780087       4.65369970       0.00000000 NULL      -0.26650200      -0.06671100      -0.58718100
P       -0.59242994      -0.40375736       2.37285764       0.00000000 NULL       0.49352300       0.64115500       0.31606400
P       -0.89769855      -0.13053137       7.36807389       0.00000000 NULL       0.19653500      -0.14224900       0.07135100
P        2.64701593      -2.62270885       7.49877555       0.00000000 NULL       0.01083300       0.33164500       0.28827700
P        1.72784626       1.25876288       5.20856658       0.00000000 NULL      -0.94469600      -0.21688100      -1.28078800
P        3.04771773       3.71282736       1.74057269       0.00000000 NULL      -0.39378100      -0.58340400      -0.13979900
P        0.03200473       2.80206871       7.66669926       0.00000000 NULL      -0.07414800       0.22383200       0.79335900
12
Lattice="5.776846520533326 -0.9557601222027303 -0.3814198724744216 -1.440518275946407 6.900579561998324 -0.8630104764952057 -3.447229043628342 -1.7862670517415893 8.448244616430161" Properties=species:S:1:pos:R:3:initial_magmoms:R:1:castep_labels:S:1:forces:R:3 n_minim_iter=12 energy=-62.625834124548 stress="-0.0030946530654248788 -0.001885525030679862 -0.0040905238544976805 -0.001885525030679862 -0.006429133996403222 -0.005864063282526666 -0.0040905238544976805 -0.005864063282526666 -0.01360481669979253" free_energy=-62.625834124548 pbc="T T T"
P       -0.83188300       4.64508587       0.98924607       0.00000000 NULL      -0.20652100       0.30670500       0.23409200
P       -2.76738016       2.09905533       7.07926684       0.00000000 NULL       0.13341400      -0.09862900       0.65295100
P       -2.39946790       4.28124517       7.42078032       0.00000000 NULL       0.06624700       0.14329900       0.16311000
P       -1.95445485       4.84840234       5.29157583       0.00000000 NULL       0.28516700      -0.20456800      -0.48210200
P       -0.37612083       1.45615800       5.83370168       0.00000000 NULL      -0.38146500      -0.55441700      -0.99025700
P        1.62384742       3.42922415       4.47664367       0.00000000 NULL       0.24969600       0.13565200      -0.35185200
P       -0.51746755      -0.36109736       2.34423952       0.00000000 NULL       0.34817500      -0.25838900       0.72633300
P       -0.77070536      -0.18524798       7.21233924       0.00000000 NULL       0.17124600      -0.01629700       0.24211300
P        2.83397827      -2.65152119       7.36572586       0.00000000 NULL      -0.10685400       0.35638800       0.27628300
P        1.73856644       1.24293631       4.98848399       0.00000000 NULL      -0.68169300      -0.29918200      -0.90060500
P        2.98936736       3.62172206       1.70280922       0.00000000 NULL       0.12513000       0.15868300      -0.61689400
P        0.09646703       2.75214509       7.50043691       0.00000000 NULL      -0.00254200       0.33075500       1.04682600
12
Lattice="5.808406909609843 -0.9743370669533721 -0.35539016677605983 -1.4740457887851883 6.889793858960448 -0.8542120211069922 -3.417630408177029 -1.765119240172758 8.286227452837476" Properties=species:S:1:pos:R:3:initial_magmoms:R:1:castep_labels:S:1:forces:R:3 n_minim_iter=13 energy=-62.801876135272 stress="0.00015849633021173536 0.0007510503890649842 -0.004201056340331366 0.0007510503890649842 -0.004763457275552695 -0.00460559680477382 -0.004201056340331366 -0.00460559680477382 -0.009213569715849376" free_energy=-62.801876135272 pbc="T T T"
P       -0.88217690       4.63180654       1.00855836       0.00000000 NULL       0.42380200      -0.12719100       0.29661900
P       -2.82306111       2.10879906       6.90472547       0.00000000 NULL       0.29739000      -0.30268700       0.58356900
P       -2.35158769       4.26175909       7.28258940       0.00000000 NULL      -0.19621200       0.11500200      -0.23188900
P       -1.93983055       4.84954223       5.12926817       0.00000000 NULL      -0.10540000      -0.21658200      -0.29878900
P       -0.36830776       1.45011007       5.72976522       0.00000000 NULL      -0.38312600      -0.55231000      -0.83038000
P        1.58713785       3.47183319       4.35965636       0.00000000 NULL       0.71271700      -0.01098000      -0.06902800
P       -0.44039530      -0.36403986       2.37990652       0.00000000 NULL       0.19236100       0.05191000       0.73632000
P       -0.66251768      -0.21207121       7.12937049       0.00000000 NULL       0.14608000       0.01157600       0.07298300
P        2.94536607      -2.62665665       7.26416680       0.00000000 NULL      -0.10142300       0.12800400       0.34980000
P        1.73537081       1.23795373       4.81863219       0.00000000 NULL      -0.69645800       0.18936700      -0.61408200
P        2.95270381       3.61158788       1.65378561       0.00000000 NULL      -0.05151900       0.09983000      -0.63261600
P        0.14200219       2.73889647       7.42327362       0.00000000 NULL      -0.23821300       0.61406200       0.63749300
12
Lattice="5.850376574741562 -0.9965529483923982 -0.3156884039950724 -1.515876134626125 6.888535066085282 -0.8712680146162383 -3.374638815560462 -1.781888997333111 8.08431174515106" Properties=species:S:1:pos:R:3:initial_magmoms:R:1:castep_labels:S:1:forces:R:3 n_minim_iter=14 energy=-62.99303518194 stress="0.00809375773792285 0.0005293038541904242 -0.004024059052464517 0.0005293038541904242 -0.0019007424450337436 -0.00586426677890452 -0.004024059052464517 -0.00586426677890452 -0.005522191083067371" free_energy=-62.99303518194 pbc="T T T"
P       -0.86725639       4.58876278       1.00911959       0.00000000 NULL      -0.46628200       0.25266400       0.04681200
P       -2.87157553       2.07421733       6.67880424       0.00000000 NULL       0.29743700      -0.40650800       0.51134600
P       -2.32089098       4.20400092       7.06147653       0.00000000 NULL      -0.16593300       0.01304900      -0.09760200
P       -1.91470424       4.83804081       4.92776815       0.00000000 NULL      -0.22473400      -0.50462800      -0.39650200
P       -0.36396687       1.40534411       5.57513980       0.00000000 NULL      -0.37595900      -0.45757100      -0.55553300
P        1.59518447       3.48091196       4.22084044       0.00000000 NULL       0.84485300       0.03295500      -0.13182300
P       -0.35328026      -0.37121159       2.43422014       0.00000000 NULL       0.13054900      -0.33925700       0.54199300
P       -0.52712337      -0.27795888       7.00584914       0.00000000 NULL       0.07406100       0.33392400       0.01434700
P        3.08191252      -2.63958684       7.14330661       0.00000000 NULL      -0.18318100       0.12545900       0.44701300
P        1.72574509       1.23636764       4.62510242       0.00000000 NULL      -0.58708900       0.25625300      -0.43003500
P        2.90270572       3.60170891       1.57105586       0.00000000 NULL       0.45855000       0.25816400      -0.86143300
P        0.16258950       2.72384269       7.29279190       0.00000000 NULL       0.19772700       0.43549600       0.91141900
12
Lattice="5.866452794045761 -0.9712072796410486 -0.27451759389666586 -1.4937145537036007 6.883550192295546 -0.8985494231360094 -3.3264918442823936 -1.834532937332709 7.953596149460507" Properties=species:S:1:pos:R:3:initial_magmoms:R:1:castep_labels:S:1:forces:R:3 n_minim_iter=15 energy=-63.114731028621 stress="0.010224959159544356 0.003184022982112857 -0.002852473879315828 0.003184022982112857 0.002447726071731144 -0.004889590730455268 -0.002852473879315828 -0.004889590730455268 -0.0025552657609599224" free_energy=-63.114731028621 pbc="T T T"
P       -0.84414787       4.56681253       0.99033340       0.00000000 NULL      -0.40213100       0.19206400      -0.04296500
P       -2.87004791       1.97579763       6.52262859       0.00000000 NULL       0.35072200      -0.04011000       0.39433700