15
Lattice="5.355257558407109 -0.20451582505930754 -0.5052395783352968 -2.9453184926299856 8.609176999705511 -1.230821022785187 -0.6154577354850019 -4.98328813527756 8.157734264130806" Properties=species:S:1:pos:R:3:initial_magmoms:R:1:castep_labels:S:1:forces:R:3 n_minim_iter=1 energy=-79.177832240663 stress="0.00048080005234443714 -0.0009274640629376369 0.0009431910250301712 -0.0009274640629376369 0.002155020507199098 -0.000734686862869265 0.0009431910250301712 -0.000734686862869265 0.002027772315849619" free_energy=-79.177832240663 pbc="T T T"
P        2.04151180       3.35821601       3.74218257       0.00000000 NULL      -0.15134300      -0.01771800       0.04436800
P       -0.34955451       0.01417125       3.04215527       0.00000000 NULL      -0.03181400       0.05984200      -0.21582400
P       -2.07492232       0.18266064       6.06363457       0.00000000 NULL       0.01573300       0.05949600       0.14294800
P        4.94166644       0.36545232       0.31653798       0.00000000 NULL       0.03697100      -0.09180000       0.03638500
P        0.78308644       5.16248373       3.58653122       0.00000000 NULL       0.04800000      -0.09910900       0.02700300
P        2.86073465       0.33578768       2.30197458       0.00000000 NULL       0.11057300       0.02172200      -0.02649100
P       -2.78844325       5.10796864       2.77606826       0.00000000 NULL       0.04855800      -0.00433800      -0.11537800
P       -1.95841520       6.50928648      -0.37201810       0.00000000 NULL       0.02781300      -0.12082800      -0.01334400
P       -2.55113825       5.46472653       4.99472396       0.00000000 NULL      -0.05456000       0.09698600       0.01602600
P        2.87334976       3.27117746       0.39643624       0.00000000 NULL       0.00763500      -0.04043900       0.00915900
P        1.01460886       0.08380069       6.60065051       0.00000000 NULL      -0.03661300       0.05665300      -0.00945700
P        4.27198874       1.96871199       1.70940051       0.00000000 NULL      -0.02804200      -0.03782700       0.04475000
P       -0.09856052       8.19686228      -1.19160679       0.00000000 NULL       0.01186200      -0.01166400       0.03145200
P       -0.76448291       4.61288283       0.03415555       0.00000000 NULL      -0.04445200       0.13147100      -0.05433400
P       -0.21616301       1.50394884       5.45748291       0.00000000 NULL       0.03967900      -0.00244800       0.08273700
15
Lattice="5.352837728868686 -0.19918618578422953 -0.5096590110866114 -2.934143385740304 8.585693399030001 -1.218553899268144 -0.6281773798783812 -4.966190319554068 8.136969140460929" Properties=species:S:1:pos:R:3:initial_magmoms:R:1:castep_labels:S:1:forces:R:3 n_minim_iter=2 energy=-79.18071059017 stress="-0.0012284328814451512 -0.00015550675058836666 0.0004665202517650999 -0.00015550675058836666 -0.0004705633660210905 -0.0003285949222596016 0.0004665202517650999 -0.0003285949222596016 -0.00034289897042284116" free_energy=-79.18071059017 pbc="T T T"
P        2.03954530       3.35540806       3.73486420       0.00000000 NULL      -0.12628500      -0.12298800       0.07400300
P       -0.35250104       0.01635059       3.03529003       0.00000000 NULL       0.01727700      -0.00252400      -0.15943000
P       -2.07968940       0.18510875       6.05329351       0.00000000 NULL       0.01110400       0.04172200       0.08336200
P        4.93931506       0.36941845       0.31132708       0.00000000 NULL       0.05155900      -0.09587600      -0.02753400
P        0.78432943       5.15394266       3.58214727       0.00000000 NULL      -0.02587900      -0.03759400      -0.00478100
P        2.85766900       0.33968714       2.29435346       0.00000000 NULL       0.06316900       0.01029900      -0.00425900
P       -2.78462599       5.09572267       2.77648747       0.00000000 NULL       0.04446600       0.03678300      -0.17315600
P       -1.95057045       6.49183869      -0.36425343       0.00000000 NULL       0.02407900      -0.05751800       0.00824400
P       -2.54963908       5.45394924       4.99084552       0.00000000 NULL      -0.01516700       0.11561800       0.07255700
P        2.87472759       3.26671336       0.39528716       0.00000000 NULL      -0.01271600      -0.03579100      -0.00829200
P        1.00746904       0.08991359       6.58550523       0.00000000 NULL      -0.02489700       0.01472000       0.01208600
P        4.26995132       1.96961937       1.70314076       0.00000000 NULL      -0.01207600       0.00105700       0.07671200
P       -0.08923873       8.17710586      -1.18248402       0.00000000 NULL       0.00059900       0.00083800       0.02240100
P       -0.75974422       4.60206074       0.03825280       0.00000000 NULL      -0.00310800       0.09143600      -0.01717800
P       -0.21989637       1.50453679       5.44741939       0.00000000 NULL       0.00787500       0.03981900       0.04526600
15
Lattice="5.365427396743961 -0.19583013195076576 -0.5169766717197429 -2.932927012096497 8.582332744811225 -1.205921692716567 -0.6441428164871676 -4.95863787487432 8.131277787210275" Properties=species:S:1:pos:R:3:initial_magmoms:R:1:castep_labels:S:1:forces:R:3 n_minim_iter=3 energy=-79.182131261188 stress="0.0005467293505836163 0.0004821097683889521 -0.00022650477959435298 0.0004821097683889521 0.00010310399751305704 0.00022191966259851585 -0.00022650477959435298 0.00022191966259851585 0.0002857444911805683" free_energy=-79.182131261188 pbc="T T T"
P        2.04052575       3.35974014       3.73514787       0.00000000 NULL      -0.09980100      -0.08383300       0.08077100
P       -0.35731114       0.01913296       3.03389773       0.00000000 NULL       0.00244400      -0.01222000      -0.13992900
P       -2.09231670       0.18987794       6.05574207       0.00000000 NULL       0.01411900       0.07043300       0.08274000
P        4.95064002       0.37257042       0.30483489       0.00000000 NULL      -0.00456400      -0.08216800      -0.01653800
P        0.78487185       5.15762292       3.58541542       0.00000000 NULL       0.04131500      -0.02982900      -0.03994000
P        2.86178428       0.34408399       2.29029518       0.00000000 NULL       0.11053700       0.01638400      -0.02333800
P       -2.79063147       5.09662291       2.78346410       0.00000000 NULL      -0.01952400       0.02157200      -0.12685100
P       -1.94961565       6.48952441      -0.35514731       0.00000000 NULL       0.01604100      -0.05577500      -0.02332500
P       -2.55835477       5.45780585       4.99908035       0.00000000 NULL      -0.04887600       0.07333100       0.04241300
P        2.88294398       3.26887731       0.39449027       0.00000000 NULL       0.01505800      -0.00718500      -0.02101100
P        1.00071213       0.09725703       6.58294492       0.00000000 NULL       0.00087700       0.01580300       0.02832300
P        4.27856434       1.97430730       1.69948679       0.00000000 NULL      -0.01533700      -0.03664600       0.06629900
P       -0.08194411       8.17582150      -1.17392211       0.00000000 NULL       0.03398300       0.00121100       0.03218500
P       -0.75827230       4.60225562       0.04360883       0.00000000 NULL      -0.01720300       0.06339100       0.00214700
P       -0.22655905       1.50994784       5.44846219       0.00000000 NULL      -0.02907000       0.04553200       0.05605500
15
Lattice="5.371779959437449 -0.21162372854484252 -0.5207264659618723 -2.9600039781976633 8.59193254758475 -1.1997910875364832 -0.637378073405912 -4.956515631983839 8.114629102510651" Properties=species:S:1:pos:R:3:initial_magmoms:R:1:castep_labels:S:1:forces:R:3 n_minim_iter=4 energy=-79.185412868895 stress="9.653003595101167e-05 -0.0007315171567520564 -0.0005414554821632499 -0.0007315171567520564 0.0004303312062285195 8.628041248236225e-05 -0.0005414554821632499 8.628041248236225e-05 -0.0006179452095412307" free_energy=-79.185412868895 pbc="T T T"
P        2.02443698       3.35047967       3.72949240       0.00000000 NULL      -0.10249100       0.05771300       0.03100000
P       -0.36009478       0.02023835       3.02144709       0.00000000 NULL       0.00408100      -0.03327100      -0.07053100
P       -2.09972933       0.19934964       6.04900988       0.00000000 NULL       0.00563500       0.03173900      -0.00561700
P        4.95492056       0.35431840       0.29903548       0.00000000 NULL       0.01064600      -0.00460900      -0.03633400
P        0.76814437       5.15484939       3.57691657       0.00000000 NULL       0.08282400      -0.08849600      -0.06902900
P        2.86576624       0.33663898       2.28234754       0.00000000 NULL       0.04579300      -0.04353500       0.01957300
P       -2.81056972       5.10689241       2.77464981       0.00000000 NULL      -0.05700500      -0.02527600      -0.02208600
P       -1.96945730       6.49346085      -0.35242673       0.00000000 NULL       0.03082200       0.00439600       0.03246700
P       -2.58302075       5.47049157       4.99410396       0.00000000 NULL      -0.04332800       0.03213600       0.01326700
P        2.87607671       3.26010239       0.39083842       0.00000000 NULL       0.01516200      -0.02700700      -0.01080900
P        0.99518045       0.09582308       6.56954469       0.00000000 NULL      -0.05028800       0.00536400       0.01378000
P        4.27483430       1.96119979       1.69546777       0.00000000 NULL       0.04837800       0.00593100       0.00930400
P       -0.10407903       8.17705117      -1.16919123       0.00000000 NULL       0.01849200      -0.00590600      -0.01260700
P       -0.77318934       4.60843038       0.04447127       0.00000000 NULL       0.00192400       0.06047900       0.04272400
P       -0.23663870       1.51324744       5.44006936       0.00000000 NULL      -0.01064600       0.03034000       0.06489700
15
Lattice="5.3722009532240165 -0.20549732716750232 -0.5120481137909411 -2.9538836354285953 8.577901511934309 -1.2100361955290884 -0.6285437191726158 -4.95361814051412 8.127911307681991" Properties=species:S:1:pos:R:3:initial_magmoms:R:1:castep_labels:S:1:forces:R:3 n_minim_iter=5 energy=-79.187316178345 stress="-0.00012063941415197454 0.0001222907521403666 6.544191287331444e-05 0.0001222907521403666 1.999953785941479e-05 -0.00012730592677177947 6.544191287331444e-05 -0.00012730592677177947 0.0001880996290111015" free_energy=-79.187316178345 pbc="T T T"
P        2.03102161       3.34507430       3.73990885       0.00000000 NULL      -0.01722600       0.08743400       0.00070900
P       -0.35462633       0.01812948       3.02084028       0.00000000 NULL       0.02992600      -0.04065200      -0.06896100
P       -2.08909618       0.19656936       6.05670072       0.00000000 NULL       0.02714800       0.00348500      -0.02267900
P        4.95780916       0.35667849       0.30710857       0.00000000 NULL      -0.00119100      -0.00713000      -0.03858500
P        0.78158481       5.14558113       3.58036463       0.00000000 NULL       0.03529900      -0.01533200      -0.03164700
P        2.87393850       0.33821339       2.29056812       0.00000000 NULL       0.00640400      -0.05407100       0.03224100
P       -2.80166754       5.09651655       2.76821322       0.00000000 NULL      -0.03716300      -0.07414900       0.07427800
P       -1.96291278       6.48151114      -0.35876306       0.00000000 NULL      -0.01618200       0.05977200       0.04090700
P       -2.57069314       5.46135918       4.99676850       0.00000000 NULL      -0.09991300      -0.02398300      -0.08866200
P        2.88136571       3.25788843       0.39472573       0.00000000 NULL       0.01169900      -0.01773900       0.00027700
P        1.00626508       0.09481641       6.58213131       0.00000000 NULL      -0.03668900       0.00340300       0.02115500
P        4.28134197       1.96196619       1.70671762       0.00000000 NULL       0.05894700       0.02872500      -0.00873800
P       -0.09673357       8.16651369      -1.17365871       0.00000000 NULL       0.01760000       0.00421300      -0.00297600
P       -0.76877050       4.60415016       0.04183460       0.00000000 NULL       0.00878000       0.01860400       0.03524600
P       -0.22604973       1.51044752       5.44963949       0.00000000 NULL       0.01256000       0.02741900       0.05743600
15
Lattice="5.389345911041564 -0.21570818354874438 -0.5028817843810608 -2.981085401270523 8.572758079940238 -1.2000092825799105 -0.6076165794655097 -4.934029010657919 8.113969038885005" Properties=species:S:1:pos:R:3:initial_magmoms:R:1:castep_labels:S:1:forces:R:3 n_minim_iter=6 energy=-79.190089744816 stress="0.00043336353271954483 -0.0003051799969426099 0.0005943942903340559 -0.0003051799969426099 -0.00027633183278228513 0.0005592270045005172 0.0005943942903340559 0.0005592270045005172 -0.00023881395579494215" free_energy=-79.190089744816 pbc="T T T"
P        2.03118739       3.34744816       3.75046569       0.00000000 NULL      -0.00716700      -0.07062800       0.04719700
P       -0.34820428       0.02018419       3.00754722       0.00000000 NULL      -0.01736500      -0.02753700      -0.02417800
P       -2.08345667       0.21324787       6.05152190       0.00000000 NULL       0.03722300       0.01682400      -0.00002500
P        4.97468862       0.34427468       0.31211445       0.00000000 NULL      -0.03161800       0.05866800      -0.03314700
P        0.78553934       5.14148205       3.58404563       0.00000000 NULL      -0.07244400       0.05006500      -0.00715000
P        2.89146700       0.33290729       2.29658476       0.00000000 NULL       0.04112400      -0.08348800       0.04632200
P       -2.81855162       5.09700325       2.76949272       0.00000000 NULL       0.03415400      -0.01941300      -0.01856400
P       -1.98143990       6.47998638      -0.34827015       0.00000000 NULL      -0.04922300       0.03902400       0.00122100
P       -2.58891161       5.47126326       4.99530426       0.00000000 NULL      -0.06109100       0.01299300      -0.06207200
P        2.88690620       3.24801200       0.40412146       0.00000000 NULL       0.02684700      -0.03608500       0.01293700
P        1.01724840       0.10484321       6.58281408       0.00000000 NULL      -0.01054400       0.02358200       0.03655600
P        4.29904469       1.95641599       1.71861928       0.00000000 NULL       0.06695800      -0.01253600      -0.05928300
P       -0.11143504       8.15696968      -1.15879895       0.00000000 NULL       0.01851500       0.00628900      -0.00318000
P       -0.77931379       4.60601135       0.05113454       0.00000000 NULL      -0.01337900       0.03015100       0.01571800
P       -0.22006984       1.52248263       5.45548819       0.00000000 NULL       0.03801000       0.01209000       0.04765000
15
Lattice="5.390238431607544 -0.21494751383196042 -0.5101937548583078 -2.979198205990696 8.578928816698577 -1.208075369622754 -0.6189607070985272 -4.947560441865483 8.125855921834022" Properties=species:S:1:pos:R:3:initial_magmoms:R:1:castep_labels:S:1:forces:R:3 n_minim_iter=7 energy=-79.191751804986 stress="-0.00017868660196242994 -3.021816084381708e-05 -0.0002369579494624647 -3.021816084381708e-05 3.8420668681341595e-06 -0.00014209548893258082 -0.0002369579494624647 -0.00014209548893258082 0.00011099304285720905" free_energy=-79.191751804986 pbc="T T T"
P        2.02199943       3.34525870       3.74800559       0.00000000 NULL       0.02813000      -0.09746600      -0.01154000
P       -0.35112032       0.01366304       3.00273077       0.00000000 NULL       0.01018400      -0.02510500      -0.01052600
P       -2.08993622       0.20723077       6.05827721       0.00000000 NULL       0.02457800       0.02042500       0.01009400
P        4.97446469       0.34270993       0.30230273       0.00000000 NULL      -0.02646800       0.08134400      -0.02025400
P        0.78260794       5.13797416       3.57540184       0.00000000 NULL      -0.19926400       0.08725100      -0.04875200
P        2.89181251       0.32688857       2.29510860       0.00000000 NULL       0.05064100      -0.02787600       0.02386000
P       -2.82381589       5.09324566       2.76725455       0.00000000 NULL       0.01740000      -0.06521400       0.00892800
P       -1.98129697       6.48554454      -0.35276869       0.00000000 NULL      -0.04789600       0.01578100      -0.00570600
P       -2.60158840       5.46901493       4.99141762       0.00000000 NULL       0.04719900       0.05021300       0.01034200
P        2.88768713       3.24758246       0.39574855       0.00000000 NULL       0.05025700      -0.02914100       0.00559900
P        1.00600999       0.09697980       6.58686053       0.00000000 NULL       0.00695400       0.02879400       0.04168400
P        4.30028996       1.95585240       1.71169122       0.00000000 NULL       0.03847400      -0.05401700      -0.05887000
P       -0.10788281       8.16317830      -1.16983593       0.00000000 NULL       0.00364000       0.01509400      -0.00555500
P       -0.77929504       4.61173988       0.04800017       0.00000000 NULL      -0.02256600       0.01786300       0.01744500
P       -0.22703783       1.51856371       5.46138587       0.00000000 NULL       0.01873700      -0.01794700       0.04324900
15
Lattice="5.405718188938629 -0.2115077267202102 -0.49786759562125127 -2.985585587352355 8.581371089787327 -1.215111992647154 -0.607207218470949 -4.953893801213719 8.10676257632194" Properties=species:S:1:pos:R:3:initial_magmoms:R:1:castep_labels:S:1:forces:R:3 n_minim_iter=8 energy=-79.196519957245 stress="0.0005529911956006208 0.0005253629586054813 0.0004015994228709147 0.0005253629586054813 0.0007979595328827732 -0.0006399272357154259 0.0004015994228709147 -0.0006399272357154259 -0.001786392457089259" free_energy=-79.196519957245 pbc="T T T"
P        2.02791755       3.34139786       3.74817766       0.00000000 NULL       0.00187600       0.06765600       0.00732900
P       -0.34180893       0.00291806       2.97376109       0.00000000 NULL       0.07648900      -0.04709000       0.07864300
P       -2.07638970       0.21063456       6.04233472       0.00000000 NULL       0.03998800       0.02680700       0.00377600
P        4.98843097       0.34754622       0.30210340       0.00000000 NULL      -0.00022000       0.07164000      -0.12487600
P        0.78511241       5.14113382       3.55436079       0.00000000 NULL      -0.07190400       0.00616800       0.00061200
P        2.91954484       0.31619824       2.30164659       0.00000000 NULL       0.04396700       0.06109500       0.01824000
P       -2.82695601       5.07943398       2.75080195       0.00000000 NULL      -0.00678700      -0.07437400      -0.06202500
P       -1.98943928       6.49314578      -0.35466533       0.00000000 NULL      -0.09022000      -0.02169100      -0.00739800
P       -2.60973253       5.47555437       4.96366688       0.00000000 NULL      -0.04850500      -0.01053600       0.03282500
P        2.90657439       3.24322000       0.39861075       0.00000000 NULL       0.06401400      -0.03319600      -0.02140800
P        1.01676272       0.09913150       6.58134609       0.00000000 NULL       0.07380200       0.02432300       0.08828500
P        4.33101574       1.95568009       1.71244532       0.00000000 NULL      -0.05155600      -0.06977000       0.01282800
P       -0.10050196       8.16892842      -1.17029053       0.00000000 NULL      -0.02926800       0.05290600       0.00237000
P       -0.78079164       4.62416342       0.05104264       0.00000000 NULL      -0.02964300       0.00194400       0.00507800
P       -0.21277268       1.52241726       5.46339769       0.00000000 NULL       0.02796600      -0.05588200      -0.03427800
15
Lattice="5.407698842262373 -0.22003606591978628 -0.5002956248125907 -2.999477620677936 8.55388508156449 -1.2002812575383859 -0.5997902682553894 -4.917351844176196 8.128085775181322" Properties=species:S:1:pos:R:3:initial_magmoms:R:1:castep_labels:S:1:forces:R:3 n_minim_iter=9 energy=-79.200871409999 stress="-0.0007059179972531127 -1.9963881970945074e-05 -0.0002495485246368134 -1.9963881970945074e-05 -0.00017081900838858947 0.0003904521428158922 -0.0002495485246368134 0.0003904521428158922 -0.00019291318264301954" free_energy=-79.200871409999 pbc="T T T"
P        2.01422392       3.33217934       3.77750501       0.00000000 NULL      -0.03230000       0.05797200       0.02131500
P       -0.33705451       0.00137951       2.96731857       0.00000000 NULL       0.15974700      -0.07064800       0.09489800
P       -2.06992109       0.23423950       6.07052356       0.00000000 NULL       0.00261800       0.03527600       0.08265100
P        4.98736566       0.34204002       0.29403096       0.00000000 NULL       0.05502900       0.09232700      -0.06784300
P        0.76711393       5.13278488       3.57007872       0.00000000 NULL       0.02232300      -0.04292000      -0.02574900
P        2.93342286       0.30627522       2.31789153       0.00000000 NULL      -0.03728100       0.05175700      -0.01768800
P       -2.83848084       5.05995334       2.77140456       0.00000000 NULL      -0.03795300      -0.01349400      -0.00898600
P       -2.00588766       6.47831660      -0.33732679       0.00000000 NULL      -0.07355000      -0.03687900      -0.06851200
P       -2.63207113       5.47976023       4.98967195       0.00000000 NULL      -0.07201900      -0.01417000      -0.05273700
P        2.90998546       3.22161748       0.40698327       0.00000000 NULL       0.01346100      -0.03650300       0.00708900
P        1.01243108       0.11713753       6.61739084       0.00000000 NULL       0.10166600      -0.03067300       0.11268200
P        4.34047223       1.94302291       1.72144027       0.00000000 NULL      -0.02970500      -0.04581400       0.01462800
P       -0.10855980       8.14086691      -1.15552875       0.00000000 NULL      -0.07008500       0.05316600       0.01352300
P       -0.79031797       4.61989555       0.06829586       0.00000000 NULL       0.01291600      -0.00154700      -0.01654000
P       -0.21210805       1.53500810       5.50407265       0.00000000 NULL      -0.01486700       0.00215200      -0.08873000
15
Lattice="5.425261536657955 -0.22221027465666796 -0.4987032640476864 -3.0150706845002713 8.529485524003139 -1.212372530610368 -0.5959928466225682 -4.910591661090921 8.13983849266809" Properties=species:S:1:pos:R:3:initial_magmoms:R:1:castep_labels:S:1:forces:R:3 n_minim_iter=10 energy=-79.203209079002 stress="0.0006025183321151486 -0.0004510144543279548 -0.00044678742923513667 -0.0004510144543279548 -0.001674418911047908 -0.0005719256181340331 -0.00044678742923513667 -0.0005719256181340331 -0.00017124013163783382" free_energy=-79.203209079002 pbc="T T T"
P        2.01432143       3.31510709       3.78076488       0.00000000 NULL      -0.06552800      -0.01830300      -0.01864000
P       -0.33110985      -0.00778776       2.96195523       0.00000000 NULL       0.09498200      -0.04853700       0.05225700
P       -2.07093684       0.23224669       6.07811251       0.00000000 NULL       0.00917800      -0.00512900       0.04882200
P        5.00357570       0.34066710       0.28883698       0.00000000 NULL       0.04047000       0.05251800      -0.05041400
P        0.76250257       5.11155548       3.56116124       0.00000000 NULL       0.10435600      -0.05215100      -0.02374700
P        2.94980908       0.29702445       2.32282148       0.00000000 NULL       0.02766900       0.02205000      -0.01229800
P       -2.85221971       5.03519393       2.76505221       0.00000000 NULL      -0.07769800      -0.00351700      -0.00397000
P       -2.02164386       6.46037671      -0.34582041       0.00000000 NULL      -0.06301500       0.01374800      -0.05308700
P       -2.65122169       5.46126793       4.98123801       0.00000000 NULL      -0.09094500       0.06372000      -0.03578600
P        2.92175969       3.20431173       0.40417627       0.00000000 NULL       0.02764200      -0.03722600       0.00075000
P        1.01798695       0.11016918       6.62981214       0.00000000 NULL       0.07417400      -0.04491800       0.09767600
P        4.35861852       1.92879969       1.72077114       0.00000000 NULL      -0.03114800       0.02413500       0.06217200
P       -0.11390368       8.11827444      -1.16539943       0.00000000 NULL      -0.04366800       0.08889100       0.02485900
P       -0.79692624       4.61059625       0.06516703       0.00000000 NULL       0.00085600      -0.01113600      -0.01515100
P       -0.21065836       1.52591998       5.51197159       0.00000000 NULL      -0.00732700      -0.04414400      -0.07344300
15
Lattice="5.439035188581619 -0.2152670680407386 -0.48867089186713647 -3.012548902641027 8.526521659544208 -1.1980199334141126 -0.5892471683905102 -4.894808836765659 8.128225547509292" Properties=species:S:1:pos:R:3:initial_magmoms:R:1:castep_labels:S:1:forces:R:3 n_minim_iter=11 energy=-79.213404060392 stress="0.0005512826927530709 -0.0002471695696824829 -0.00038678582857497903 -0.0002471695696824829 -0.0010982014303768778 -0.00019949942094406388 -0.00038678582857497903 -0.00019949942094406388 -9.412808771870916e-05" free_energy=-79.213404060392 pbc="T T T"
P        2.01164718       3.32638833       3.80589386       0.00000000 NULL      -0.02665400       0.05155100       0.02818600
P       -0.30259760      -0.02258325       2.93719793       0.00000000 NULL       0.04840700       0.00161900      -0.01313700
P       -2.05025935       0.25950671       6.09151328       0.00000000 NULL      -0.00493600      -0.05365800      -0.05745100
P        5.02003855       0.36184998       0.27563073       0.00000000 NULL      -0.00867200      -0.00199800       0.04059700
P        0.76494252       5.12295086       3.55588311       0.00000000 NULL       0.04611500      -0.05235300      -0.04246600
P        2.98607006       0.29556320       2.33840151       0.00000000 NULL       0.08808800      -0.00554400      -0.04055500
P       -2.85608729       5.01594241       2.76651953       0.00000000 NULL      -0.08677600       0.02561100      -0.04629400
P       -2.03740914       6.46450684      -0.33566046       0.00000000 NULL      -0.01859600       0.08783900       0.01528000
P       -2.67334045       5.48557161       4.97225369       0.00000000 NULL      -0.05331000       0.00055900      -0.00390500
P        2.95131645       3.19473170       0.41722541       0.00000000 NULL       0.00072800      -0.01598000      -0.02259200
P        1.03737924       0.13305927       6.66130472       0.00000000 NULL      -0.00325200      -0.04232400       0.05136000
P        4.39214845       1.93006761       1.73251616       0.00000000 NULL      -0.04064000       0.02640900       0.06835100
P       -0.10317020       8.13040054      -1.14267025       0.00000000 NULL       0.03362800       0.10399300       0.02797800
P       -0.79597189       4.62998921       0.08279873       0.00000000 NULL       0.01940800      -0.06621500       0.04803800
P       -0.19306759       1.54561719       5.53377649       0.00000000 NULL       0.00646400      -0.05950800      -0.05339000
15
Lattice="5.4594408621494654 -0.20106027847573768 -0.4817990973356478 -3.002261406663696 8.523798744494954 -1.1942604085989106 -0.5962646530955624 -4.895666753984591 8.108219398003143" Properties=species:S:1:pos:R:3:initial_magmoms:R:1:castep_labels:S:1:forces:R:3 n_minim_iter=12 energy=-79.219483456991 stress="0.0013710369161518072 -0.00014131129201044355 -0.0004132335129571708 -0.00014131129201044355 -0.0009316872628102463 -0.0003492126965982148 -0.0004132335129571708 -0.0003492126965982148 0.00035864352507035565" free_energy=-79.219483456991 pbc="T T T"
P        2.01553451       3.34320930       3.82017536       0.00000000 NULL      -0.00736000      -0.02309800      -0.06852900
P       -0.27430142      -0.03746755       2.90478609       0.00000000 NULL       0.08858600      -0.02605500       0.07081800
P       -2.03934572       0.26450413       6.08165422       0.00000000 NULL       0.00097900       0.00925200       0.03884000
P        5.03948402       0.38650419       0.26850844       0.00000000 NULL       0.02411200      -0.03165900      -0.07821000
P        0.76378989       5.12642401       3.53038616       0.00000000 NULL       0.12167300      -0.01670400      -0.02754500
P        3.03446562       0.29504100       2.33856736       0.00000000 NULL      -0.02845400      -0.08146500       0.01007100
P       -2.86454056       4.99450079       2.74523743       0.00000000 NULL      -0.15231200      -0.00082700       0.05302600
P       -2.04721839       6.47750700      -0.33025529       0.00000000 NULL       0.07329400      -0.08113700      -0.04302000
P       -2.69395665       5.49241651       4.94866906       0.00000000 NULL      -0.07835400       0.09020700      -0.00750500
P        2.98519136       3.18861312       0.41769611       0.00000000 NULL      -0.00605900       0.02746300      -0.04150800
P        1.04918884       0.14212294       6.67801230       0.00000000 NULL       0.00627200       0.01107200       0.02912200
P        4.42344794       1.93311260       1.73867520       0.00000000 NULL       0.01444200       0.17950100       0.11165700
P       -0.07511388       8.15647321      -1.12939614       0.00000000 NULL       0.02870000       0.01216000      -0.06084400
P       -0.78743679       4.63834344       0.09876011       0.00000000 NULL      -0.04383800      -0.00678800      -0.01866900
P       -0.17576409       1.54663305       5.53327601       0.00000000 NULL      -0.04168200      -0.06192200       0.03229600
15