10
Lattice="2.825097212441374 0.08876618966826905 0.09023853639284539 -0.03825615044902515 8.960204112147167 -0.33335224650728096 -0.03825615044902451 -0.4806958197651277 8.953508417399895" Properties=species:S:1:pos:R:3:initial_magmoms:R:1:castep_labels:S:1:forces:R:3 n_minim_iter=1 energy=-51.473133336712 stress="0.0004925403641564271 0.000315749135098126 0.0003210086741626104 0.000315749135098126 -7.774394297838796e-05 0.0020828658651503755 0.0003210086741626104 0.0020828658651503755 -9.193143911031661e-06" free_energy=-51.473133336712 pbc="T T T"
P        0.87898917       1.45330113       9.31181938       0.00000000 NULL       0.05320000      -0.09408200       0.03868900
P        0.87898917       9.28665379       1.60627699       0.00000000 NULL       0.05320000       0.04023100      -0.09343500
P        1.05606701       4.28170530       7.97178982       0.00000000 NULL      -0.06206700       0.03028000       0.01157400
P        1.05606701       7.90028039       4.41225599       0.00000000 NULL      -0.06206600       0.01107400       0.03046700
P        2.37128697       0.88845196       7.73010977       0.00000000 NULL      -0.00481700      -0.02486200      -0.03129400
P        2.37128697       7.71444953       1.01548630       0.00000000 NULL      -0.00481700      -0.03088000      -0.02537100
P        1.08899478       4.09967475       5.76658734       0.00000000 NULL       0.06052600       0.06342400      -0.02255100
P        1.08899478       5.69837054       4.19397614       0.00000000 NULL       0.06052600      -0.02359100       0.06304400
P        1.00794784       6.51646851       8.21115731       0.00000000 NULL      -0.04684200      -0.13643200       0.16261500
P        1.00794784       8.10285530       6.65065426       0.00000000 NULL      -0.04684300       0.16483900      -0.13373900
10
Lattice="2.82088323898475 0.08565104408480763 0.08707172052350676 -0.046103095092949166 8.96446034161666 -0.38770699015339255 -0.046103095092948417 -0.5351132211163183 8.956869976013836" Properties=species:S:1:pos:R:3:initial_magmoms:R:1:castep_labels:S:1:forces:R:3 n_minim_iter=2 energy=-51.477159918742 stress="-0.001393124785337746 -9.951839539512088e-05 -0.00010115564778712597 -9.951839539512088e-05 -0.0005906056128673537 -0.0003738687962175973 -0.00010115564778712597 -0.0003738687962175973 -0.0006028628807750675" free_energy=-51.477159918742 pbc="T T T"
P        0.86840601       1.39512769       9.30311108       0.00000000 NULL       0.07121000      -0.09539500       0.17052400
P        0.86840601       9.27890357       1.54796817       0.00000000 NULL       0.07121000       0.17207300      -0.09257600
P        1.04240307       4.23380067       7.94533362       0.00000000 NULL      -0.05484600       0.00966400       0.02416900
P        1.04240307       7.87461577       4.36392266       0.00000000 NULL      -0.05484500       0.02400700       0.01006000
P        2.35981075       0.83926854       7.72246074       0.00000000 NULL      -0.01427800      -0.02524800      -0.07234400
P        2.35981075       7.70761056       0.96618371       0.00000000 NULL      -0.01427900      -0.07192200      -0.02643500
P        1.07908148       4.06550570       5.74066095       0.00000000 NULL       0.05325600       0.06840800      -0.06222800
P        1.07908148       5.67300971       4.15938523       0.00000000 NULL       0.05325600      -0.06334500       0.06737500
P        0.99227750       6.46554447       8.17315298       0.00000000 NULL      -0.05534200      -0.07982200       0.06027600
P        0.99227750       8.06569378       6.59911197       0.00000000 NULL      -0.05534200       0.06158000      -0.07882000
10
Lattice="2.8279524385914097 0.08529942551940263 0.08671426973250992 -0.047253464105754595 8.977327324594706 -0.40093976478633137 -0.04725346410575378 -0.5485558576534253 8.96951754883927" Properties=species:S:1:pos:R:3:initial_magmoms:R:1:castep_labels:S:1:forces:R:3 n_minim_iter=3 energy=-51.478744870026 stress="0.0007592177965104562 -0.00011053492706196761 -0.00011238377888857161 -0.00011053492706196761 0.0013405496351326562 -0.0004957564112193864 -0.00011238377888857161 -0.0004957564112193864 0.0013242621309459066" free_energy=-51.478744870026 pbc="T T T"
P        0.87021688       1.38233816       9.31521016       0.00000000 NULL       0.07102200      -0.11153700       0.13011900
P        0.87021688       9.29121139       1.53537940       0.00000000 NULL       0.07102200       0.13194100      -0.10938100
P        1.04271277       4.22844456       7.95002220       0.00000000 NULL      -0.05167600       0.02211900      -0.00636200
P        1.04271277       7.87939181       4.35864440       0.00000000 NULL      -0.05167600      -0.00672500       0.02201000
P        2.36453471       0.82881945       7.73037703       0.00000000 NULL      -0.01232000      -0.04203900      -0.03323000
P        2.36453471       7.71569766       0.95586625       0.00000000 NULL      -0.01232100      -0.03254000      -0.04258300
P        1.08139913       4.06377848       5.74165061       0.00000000 NULL       0.04963700       0.09153600      -0.04292600
P        1.08139913       5.67402765       4.15767453       0.00000000 NULL       0.04963700      -0.04442600       0.09081700
P        0.99223235       6.46126941       8.17606547       0.00000000 NULL      -0.05666200      -0.05314200       0.04394600
P        0.99223235       8.06867620       6.59488539       0.00000000 NULL      -0.05666300       0.04481300      -0.05241100
10
Lattice="2.83686302758958 0.08541062263302017 0.086827311250023 -0.045775363302827846 8.951477322647419 -0.41494033455617596 -0.045775363302827034 -0.5621293199189892 8.943440745417835" Properties=species:S:1:pos:R:3:initial_magmoms:R:1:castep_labels:S:1:forces:R:3 n_minim_iter=4 energy=-51.483274547697 stress="0.0008373967024528138 7.959440426603529e-05 8.087462485600479e-05 7.959440426603529e-05 -0.0007403648108406421 -0.0002414760905908003 8.087462485600479e-05 -0.0002414760905908003 -0.000748266862068385" free_energy=-51.483274547697 pbc="T T T"
P        0.87927885       1.35612709       9.29314407       0.00000000 NULL       0.04731300       0.00525100       0.00953300
P        0.87927885       9.26957944       1.50880890       0.00000000 NULL       0.04731300       0.00944700       0.00540800
P        1.04480290       4.20385365       7.91978744       0.00000000 NULL      -0.03984300      -0.02076100       0.01448100
P        1.04480290       7.84956564       4.33355947       0.00000000 NULL      -0.03984400       0.01482100      -0.02052000
P        2.37288233       0.81178798       7.70303542       0.00000000 NULL       0.00543200      -0.04215500       0.00049000
P        2.37288233       7.68863991       0.93838734       0.00000000 NULL       0.00543300       0.00118200      -0.04214400
P        1.09007646       4.04706731       5.71465372       0.00000000 NULL       0.04006000       0.03634300      -0.04308600
P        1.09007646       5.64730930       4.14052155       0.00000000 NULL       0.04006000      -0.04367800       0.03563000
P        0.99472055       6.42322585       8.14563571       0.00000000 NULL      -0.05296200       0.02498400       0.01498100
P        0.99472055       8.03887635       6.55634643       0.00000000 NULL      -0.05296200       0.01456600       0.02522700
10
Lattice="2.82244584126195 0.08454154981698563 0.08594382330004063 -0.049136437312414884 8.973052160470333 -0.40785651408769735 -0.04913643731241406 -0.5554013478700495 8.965129187769081" Properties=species:S:1:pos:R:3:initial_magmoms:R:1:castep_labels:S:1:forces:R:3 n_minim_iter=5 energy=-51.485055902113 stress="-0.0004313651034295402 0.00010967358412681452 0.00011148381639299786 0.00010967358412681452 -9.08206773546125e-05 0.00012936537902236977 0.00011148381639299786 0.00012936537902236977 -8.658208473135396e-05" free_energy=-51.485055902113 pbc="T T T"
P        0.87326356       1.36501830       9.32044240       0.00000000 NULL       0.03402000       0.01565700      -0.01539000
P        0.87326356       9.29672783       1.51814795       0.00000000 NULL       0.03402000      -0.01564500       0.01540400
P        1.03188492       4.22080720       7.94339761       0.00000000 NULL      -0.03216600      -0.01513900      -0.00892400
P        1.03188492       7.87289375       4.35089910       0.00000000 NULL      -0.03216600      -0.00867400      -0.01528400
P        2.35711685       0.81781503       7.72077995       0.00000000 NULL       0.01213200      -0.01100900      -0.00329000
P        2.35711685       7.70628290       0.94470545       0.00000000 NULL       0.01213200      -0.00310900      -0.01106300
P        1.08284628       4.06468003       5.72967234       0.00000000 NULL       0.02999500       0.03010000       0.00935900
P        1.08284628       5.66203617       4.15837893       0.00000000 NULL       0.02999500       0.00886200       0.03025000
P        0.98068511       6.44457285       8.17354666       0.00000000 NULL      -0.04398100       0.04349500      -0.04382900
P        0.98068511       8.06643237       6.57814966       0.00000000 NULL      -0.04398100      -0.04454000       0.04276800
10
Lattice="2.8234639160265043 0.07901933205654563 0.08033000963735036 -0.06586192787734026 8.97424415719175 -0.41342443181056954 -0.06586192787733947 -0.5609881197211246 8.966229435121535" Properties=species:S:1:pos:R:3:initial_magmoms:R:1:castep_labels:S:1:forces:R:3 n_minim_iter=6 energy=-51.486149956097 stress="-0.00020230783838598183 -0.0006329565848739169 -0.000643458060454258 -0.0006329565848739169 -0.00026818474192148256 0.00015761038139906807 -0.000643458060454258 0.00015761038139906807 -0.0002630222518252645" free_energy=-51.486149956097 pbc="T T T"
P        0.85682578       1.35719310       9.31922216       0.00000000 NULL       0.05837800       0.01330900      -0.02124300
P        0.85682578       9.29563647       1.51030373       0.00000000 NULL       0.05837800      -0.02146000       0.01295600
P        1.00458823       4.21312215       7.93884232       0.00000000 NULL      -0.01228700       0.00688300      -0.00928200
P        1.00458823       7.86846549       4.34314016       0.00000000 NULL      -0.01228600      -0.00939400       0.00673000
P        2.34215879       0.80631697       7.71557047       0.00000000 NULL      -0.00238900      -0.00775000       0.00920300
P        2.34215879       7.70126325       0.93312326       0.00000000 NULL      -0.00239000       0.00933000      -0.00759500
P        1.06767252       4.06349490       5.72466318       0.00000000 NULL       0.00244700      -0.00388900       0.02316200
P        1.06767252       5.65704718       4.15711156       0.00000000 NULL       0.00244700       0.02322300      -0.00350800
P        0.94743018       6.44090169       8.16608863       0.00000000 NULL      -0.04614900       0.00417300      -0.01436000
P        0.94743018       8.05903574       6.57435632       0.00000000 NULL      -0.04614900      -0.01442500       0.00393700
10
Lattice="2.824194104898511 0.08165696148362667 0.08301138888699473 -0.057540465169747076 8.977668014886799 -0.42562480559009264 -0.05754046516974628 -0.5732431627184291 8.969452142525293" Properties=species:S:1:pos:R:3:initial_magmoms:R:1:castep_labels:S:1:forces:R:3 n_minim_iter=7 energy=-51.487119885496 stress="-0.000264220364307921 2.4072137312218395e-05 2.4468930784397823e-05 2.4072137312218395e-05 -0.00021669332397354106 -0.00013451298706882478 2.4468930784397823e-05 -0.00013451298706882478 -0.0002211462284946657" free_energy=-51.487119885496 pbc="T T T"
P        0.87235243       1.34585806       9.32093773       0.00000000 NULL       0.01631700      -0.00064600      -0.00282200
P        0.87235243       9.29753826       1.49899844       0.00000000 NULL       0.01631700      -0.00281200      -0.00069100
P        1.01325408       4.20405433       7.93579831       0.00000000 NULL      -0.00952400       0.02538500      -0.00874600
P        1.01325408       7.86557105       4.33402350       0.00000000 NULL      -0.00952500      -0.00916200       0.02523700
P        2.35173626       0.79646304       7.71870693       0.00000000 NULL       0.01376100      -0.00772900       0.01651000
P        2.35173626       7.70456138       0.92332225       0.00000000 NULL       0.01376200       0.01663600      -0.00745800
P        1.08067788       4.06172216       5.72173211       0.00000000 NULL      -0.00036800      -0.02593900       0.02565300
P        1.08067788       5.65414566       4.15529084       0.00000000 NULL      -0.00036800       0.02607700      -0.02551300
P        0.95686381       6.43549396       8.15862957       0.00000000 NULL      -0.02018600      -0.02754700       0.00528500
P        0.95686381       8.05166665       6.56882662       0.00000000 NULL      -0.02018600       0.00573700      -0.02745600
10
Lattice="2.8261796004316353 0.07978173497386276 0.08110505837671209 -0.06368642097699892 8.982228483916096 -0.4176989565351536 -0.06368642097699814 -0.5653934023304537 8.974142368837557" Properties=species:S:1:pos:R:3:initial_magmoms:R:1:castep_labels:S:1:forces:R:3 n_minim_iter=8 energy=-51.487929630575 stress="-0.00015138065568001297 -1.848252191442019e-06 -1.892258196000162e-06 -1.848252191442019e-06 -0.00011982835041182422 -6.438078466856366e-05 -1.892258196000162e-06 -6.438078466856366e-05 -0.0001219406386306151" free_energy=-51.487929630575 pbc="T T T"
P        0.87155624       1.35393839       9.32531307       0.00000000 NULL       0.00955600      -0.01551800      -0.00214600
P        0.87155624       9.30178010       1.50714965       0.00000000 NULL       0.00955600      -0.00189000      -0.01555000
P        1.00089790       4.21640944       7.94099678       0.00000000 NULL       0.00156900       0.00560300       0.01344000
P        1.00089790       7.87056559       4.34646245       0.00000000 NULL       0.00156900       0.01334700       0.00582300
P        2.35004624       0.79911115       7.72522586       0.00000000 NULL       0.00611200       0.00194800       0.00432400
P        2.35004624       7.71103586       0.92607724       0.00000000 NULL       0.00611200       0.00429100       0.00201700
P        1.07696355       4.06755717       5.73232611       0.00000000 NULL      -0.01598800       0.00072400      -0.01198900
P        1.07696355       5.66464226       4.16129933       0.00000000 NULL      -0.01598800      -0.01200000       0.00052700
P        0.93985294       6.44362690       8.16793488       0.00000000 NULL      -0.00124900       0.00736200      -0.00374600
P        0.93985294       8.06083691       6.57711152       0.00000000 NULL      -0.00124900      -0.00386700       0.00730000
10
Lattice="2.8280173863004534 0.07867264618836951 0.07997757336122757 -0.06720345829059261 8.984279688900804 -0.41634946862850175 -0.06720345829059184 -0.5640778377992243 8.97621549436768" Properties=species:S:1:pos:R:3:initial_magmoms:R:1:castep_labels:S:1:forces:R:3 n_minim_iter=9 energy=-51.488152624101 stress="-6.316434730087097e-05 -1.318671133629874e-07 -1.318671133629874e-07 -1.318671133629874e-07 -8.413121832558597e-05 -4.6549091017134555e-05 -1.318671133629874e-07 -4.6549091017134555e-05 -8.571362368594181e-05" free_energy=-51.488152624101 pbc="T T T"
P        0.87126624       1.35199775       9.32551055       0.00000000 NULL       0.00897900       0.00744800       0.00443300
P        0.87126624       9.30200947       1.50521252       0.00000000 NULL       0.00897900       0.00430500       0.00751800
P        0.99571005       4.22055115       7.94469803       0.00000000 NULL       0.00155300       0.00010200      -0.00862900
P        0.99571005       7.87419821       4.35066448       0.00000000 NULL       0.00155400      -0.00863000      -0.00003900
P        2.35009784       0.79899905       7.72844471       0.00000000 NULL       0.00193400      -0.00692800      -0.01406400
P        2.35009784       7.71425612       0.92601810       0.00000000 NULL       0.00193300      -0.01394200      -0.00715400
P        1.07119106       4.06915702       5.73323574       0.00000000 NULL      -0.01758300       0.00859300       0.00741000
P        1.07119106       5.66552544       4.16291393       0.00000000 NULL      -0.01758300       0.00726800       0.00871400
P        0.93235045       6.44684671       8.16993535       0.00000000 NULL       0.00511700       0.00121400       0.00058700
P        0.93235045       8.06278415       6.58036381       0.00000000 NULL       0.00511700       0.00056900       0.00122300
10
Lattice="2.8303468115536554 0.07011003098606122 0.0712729318030056 -0.09434846188450922 9.007144898031207 -0.40806660463981403 -0.09434846188450843 -0.5561722101040866 8.999213856813258" Properties=species:S:1:pos:R:3:initial_magmoms:R:1:castep_labels:S:1:forces:R:3 n_minim_iter=10 energy=-51.488992410838 stress="0.00014993168741499102 2.25858631682839e-05 2.297904067024629e-05 2.25858631682839e-05 8.042664234586201e-05 5.8932938905251416e-05 2.297904067024629e-05 5.8932938905251416e-05 8.234884346656702e-05" free_energy=-51.488992410838 pbc="T T T"
P        0.86198169       1.35313203       9.34206452       0.00000000 NULL       0.01168700      -0.00087200      -0.01268200
P        0.86198169       9.31854255       1.50661895       0.00000000 NULL       0.01168700      -0.01266400      -0.00108000
P        0.95560843       4.24775918       7.96351906       0.00000000 NULL      -0.01838300      -0.01557300       0.00623700
P        0.95560843       7.89256913       4.37817842       0.00000000 NULL      -0.01838300       0.00649200      -0.01546900
P        2.33588966       0.79224539       7.73858290       0.00000000 NULL      -0.00565300       0.01904600       0.00911900
P        2.33588966       7.72450404       0.91943212       0.00000000 NULL      -0.00565300       0.00880300       0.01919200
P        1.01208293       4.09276798       5.75477164       0.00000000 NULL      -0.00111300       0.00007900       0.00747900
P        1.01208293       5.68667004       4.18687594       0.00000000 NULL      -0.00111300       0.00747700       0.00020200
P        0.88279300       6.47255888       8.19430639       0.00000000 NULL       0.01346200      -0.01246400      -0.00052700
P        0.88279300       8.08672894       6.60647339       0.00000000 NULL       0.01346200      -0.00032200      -0.01247200
10
Lattice="2.8295270628132845 0.06477531665115739 0.06584973164701492 -0.11139081311539267 9.018130041655455 -0.3946548547669285 -0.11139081311539188 -0.5429429722359281 9.010418127451098" Properties=species:S:1:pos:R:3:initial_magmoms:R:1:castep_labels:S:1:forces:R:3 n_minim_iter=11 energy=-51.489532091366 stress="0.00024824481804583117 1.7345758002500144e-05 1.765083414827276e-05 1.7345758002500144e-05 0.00020248339617993886 0.00012098448295211155 1.765083414827276e-05 0.00012098448295211155 0.0002064929683815218" free_energy=-51.489532091366 pbc="T T T"
P        0.85770056       1.36272995       9.34937432       0.00000000 NULL      -0.00402800       0.00599100      -0.00719500
P        0.85770056       9.32569347       1.51633581       0.00000000 NULL      -0.00402700      -0.00729100       0.00587100
P        0.92323662       4.26337743       7.97947694       0.00000000 NULL      -0.01394900      -0.00139800       0.01914800
P        0.92323662       7.90826795       4.39405705       0.00000000 NULL      -0.01394900       0.01916800      -0.00108300
P        2.32149336       0.80236174       7.74500797       0.00000000 NULL       0.02076400      -0.00388300      -0.01175700
P        2.32149336       7.73076183       0.92965279       0.00000000 NULL       0.02076400      -0.01169300      -0.00407400
P        0.97630137       4.11079786       5.77204535       0.00000000 NULL      -0.00167700      -0.01293000       0.00319200
P        0.97630137       5.70364484       4.20518752       0.00000000 NULL      -0.00167700       0.00340500      -0.01287600
P        0.85609926       6.48911984       8.21200245       0.00000000 NULL      -0.00111000      -0.00082800       0.00944500
P        0.85609926       8.10415020       6.62332319       0.00000000 NULL      -0.00111100       0.00945900      -0.00067200
10
Lattice="2.826550863312022 0.05524817959375378 0.05616456990596224 -0.14128268048475753 9.01607993037551 -0.3657675570325566 -0.14128268048475673 -0.5140258600974605 9.008843468051195" Properties=species:S:1:pos:R:3:initial_magmoms:R:1:castep_labels:S:1:forces:R:3 n_minim_iter=12 energy=-51.490889630925 stress="0.00018202251601092252 -2.0854928728001192e-05 -2.1203965192068153e-05 -2.0854928728001192e-05 0.00028341760882237603 2.7355732871248424e-05 -2.1203965192068153e-05 2.7355732871248424e-05 0.0002842901999825434" free_energy=-51.490889630925 pbc="T T T"
P        0.85697635       1.38517491       9.33905698       0.00000000 NULL      -0.00544500      -0.01327600      -0.00650500
P        0.85697635       9.31500833       1.53860802       0.00000000 NULL      -0.00544500      -0.00628600      -0.01338100
P        0.85168712       4.28213151       8.00724458       0.00000000 NULL       0.00710200      -0.02492200      -0.01450500
P        0.85168712       7.93572335       4.41326535       0.00000000 NULL       0.00710200      -0.01409400      -0.02515700
P        2.31191258       0.81998222       7.72533105       0.00000000 NULL       0.01544000      -0.00270800       0.00996200
P        2.31191258       7.71079773       0.94694722       0.00000000 NULL       0.01543900       0.01000600      -0.00254100
P        0.90266322       4.12858540       5.79471137       0.00000000 NULL      -0.00658900       0.00734300       0.00942500
P        0.90266322       5.72601520       4.22334549       0.00000000 NULL      -0.00658900       0.00930300       0.00749700
P        0.80884939       6.50676083       8.22991753       0.00000000 NULL      -0.01050700       0.00586500       0.02886800
P        0.80884939       8.12177268       6.64125648       0.00000000 NULL      -0.01050700       0.02876900       0.00633900
10
Lattice="2.8285518069815065 0.05247859595160012 0.05334904774353181 -0.15011020106467182 9.012461495848024 -0.3512972877067539 -0.15011020106467102 -0.4994980280227305 9.005463548229743" Properties=species:S:1:pos:R:3:initial_magmoms:R:1:castep_labels:S:1:forces:R:3 n_minim_iter=13 energy=-51.491305670012 stress="0.00019190938015684509 -5.453210393181549e-06 -5.540461759472455e-06 -5.453210393181549e-06 0.0002760196972612773 3.616569132758004e-05 -5.540461759472455e-06 3.616569132758004e-05 0.00027724121638934997" free_energy=-51.491305670012 pbc="T T T"
P        0.85840306       1.39580387       9.33287986       0.00000000 NULL       0.00005100       0.00154800      -0.00447300
P        0.85840306       9.30865720       1.54913394       0.00000000 NULL       0.00005100      -0.00449500       0.00147500
P        0.83185407       4.28685003       8.01482983       0.00000000 NULL       0.00791100       0.00636600      -0.00059700
P        0.83185407       7.94322995       4.41810801       0.00000000 NULL       0.00791100      -0.00070100       0.00635400
P        2.31465350       0.82988033       7.71895624       0.00000000 NULL       0.00094100      -0.00377800      -0.00082000
P        2.31465350       7.70426096       0.95673913       0.00000000 NULL       0.00094100      -0.00076100      -0.00379400
P        0.87975399       4.13716840       5.80391039       0.00000000 NULL      -0.00427700       0.00793400       0.00079100
P        0.87975399       5.73507180       4.23207865       0.00000000 NULL      -0.00427800       0.00066000       0.00794600
P        0.79433396       6.51631963       8.24140230       0.00000000 NULL      -0.00462600      -0.00827600       0.00137000
P        0.79433396       8.13309865       6.65100291       0.00000000 NULL      -0.00462600       0.00150400      -0.00825200
10
Lattice="2.8293120844602626 0.05181258552689106 0.052671990339437695 -0.1521875525099616 9.01042606693299 -0.34821189837692423 -0.15218755250996083 -0.49637957485267686 9.00347914705786" Properties=species:S:1:pos:R:3:initial_magmoms:R:1:castep_labels:S:1:forces:R:3 n_minim_iter=14 energy=-51.491347151186 stress="0.00016689256200362574 1.8761778212172305e-06 1.8761778212172305e-06 1.8761778212172305e-06 0.00021955643712476985 3.490563388311127e-05 1.8761778212172305e-06 3.490563388311127e-05 0.00022069087022597098" free_energy=-51.491347151186 pbc="T T T"
P        0.85796418       1.39889566       9.32993205       0.00000000 NULL       0.00098600      -0.00684300       0.00236500
P        0.85796418       9.30565894       1.55217682       0.00000000 NULL       0.00098600       0.00247600      -0.00680400
P        0.82913301       4.28792641       8.01553782       0.00000000 NULL       0.00572000       0.00437100      -0.00240300
P        0.82913301       7.94392014       4.41919588       0.00000000 NULL       0.00572000      -0.00247400       0.00433100
P        2.31445052       0.83163663       7.71662764       0.00000000 NULL      -0.00170100      -0.00159500      -0.00366300
P        2.31445052       7.70190379       0.95845688       0.00000000 NULL      -0.00170100      -0.00363400      -0.00165500
P        0.87535328       4.13913112       5.80403231       0.00000000 NULL      -0.00274900      -0.00080000       0.00787700
P        0.87535328       5.73516141       4.23404311       0.00000000 NULL      -0.00274900       0.00788900      -0.00067000
P        0.79028560       6.51627461       8.24208966       0.00000000 NULL      -0.00225600       0.00106700      -0.00043800
P        0.79028560       8.13378667       6.65096920       0.00000000 NULL      -0.00225500      -0.00045600       0.00106000
