15
Lattice="6.743206322990002 -5.658005410372718e-14 0.0 -3.371603161494952 5.839787978669225 0.0 0.0 0.0 7.526219259817413" Properties=species:S:1:pos:R:3:initial_magmoms:R:1:castep_labels:S:1:forces:R:3 n_minim_iter=1 energy=-82.762798179683 stress="-0.0007151770192617967 -0.0 -0.0 -0.0 -0.0007151770192617967 -0.0 -0.0 -0.0 0.0009118203325406111" free_energy=-82.762798179683 pbc="T T T"
P       -3.30426137       4.11377036       0.69003693       0.00000000 NULL       0.03171900      -0.13583200      -0.10560400
P        1.46110455       0.92132793       3.19877668       0.00000000 NULL       0.10177300       0.09538700      -0.10560400
P        1.84315783       6.64447709       5.70751644       0.00000000 NULL      -0.13349400       0.04044400      -0.10560700
P        2.25689109      -1.32694943       0.37795573       0.00000000 NULL      -0.10130400       0.11046600      -0.00658500
P        6.76393304       2.61799915       2.88669548       0.00000000 NULL      -0.04501300      -0.14296700      -0.00658700
P        1.09398637       4.54873768       5.39543524       0.00000000 NULL       0.14632000       0.03250100      -0.00658700
P        5.19204541       0.93367366       0.39702077       0.00000000 NULL      -0.03839800      -0.03369100       0.05487000
P        3.33859884       4.02960581       2.90576052       0.00000000 NULL       0.04837500      -0.01640800       0.05486800
P        1.58416624       0.87650793       5.41450028       0.00000000 NULL      -0.00997800       0.05009900       0.05486800
P        3.49640948       1.80971982       2.99686528       0.00000000 NULL      -0.03240700       0.09472300      -0.00105600
P        3.42773858       2.12311895       5.50560503       0.00000000 NULL      -0.06582900      -0.07542700      -0.00105600
P        3.19066243       1.90694864       8.01434479       0.00000000 NULL       0.09823500      -0.01929600      -0.00105600
P        6.68715810       2.57554985       0.66733433       0.00000000 NULL       0.14274300       0.06464100       0.05838000
P        1.16913601       4.50347329       3.17607408       0.00000000 NULL      -0.12735000       0.09129700       0.05837900
P        2.25851638      -1.23923574       5.68481383       0.00000000 NULL      -0.01539000      -0.15593700       0.05837700
15
Lattice="6.755043591148415 -5.529451548246519e-14 0.0 -3.37752179557416 5.85003935360582 0.0 0.0 0.0 7.5094083493906165" Properties=species:S:1:pos:R:3:initial_magmoms:R:1:castep_labels:S:1:forces:R:3 n_minim_iter=2 energy=-82.76453657039 stress="0.001442689504011865 0.0 -0.0 0.0 0.0014426558057612808 -0.0 -0.0 -0.0 -0.0014233804064271037" free_energy=-82.76453657039 pbc="T T T"
P       -3.30979885       4.11986588       0.68762374       0.00000000 NULL       0.04746800      -0.14575100      -0.12922000
P        1.46451304       0.92373594       3.19075986       0.00000000 NULL       0.10249200       0.11398200      -0.12922000
P        1.84528682       6.65647630       5.69389597       0.00000000 NULL      -0.14995600       0.03177200      -0.12922200
P        2.26001317      -1.32836314       0.37705713       0.00000000 NULL      -0.10270000       0.06358100       0.03654500
P        6.77543356       2.62140981       2.88019325       0.00000000 NULL      -0.00371500      -0.12073000       0.03654200
P        1.09711966       4.55699210       5.38332937       0.00000000 NULL       0.10641200       0.05714500       0.03654100
P        5.20084143       0.93503340       0.39658697       0.00000000 NULL      -0.02904100       0.00217300       0.07920500
P        3.34486054       4.03654352       2.89972309       0.00000000 NULL       0.01264000      -0.02623700       0.07920200
P        1.58686443       0.87846186       5.40285920       0.00000000 NULL       0.01640100       0.02406700       0.07920100
P        3.50227858       1.81368184       2.99016262       0.00000000 NULL      -0.05805500       0.11012400       0.00046800
P        3.43321009       2.12622072       5.49329874       0.00000000 NULL      -0.06634300      -0.10533800       0.00046700
P        3.19707773       1.91013621       7.99643486       0.00000000 NULL       0.12439800      -0.00478400       0.00046800
P        6.70008019       2.58060688       0.66632572       0.00000000 NULL       0.08836200       0.06730800       0.01300900
P        1.17013272       4.51213563       3.16946184       0.00000000 NULL      -0.10247300       0.04287100       0.01300900
P        2.26235348      -1.24270374       5.67259796       0.00000000 NULL       0.01410900      -0.11018200       0.01300600
15
Lattice="6.746019043775649 -5.247389114636428e-14 0.0 -3.3730095218877794 5.842223866323348 0.0 0.0 0.0 7.5003050017996715" Properties=species:S:1:pos:R:3:initial_magmoms:R:1:castep_labels:S:1:forces:R:3 n_minim_iter=3 energy=-82.77360065726 stress="-0.001181731365236637 -0.0 -0.0 -0.0 -0.001181731365236637 0.0 -0.0 0.0 -0.0024971568320252945" free_energy=-82.77360065726 pbc="T T T"
P       -3.30293805       4.10527970       0.67939321       0.00000000 NULL      -0.02053300      -0.02798400      -0.02889400
P        1.46920238       0.92915518       3.17949487       0.00000000 NULL       0.03450100      -0.00379000      -0.02889400
P        1.83373668       6.65001228       5.67959654       0.00000000 NULL      -0.01396800       0.03177400      -0.02889400
P        2.25036248      -1.32050393       0.37718689       0.00000000 NULL       0.00691200       0.01030200       0.05899700
P        6.76442809       2.60912246       2.87728856       0.00000000 NULL      -0.01237700       0.00083500       0.05899800
P        1.10423900       4.55360475       5.37739022       0.00000000 NULL       0.00546500      -0.01113600       0.05899800
P        5.19161387       0.93243927       0.40023292       0.00000000 NULL       0.09481000       0.00306900      -0.00878200
P        3.34269635       4.02984928       2.90033459       0.00000000 NULL      -0.05006400       0.08057300      -0.00878200
P        1.58471936       0.87993473       5.40043626       0.00000000 NULL      -0.04474600      -0.08364500      -0.00878200
P        3.49488135       1.81779324       2.98650516       0.00000000 NULL       0.03327600       0.06030700       0.00614900
P        3.42432359       2.11775884       5.48660683       0.00000000 NULL      -0.06886600      -0.00133600       0.00614900
P        3.19982464       1.90667122       7.98670850       0.00000000 NULL       0.03559000      -0.05897100       0.00614900
P        6.69913834       2.58143272       0.66823397       0.00000000 NULL       0.00470500       0.03697900      -0.02747000
P        1.16086389       4.51090704       3.16833564       0.00000000 NULL      -0.03437700      -0.01441500      -0.02747000
P        2.25902734      -1.25011648       5.66843731       0.00000000 NULL       0.02967100      -0.02256300      -0.02747000
15
Lattice="6.751552794799112 -5.205151412826338e-14 0.0 -3.375776397399511 5.847016235287886 0.0 0.0 0.0 7.512499555502408" Properties=species:S:1:pos:R:3:initial_magmoms:R:1:castep_labels:S:1:forces:R:3 n_minim_iter=4 energy=-82.774674571748 stress="0.00020730577964978293 0.0 0.0 0.0 0.0002072720604273285 0.0 0.0 0.0 0.00010365288982489147" free_energy=-82.774674571748 pbc="T T T"
P       -3.30540897       4.10748669       0.67953909       0.00000000 NULL      -0.01334200      -0.03369700       0.00624900
P        1.47129340       0.93070417       3.18370561       0.00000000 NULL       0.03585400       0.00529200       0.00624900
P        1.83411658       6.65584103       5.68787212       0.00000000 NULL      -0.02251100       0.02840500       0.00625300
P        2.25142967      -1.32082316       0.37801322       0.00000000 NULL       0.00974100      -0.01340000       0.03605500
P        6.76970471       2.61020629       2.88217974       0.00000000 NULL       0.00673400       0.01513700       0.03605800
P        1.10619582       4.55763253       5.38634625       0.00000000 NULL      -0.01647600      -0.00173800       0.03605900
P        5.19583824       0.93304510       0.40135405       0.00000000 NULL       0.09964100       0.02518000      -0.04406500
P        3.34559325       4.03320478       2.90552057       0.00000000 NULL      -0.07162700       0.07370200      -0.04406100
P        1.58589871       0.88076578       5.40968708       0.00000000 NULL      -0.02801600      -0.09888000      -0.04406100
P        3.49751001       1.82022022       2.99137222       0.00000000 NULL       0.02204000       0.06754800       0.00855400
P        3.42644118       2.11882183       5.49553874       0.00000000 NULL      -0.06951800      -0.01468700       0.00855500
P        3.20337901       1.90797361       7.99970525       0.00000000 NULL       0.04747900      -0.05286100       0.00855400
P        6.70561569       2.58415715       0.66958433       0.00000000 NULL      -0.02348400       0.03448100      -0.00680200
P        1.16079955       4.51515438       3.17375085       0.00000000 NULL      -0.01812000      -0.03757700      -0.00680100
P        2.26091496      -1.25229587       5.67791736       0.00000000 NULL       0.04160400       0.00309400      -0.00679700
15
Lattice="6.76647206900043 -4.613680194942529e-14 0.0 -3.383236034500175 5.859936705752249 0.0 0.0 0.0 7.49891747523573" Properties=species:S:1:pos:R:3:initial_magmoms:R:1:castep_labels:S:1:forces:R:3 n_minim_iter=5 energy=-82.783060246288 stress="0.00015023190342397356 0.0 -0.0 0.0 0.00015029916642080542 -0.0 -0.0 -0.0 -0.00019331385289478398" free_energy=-82.783060246288 pbc="T T T"
P       -3.31536987       4.08984294       0.66946807       0.00000000 NULL      -0.01324000       0.08112700      -0.08857700
P        1.49901343       0.94382012       3.16910722       0.00000000 NULL      -0.06363800      -0.05202900      -0.08857800
P        1.81635746       6.68620977       5.66874638       0.00000000 NULL       0.07687700      -0.02909900      -0.08858200
P        2.25080714      -1.31858866       0.39290962       0.00000000 NULL      -0.02791900      -0.03075200      -0.08140600
P        6.78300011       2.60854991       2.89254878       0.00000000 NULL       0.04059200      -0.00880300      -0.08141000
P        1.11590186       4.56997488       5.39218794       0.00000000 NULL      -0.01267200       0.03955700      -0.08141000
P        5.24513306       0.94201712       0.38915725       0.00000000 NULL      -0.00761100       0.02170000      -0.00862600
P        3.32809512       4.07140933       2.88879641       0.00000000 NULL      -0.01498800      -0.01744100      -0.00863000
P        1.57648094       0.84650968       5.38843556       0.00000000 NULL       0.02259900      -0.00426100      -0.00863100
P        3.51148845       1.86119858       2.98932116       0.00000000 NULL       0.02122200      -0.02558500       0.09895500
P        3.39888293       2.11043833       5.48896032       0.00000000 NULL       0.01154600       0.03117000       0.09895500
P        3.23933773       1.88829921       7.98859948       0.00000000 NULL      -0.03276800      -0.00558600       0.09895600
P        6.72450476       2.61043493       0.66975034       0.00000000 NULL       0.03548800      -0.01702300       0.07966400
P        1.14351706       4.51837390       3.16938950       0.00000000 NULL      -0.00300100       0.03924500       0.07966300
P        2.28168729      -1.26887271       5.66902866       0.00000000 NULL      -0.03248600      -0.02221900       0.07965900
15
Lattice="6.765791338556304 -4.404592659278777e-14 0.0 -3.382895669278114 5.859347175894505 0.0 0.0 0.0 7.503809118634091" Properties=species:S:1:pos:R:3:initial_magmoms:R:1:castep_labels:S:1:forces:R:3 n_minim_iter=6 energy=-82.787290390807 stress="0.00027891477614117076 -3.3616340381001664e-08 -0.0 -3.3616340381001664e-08 0.00027891477614117076 -0.0 -0.0 -0.0 -8.50493411639342e-05" free_energy=-82.787290390807 pbc="T T T"
P       -3.31758768       4.08879256       0.65975581       0.00000000 NULL      -0.04688600       0.01313000      -0.01129100
P        1.50069162       0.94183510       3.16102551       0.00000000 NULL       0.01207000      -0.04716700      -0.01129100
P        1.81689708       6.68806611       5.66229522       0.00000000 NULL       0.03481400       0.03403900      -0.01129200
P        2.24687139      -1.32004683       0.39085808       0.00000000 NULL      -0.00709300       0.00248900      -0.00358400
P        6.78555007       2.60587054       2.89212779       0.00000000 NULL       0.00139200      -0.00738800      -0.00358500
P        1.11626656       4.57352289       5.39339749       0.00000000 NULL       0.00570200       0.00489800      -0.00358500
P        5.25741817       0.94636264       0.38391587       0.00000000 NULL      -0.03944800      -0.01684600      -0.02589200
P        3.31750851       4.07987580       2.88518558       0.00000000 NULL       0.03431100      -0.02574000      -0.02589300
P        1.57376134       0.83310816       5.38645528       0.00000000 NULL       0.00513600       0.04258500      -0.02589300
P        3.51577506       1.87070284       3.00152457       0.00000000 NULL      -0.02626900      -0.03021700       0.06487000
P        3.38782796       2.10939851       5.50279428       0.00000000 NULL       0.03930300      -0.00764100       0.06487000
P        3.24508500       1.87924524       8.00406398       0.00000000 NULL      -0.01303500       0.03785800       0.06487100
P        6.72780691       2.61525289       0.67788585       0.00000000 NULL       0.05080400      -0.01840000      -0.02410100
P        1.13701278       4.51882467       3.17915556       0.00000000 NULL      -0.00946500       0.05319600      -0.02410200
P        2.28386833      -1.27473097       5.68042526       0.00000000 NULL      -0.04133700      -0.03479600      -0.02410200
15
Lattice="6.760818108795324 -4.2762836685213114e-14 0.0 -3.380409054397625 5.855040232582639 0.0 0.0 0.0 7.5061808700338855" Properties=species:S:1:pos:R:3:initial_magmoms:R:1:castep_labels:S:1:forces:R:3 n_minim_iter=7 energy=-82.78933741322 stress="0.00030121381829694197 -0.0 0.0 -0.0 0.00030118016312171325 0.0 0.0 0.0 -5.755034964109171e-06" free_energy=-82.78933741322 pbc="T T T"
P       -3.32200970       4.08528363       0.65680794       0.00000000 NULL      -0.00151300       0.01102900      -0.00265500
P        1.50345484       0.93545305       3.15886823       0.00000000 NULL      -0.00879600      -0.00682500      -0.00265500
P        1.81855587       6.68934321       5.66092852       0.00000000 NULL       0.01030800      -0.00420300      -0.00265400
P        2.24406809      -1.31889323       0.39181675       0.00000000 NULL      -0.01566400      -0.00398600      -0.04312400
P        6.78097944       2.60286601       2.89387704       0.00000000 NULL       0.01128400      -0.01157300      -0.04312300
P        1.11618064       4.57106687       5.39593733       0.00000000 NULL       0.00438100       0.01555800      -0.04312300
P        5.25689666       0.94530703       0.37770623       0.00000000 NULL      -0.01338600      -0.00020400       0.02865500
P        3.31371022       4.07995196       2.87976652       0.00000000 NULL       0.00686900      -0.01149000       0.02865600
P        1.57062130       0.82978067       5.38182681       0.00000000 NULL       0.00651500       0.01169500       0.02865600
P        3.51269883       1.87140558       3.01230037       0.00000000 NULL       0.01811000      -0.00898100       0.01548600
P        3.38378426       2.10638305       5.51436066       0.00000000 NULL      -0.00127700       0.02017500       0.01548700
P        3.24474509       1.87725102       8.01642095       0.00000000 NULL      -0.01683300      -0.01119400       0.01548600
P        6.72931549       2.61422327       0.67692526       0.00000000 NULL       0.01240200      -0.01651100       0.00163500
P        1.13217694       4.52064595       3.17898555       0.00000000 NULL       0.00809800       0.01899600       0.00163500
P        2.27973574      -1.27982957       5.68104584       0.00000000 NULL      -0.02050000      -0.00248600       0.00163600
15
Lattice="6.752887511631861 -4.164559804012021e-14 0.0 -3.3764437558158935 5.8481721339718975 0.0 0.0 0.0 7.5099241573461875" Properties=species:S:1:pos:R:3:initial_magmoms:R:1:castep_labels:S:1:forces:R:3 n_minim_iter=8 energy=-82.790374781155 stress="0.0002196692130179988 0.0 -0.0 0.0 0.00021960177810993492 -0.0 -0.0 -0.0 2.3130173465901332e-05" free_energy=-82.790374781155 pbc="T T T"
P       -3.32257435       4.08025455       0.66030048       0.00000000 NULL       0.01820800      -0.00394600      -0.00702700
P        1.50412717       0.93061048       3.16360853       0.00000000 NULL      -0.00568400       0.01773900      -0.00702700
P        1.81844819       6.68547865       5.66691658       0.00000000 NULL      -0.01251900      -0.01379100      -0.00702800
P        2.23956832      -1.31681958       0.38572662       0.00000000 NULL      -0.00717700      -0.03217600      -0.02100600
P        6.77350289       2.59793227       2.88903467       0.00000000 NULL       0.03145100       0.00987400      -0.02100800
P        1.11626106       4.56705886       5.39234273       0.00000000 NULL      -0.02427700       0.02229900      -0.02100800
P        5.25207358       0.94263677       0.38088843       0.00000000 NULL      -0.01844700      -0.01411300       0.00026500
P        3.31050367       4.07711017       2.88419649       0.00000000 NULL       0.02144700      -0.00891900       0.00026300
P        1.56675503       0.82842461       5.38750454       0.00000000 NULL      -0.00299900       0.02303400       0.00026300
P        3.51384253       1.86930505       3.01814316       0.00000000 NULL      -0.01033400      -0.01671500       0.01939800
P        3.37710093       2.10842379       5.52145121       0.00000000 NULL       0.01964200      -0.00059200       0.01939800
P        3.23838882       1.87044272       8.02475926       0.00000000 NULL      -0.00930800       0.01730800       0.01939800
P        6.72577626       2.60828234       0.67304876       0.00000000 NULL      -0.00356100       0.01714100       0.00837300
P        1.13116095       4.52055135       3.17635681       0.00000000 NULL      -0.01306700      -0.01165300       0.00837300
P        2.27239507      -1.28066213       5.67966486       0.00000000 NULL       0.01662400      -0.00549000       0.00837300
15
Lattice="6.751460391731907 -4.2365755839553303e-14 0.0 -3.3757301958659163 5.846936211884291 0.0 0.0 0.0 7.5126497890807" Properties=species:S:1:pos:R:3:initial_magmoms:R:1:castep_labels:S:1:forces:R:3 n_minim_iter=9 energy=-82.790823348047 stress="0.00016330341756104786 -0.0 0.0 -0.0 0.00016330341756104786 0.0 0.0 0.0 4.474574336227762e-05" free_energy=-82.790823348047 pbc="T T T"
P       -3.32187167       4.07806512       0.66259498       0.00000000 NULL       0.01182300       0.00105600      -0.01258300
P        1.50495838       0.93107782       3.16681157       0.00000000 NULL      -0.00682800       0.00971300      -0.01258300
P        1.81691430       6.68472891       5.67102817       0.00000000 NULL      -0.00499800      -0.01076900      -0.01258100
P        2.23824695      -1.31956625       0.38195635       0.00000000 NULL       0.00068200      -0.00875000      -0.00329000
P        6.77511515       2.59816127       2.88617294       0.00000000 NULL       0.00723900       0.00496400      -0.00328800
P        1.11382950       4.56834062       5.39038954       0.00000000 NULL      -0.00791800       0.00378600      -0.00328800
P        5.25031107       0.93968206       0.38207041       0.00000000 NULL      -0.01818500       0.00951800       0.00146400
P        3.31251666       4.07706115       2.88628701       0.00000000 NULL       0.00084900      -0.02050700       0.00146600
P        1.56436387       0.83019242       5.39050360       0.00000000 NULL       0.01733400       0.01099000       0.00146600
P        3.51448575       1.86737866       3.02203206       0.00000000 NULL      -0.00368000       0.00683200       0.01427300
P        3.37702049       2.10994403       5.52624866       0.00000000 NULL      -0.00407700      -0.00660200       0.01427300
P        3.23568535       1.86961294       8.03046525       0.00000000 NULL       0.00775600      -0.00023000       0.01427200
P        6.72529708       2.60876110       0.67131111       0.00000000 NULL      -0.00616300      -0.02141400       0.00013300
P        1.12955880       4.51989698       3.17552770       0.00000000 NULL       0.02162900       0.00536900       0.00013200
P        2.27233572      -1.28172245       5.67974430       0.00000000 NULL      -0.01546300       0.01604500       0.00013400
15
Lattice="6.754949899390815 -4.3651172397029054e-14 0.0 -3.377474949695369 5.849958214163604 0.0 0.0 0.0 7.511614809975211" Properties=species:S:1:pos:R:3:initial_magmoms:R:1:castep_labels:S:1:forces:R:3 n_minim_iter=10 energy=-82.791237836749 stress="5.7069648632790096e-05 -0.0 0.0 -0.0 5.7035959347882905e-05 0.0 0.0 0.0 6.330216634062137e-05" free_energy=-82.791237836749 pbc="T T T"
P       -3.32087960       4.07825158       0.66315658       0.00000000 NULL       0.00252000      -0.00326000      -0.00959700
P        1.50604562       0.93486575       3.16702818       0.00000000 NULL       0.00156400       0.00381200      -0.00959700
P        1.81483499       6.68679853       5.67089979       0.00000000 NULL      -0.00408300      -0.00055000      -0.00959500
P        2.23985828      -1.32445587       0.37913794       0.00000000 NULL       0.00268500       0.00082700       0.00165300
P        6.78203352       2.60200152       2.88300954       0.00000000 NULL      -0.00205900       0.00191200       0.00165400
P        1.11053406       4.57241198       5.38688115       0.00000000 NULL      -0.00062600      -0.00274100       0.00165400
P        5.24905486       0.93932934       0.38305520       0.00000000 NULL       0.00987900      -0.00993700       0.00494800
P        3.31693974       4.07614961       2.88692680       0.00000000 NULL       0.00366600       0.01352300       0.00495000
P        1.56643126       0.83447869       5.39079841       0.00000000 NULL      -0.01354500      -0.00358500       0.00495000
P        3.51716109       1.86910369       3.02595566       0.00000000 NULL      -0.00323400      -0.00998000       0.00144300
P        3.37767842       2.11139843       5.52982727       0.00000000 NULL       0.01026000       0.00219000       0.00144300
P        3.23758635       1.86945552       8.03369887       0.00000000 NULL      -0.00702600       0.00779000       0.00144200
P        6.72751929       2.60604897       0.66795408       0.00000000 NULL      -0.00157900      -0.00943400       0.00154900
P        1.13428598       4.52317754       3.17182569       0.00000000 NULL       0.00895900       0.00334900       0.00155000
P        2.27062059      -1.27926888       5.67569729       0.00000000 NULL      -0.00738000       0.00608200       0.00155200
15
Lattice="6.75514036985101 -4.4420586952953083e-14 0.0 -3.3775701849254656 5.850123166420803 0.0 0.0 0.0 7.510221381448234" Properties=species:S:1:pos:R:3:initial_magmoms:R:1:castep_labels:S:1:forces:R:3 n_minim_iter=11 energy=-82.791307347406 stress="3.9320477897347715e-05 -0.0 -0.0 -0.0 3.9320477897347715e-05 -0.0 -0.0 -0.0 5.2124061102996494e-05" free_energy=-82.791307347406 pbc="T T T"
P       -3.32034641       4.07776392       0.66244395       0.00000000 NULL       0.00119400       0.00449200       0.00038500
P        1.50629658       0.93573628       3.16585108       0.00000000 NULL      -0.00448900      -0.00121000       0.00038400
P        1.81405084       6.68674555       5.66925820       0.00000000 NULL       0.00329200      -0.00328200       0.00038100
P        2.24028992      -1.32507983       0.37886190       0.00000000 NULL       0.00130200      -0.00100000       0.00091100
P        6.78254854       2.60268731       2.88226902       0.00000000 NULL       0.00021700       0.00162600       0.00090800
P        1.10987311       4.57251510       5.38567615       0.00000000 NULL      -0.00151600      -0.00062700       0.00090800
P        5.24942433       0.93835628       0.38357364       0.00000000 NULL      -0.00200600      -0.00732800      -0.00137600
P        3.31778816       4.07695610       2.88698077       0.00000000 NULL       0.00734800       0.00192700      -0.00137900
P        1.56549907       0.83481020       5.39038790       0.00000000 NULL      -0.00534300       0.00540200      -0.00138000
P        3.51720571       1.86848739       3.02613786       0.00000000 NULL       0.00141500       0.00552200      -0.00153300
P        3.37838031       2.11174522       5.52954499       0.00000000 NULL      -0.00549000      -0.00153500      -0.00153300
P        3.23712555       1.86988998       8.03295211       0.00000000 NULL       0.00407400      -0.00398700      -0.00153200
P        6.72734762       2.60469827       0.66729243       0.00000000 NULL       0.00145400      -0.00056700       0.00162000
P        1.13573202       4.52370423       3.17069956       0.00000000 NULL      -0.00023300       0.00154100       0.00161900
P        2.26963192      -1.27827991       5.67410669       0.00000000 NULL      -0.00121700      -0.00097400       0.00161600
