60
Lattice="13.952295022606833 6.282615141260407e-16 -3.7310285943520774e-15 6.976147511303415 9.504139460657967 0.0034850680032888904 6.976147511303419 2.5431719960849497 9.157562734246714" Properties=species:S:1:pos:R:3:initial_magmoms:R:1:castep_labels:S:1:forces:R:3 n_minim_iter=1 energy=-323.359905191628 stress="9.77589665521753e-06 2.470740519431558e-08 2.470740519431558e-08 2.470740519431558e-08 -0.0001445300845850147 -3.361854266773206e-05 2.470740519431558e-08 -3.361854266773206e-05 -0.0001258265788529178" free_energy=-323.359905191628 pbc="T T T"
P       18.47741598       7.05976080       2.42895804       0.00000000 NULL      -0.00498400      -0.00221500       0.00275900
P        9.42717407       7.70770230       1.57687723       0.00000000 NULL       0.00498300       0.00206700      -0.00287300
P       16.40332158       7.82009289       3.00713175       0.00000000 NULL       0.00498400      -0.00206700       0.00287300
P       11.50126847       8.46803440       2.15505093       0.00000000 NULL      -0.00498300       0.00221300      -0.00276000
P       13.01132456      11.25161555       3.18689924       0.00000000 NULL      -0.00236600       0.00333800      -0.00348000
P       14.89326549       9.55827804       5.41373669       0.00000000 NULL       0.00236600      -0.00246200       0.00414600
P        7.91711798       5.96951715      -0.82972772       0.00000000 NULL       0.00236600       0.00246100      -0.00414600
P        6.03517705       4.27617964       1.39710974       0.00000000 NULL      -0.00236600      -0.00333800       0.00347900
P       16.78436316       4.64165431       0.31965048       0.00000000 NULL       0.00624400      -0.00811800       0.00429500
P       11.12022689       5.02890946      -0.18961260       0.00000000 NULL      -0.00624600       0.00196900      -0.00897200
P       18.09637440      10.49888573       4.77362157       0.00000000 NULL      -0.00624200      -0.00197200       0.00897000
P       23.76051067      10.88614088       4.26435849       0.00000000 NULL       0.00624600       0.00812000      -0.00429500
P       16.89488235       9.69442544       8.57495172       0.00000000 NULL      -0.00522000       0.00211400      -0.00397400
P       17.98585521       4.83010742       2.46983120       0.00000000 NULL       0.00522100      -0.00326600       0.00310100
P        4.03356019       1.19354831       2.11069270       0.00000000 NULL       0.00522000       0.00326900      -0.00310200
P       16.89488235       8.37654175       5.16661999       0.00000000 NULL      -0.00522100      -0.00211700       0.00397600
P        9.23489200       4.02620972      -0.80171470       0.00000000 NULL       0.00108400       0.00131600       0.00445500
P       11.69355054       6.32703124       8.67455303       0.00000000 NULL      -0.00108000       0.00464400       0.00007900
P       11.69355054      11.74393595       5.06701868       0.00000000 NULL      -0.00108400      -0.00464400      -0.00007800
P        9.23489200       1.99744601       5.38223860       0.00000000 NULL       0.00107800      -0.00131200      -0.00445300
P       22.65400411       7.07613756       6.79076131       0.00000000 NULL       0.00076700       0.00385900      -0.01608400
P       12.22673345       2.41111298       0.42355833       0.00000000 NULL      -0.00076700      -0.01446700       0.00801700
P       12.22673345       3.61254276       4.15696557       0.00000000 NULL      -0.00076700       0.01446800      -0.00801700
P       22.65400411      10.99482963       6.95081039       0.00000000 NULL       0.00076900      -0.00386300       0.01608500
P       13.01008922       0.31949820       0.77915555       0.00000000 NULL       0.00819900       0.00693200       0.00060000
P       21.87064834       6.85985531       4.68018705       0.00000000 NULL      -0.00820400       0.00243500       0.00651900
P       21.87064834      11.21111188       9.06138466       0.00000000 NULL      -0.00820000      -0.00243500      -0.00651800
P       13.01008922       5.70415753       3.80136835       0.00000000 NULL       0.00820400      -0.00693200      -0.00060500
P       23.51643638      12.61459328       9.49690505       0.00000000 NULL       0.00629300      -0.00203700      -0.01048400
P       11.36430118       6.49889463       5.03742295       0.00000000 NULL      -0.00630300      -0.01064900       0.00083700
P       11.36430118      -0.47523889      -0.45689905       0.00000000 NULL      -0.00629200       0.01064600      -0.00083400
P        9.56414136       5.45637391       4.24466665       0.00000000 NULL       0.00630200       0.00204000       0.01048500
P        7.22666196       3.72694213       3.31087039       0.00000000 NULL       0.00648200      -0.00728700      -0.00147900
P       13.70178058      10.21007634       7.28715332       0.00000000 NULL      -0.00648200      -0.00337300      -0.00662700
P       13.70178058       7.86089085       6.45441839       0.00000000 NULL      -0.00648200       0.00337100       0.00662700
P        7.22666196       2.29671361       1.26965352       0.00000000 NULL       0.00648000       0.00728600       0.00147700
P       16.63990274      11.71465451       7.56086941       0.00000000 NULL      -0.00087600      -0.00412100      -0.00297500
P       18.24083483       4.39277573       4.68758444       0.00000000 NULL       0.00087500      -0.00396900      -0.00317800
P        4.28853980       1.63088001      -0.10706053       0.00000000 NULL       0.00087500       0.00396900       0.00318000
P       16.63990274       6.35631268       6.18070230       0.00000000 NULL      -0.00087500       0.00412400       0.00297600
P       11.31280814       8.56235300       4.36275188       0.00000000 NULL      -0.00220700       0.00959200      -0.01058200
P       16.59178191       9.97270943       2.50805103       0.00000000 NULL       0.00220900      -0.00763400       0.01207100
P        9.61563440       5.55508577       2.07595794       0.00000000 NULL       0.00220800       0.00763400      -0.01207200
P       18.28895565       6.96544219       0.22125709       0.00000000 NULL      -0.00220900      -0.00959300       0.01058100
P        1.68373903       2.71713262       0.54698741       0.00000000 NULL       0.00385700       0.00100400      -0.00407200
P       19.24470351       7.27685615       7.05266743       0.00000000 NULL      -0.00385900      -0.00365300       0.00205500
P       19.24470351      10.79411104       6.68890428       0.00000000 NULL      -0.00385700       0.00365100      -0.00205500
P       15.63603406       3.30652311       4.03353649       0.00000000 NULL       0.00385800      -0.00100400       0.00406900
P       13.39136213       3.50246049       8.79852657       0.00000000 NULL       0.00423000      -0.00595000      -0.00371500
P       14.51322792       5.93402988       5.60087119       0.00000000 NULL      -0.00422800      -0.00517100      -0.00474400
P       21.48937543       2.63279785       8.13721544       0.00000000 NULL      -0.00422900       0.00517300       0.00474500
P       20.36750964       5.06436724       4.93956007       0.00000000 NULL       0.00422800       0.00595300       0.00371600
P       13.78450485       3.65263158       1.37338665       0.00000000 NULL       0.00133000       0.01555300       0.00907500
P       21.09623271       8.32319660       7.73330365       0.00000000 NULL      -0.00133000       0.01290100       0.01256200
P       21.09623271       9.74777059       6.00826805       0.00000000 NULL      -0.00132900      -0.01290200      -0.01256200
P       13.78450485       2.37102415       3.20713725       0.00000000 NULL       0.00133000      -0.01555300      -0.00907500
P       15.06755802       3.51819930       6.18540889       0.00000000 NULL       0.00243900      -0.00093800      -0.00246500
P       12.83703203       3.42015168       6.31434723       0.00000000 NULL      -0.00244000      -0.00262200      -0.00024800
P       19.81317954       5.14667605       7.42373941       0.00000000 NULL      -0.00243900       0.00262500       0.00024900
P        8.09141051       5.04862843       7.55267774       0.00000000 NULL       0.00244100       0.00094100       0.00246600
60
Lattice="13.952162118739494 8.074808785476825e-16 -3.693200568235791e-15 6.976081059369745 9.505477896642345 0.0037969407895122615 6.97608105936975 2.5438302001336353 9.158769151649336" Properties=species:S:1:pos:R:3:initial_magmoms:R:1:castep_labels:S:1:forces:R:3 n_minim_iter=2 energy=-323.359931021554 stress="6.993713969206051e-05 -0.0 -0.0 -0.0 1.6220410312380407e-05 -1.344564976655696e-05 -0.0 -1.344564976655696e-05 2.36554511814563e-05" free_energy=-323.359931021554 pbc="T T T"
P       18.47723597       7.06083273       2.42948949       0.00000000 NULL      -0.00587200      -0.00349500       0.00073800
P        9.42708827       7.70884099       1.57732089       0.00000000 NULL       0.00587200      -0.00022200      -0.00356400
P       16.40316933       7.82129096       3.00775910       0.00000000 NULL       0.00587200       0.00022300       0.00356500
P       11.50115491       8.46929922       2.15559050       0.00000000 NULL      -0.00587200       0.00349500      -0.00073800
P       13.01119872      11.25330705       3.18765599       0.00000000 NULL      -0.00217900       0.00533900      -0.00433700
P       14.89312553       9.55979942       5.41471717       0.00000000 NULL       0.00217900      -0.00275200       0.00630500
P        7.91704447       5.97033253      -0.82963719       0.00000000 NULL       0.00217900       0.00275200      -0.00630400
P        6.03511766       4.27682490       1.39742400       0.00000000 NULL      -0.00217900      -0.00533900       0.00433700
P       16.78420829       4.64231188       0.31984523       0.00000000 NULL       0.00685100      -0.00993800       0.00409100
P       11.12011596       5.02961297      -0.18947826       0.00000000 NULL      -0.00685200       0.00128500      -0.01067100
P       18.09619701      10.50051898       4.77455825       0.00000000 NULL      -0.00685300      -0.00128500       0.01067100
P       23.76028935      10.88782007       4.26523476       0.00000000 NULL       0.00685200       0.00993900      -0.00409000
P       16.89471723       9.69607325       8.57631784       0.00000000 NULL      -0.00566600       0.00218800      -0.00282600
P       17.98568807       4.83086588       2.47029487       0.00000000 NULL       0.00566600      -0.00213700       0.00286400
P        4.03352595       1.19378817       2.11098818       0.00000000 NULL       0.00566700       0.00213700      -0.00286300
P       16.89471723       8.37788890       5.16753130       0.00000000 NULL      -0.00566600      -0.00218800       0.00282500
P        9.23480490       4.02675145      -0.80167751       0.00000000 NULL       0.00137200       0.00301600       0.00255300
P       11.69343828       6.32821017       8.67582426       0.00000000 NULL      -0.00137100       0.00326500       0.00222200
P       11.69343828      11.74575198       5.06802488       0.00000000 NULL      -0.00137100      -0.00326600      -0.00222300
P        9.23480490       1.99790260       5.38296056       0.00000000 NULL       0.00137300      -0.00301700      -0.00255400
P       22.65378893       7.07735962       6.79181310       0.00000000 NULL      -0.00063800       0.00274300      -0.01595800
P       12.22661637       2.41145476       0.42369572       0.00000000 NULL       0.00063800      -0.01464400       0.00690900
P       12.22661637       3.61319929       4.15758733       0.00000000 NULL       0.00063800       0.01464500      -0.00690800
P       22.65378893      10.99660254       6.95203604       0.00000000 NULL      -0.00063800      -0.00274300       0.01595800
P       13.00997188       0.31957429       0.77926206       0.00000000 NULL       0.00716500       0.00814800      -0.00103000
P       21.87043343       6.86097660       4.68099105       0.00000000 NULL      -0.00716400       0.00118300       0.00812700
P       21.87043343      11.21298555       9.06285809       0.00000000 NULL      -0.00716500      -0.00118400      -0.00812700
P       13.00997188       5.70507977       3.80202099       0.00000000 NULL       0.00716400      -0.00814800       0.00103100
P       23.51621742      12.61667917       9.49847471       0.00000000 NULL       0.00594900      -0.00413800      -0.00871400
P       11.36418788       6.49996629       5.03825438       0.00000000 NULL      -0.00594800      -0.00950300      -0.00166000
P       11.36418788      -0.47531224      -0.45697133       0.00000000 NULL      -0.00594900       0.00950200       0.00165900
P        9.56405531       5.45728298       4.24537443       0.00000000 NULL       0.00594800       0.00413900       0.00871400
P        7.22659832       3.72756958       3.31139738       0.00000000 NULL       0.00501200      -0.00746100      -0.00235300
P       13.70164486      10.21175016       7.28837627       0.00000000 NULL      -0.00501100      -0.00426100      -0.00656100
P       13.70164486       7.86221199       6.45547287       0.00000000 NULL      -0.00501100       0.00426200       0.00656100
P        7.22659832       2.29708447       1.26988567       0.00000000 NULL       0.00501200       0.00746200       0.00235400
P       16.63974353      11.71654856       7.56217816       0.00000000 NULL      -0.00112600      -0.00582000      -0.00437700
P       18.24066177       4.39354472       4.68830072       0.00000000 NULL       0.00112600      -0.00577200      -0.00443800
P        4.28849966       1.63110934      -0.10701767       0.00000000 NULL       0.00112700       0.00577200       0.00443700
P       16.63974353       6.35741359       6.18167098       0.00000000 NULL      -0.00112700       0.00581900       0.00437700
P       11.31269860       8.56370937       4.36355902       0.00000000 NULL      -0.00271700       0.00682500      -0.01243400
P       16.59162564       9.97418979       2.50869511       0.00000000 NULL       0.00271700      -0.01015700       0.00990000
P        9.61554458       5.55594216       2.07638488       0.00000000 NULL       0.00271700       0.01015800      -0.00990000
P       18.28877966       6.96642258       0.22152097       0.00000000 NULL      -0.00271700      -0.00682400       0.01243400
P        1.68372609       2.71753396       0.54714027       0.00000000 NULL       0.00362600       0.00307100      -0.00531700
P       19.24451709       7.27810901       7.05377247       0.00000000 NULL      -0.00362700      -0.00430400       0.00438000
P       19.24451709      10.79585314       6.69007667       0.00000000 NULL      -0.00362700       0.00430400      -0.00438000
P       15.63588821       3.30712009       4.03414278       0.00000000 NULL       0.00362600      -0.00307100       0.00531800
P       13.39123796       3.50323724       8.79971741       0.00000000 NULL       0.00445200      -0.00420800      -0.00244500
P       14.51308628       5.93504487       5.60174873       0.00000000 NULL      -0.00445200      -0.00347900      -0.00340000
P       21.48916734       2.63343938       8.13830347       0.00000000 NULL      -0.00445200       0.00347800       0.00339900
P       20.36731902       5.06524702       4.94033479       0.00000000 NULL       0.00445200       0.00420600       0.00244400
P       13.78437461       3.65320342       1.37368207       0.00000000 NULL       0.00063400       0.01261500       0.00858200
P       21.09603069       8.32463240       7.73453489       0.00000000 NULL      -0.00063400       0.01164100       0.00986300
P       21.09603069       9.74932975       6.00931425       0.00000000 NULL      -0.00063400      -0.01164000      -0.00986300
P       13.78437461       2.37145064       3.20760098       0.00000000 NULL       0.00063400      -0.01261500      -0.00858200
P       15.06741645       3.51889665       6.18628078       0.00000000 NULL       0.00304900      -0.00269500      -0.00343700
P       12.83690779       3.42083809       6.31523350       0.00000000 NULL      -0.00304900      -0.00403200      -0.00167800
P       19.81298885       5.14764616       7.42481870       0.00000000 NULL      -0.00304900       0.00403200       0.00167700
P        8.09133539       5.04958760       7.55377142       0.00000000 NULL       0.00305000       0.00269400       0.00343500
60
Lattice="13.949912515155274 7.977873075912815e-16 -3.639575948976539e-15 6.974956257577635 9.505838995919085 0.004246520903868056 6.97495625757764 2.5443599273863393 9.15899697615335" Properties=species:S:1:pos:R:3:initial_magmoms:R:1:castep_labels:S:1:forces:R:3 n_minim_iter=3 energy=-323.359945605722 stress="-5.686011297279489e-05 -2.4703886881735653e-08 -1.6469257921157104e-08 -2.4703886881735653e-08 1.148730740000708e-05 4.767850168174981e-06 -1.6469257921157104e-08 4.767850168174981e-06 8.843991503661363e-06" free_energy=-323.359945605722 pbc="T T T"
P       18.47424385       7.06120836       2.42985446       0.00000000 NULL      -0.00379100      -0.00419900       0.00029800
P        9.42558118       7.70920875       1.57769620       0.00000000 NULL       0.00379200      -0.00083600      -0.00412600
P       16.40053744       7.82172971       3.00817207       0.00000000 NULL       0.00379100       0.00083500       0.00412600
P       11.49928759       8.46973010       2.15601381       0.00000000 NULL      -0.00379200       0.00419900      -0.00029700
P       13.00909582      11.25389632       3.18821616       0.00000000 NULL      -0.00136900       0.00484700      -0.00375900
P       14.89072921       9.56041237       5.41524620       0.00000000 NULL       0.00136800      -0.00232600       0.00567600
P        7.91577295       5.97052609      -0.82937793       0.00000000 NULL       0.00136800       0.00232700      -0.00567500
P        6.03413957       4.27704214       1.39765211       0.00000000 NULL      -0.00137000      -0.00484700       0.00375900
P       16.78151729       4.64248156       0.32007787       0.00000000 NULL       0.00561900      -0.00946100       0.00420000
P       11.11830774       5.02979818      -0.18926605       0.00000000 NULL      -0.00561400       0.00152100      -0.01023800
P       18.09326400      10.50114028       4.77513432       0.00000000 NULL      -0.00561700      -0.00151900       0.01024000
P       23.75647355      10.88845690       4.26579040       0.00000000 NULL       0.00561800       0.00945900      -0.00420100
P       16.89198055       9.69685192       8.57687019       0.00000000 NULL      -0.00428200       0.00228800      -0.00249000
P       17.98280074       4.83116082       2.47055891       0.00000000 NULL       0.00428300      -0.00179000       0.00287000
P        4.03288823       1.19393864       2.11106284       0.00000000 NULL       0.00428100       0.00178900      -0.00287200
P       16.89198055       8.37844647       5.16799506       0.00000000 NULL      -0.00428100      -0.00228800       0.00249100
P        9.23331889       4.02687254      -0.80148991       0.00000000 NULL      -0.00044600       0.00225900       0.00269200
P       11.69154989       6.32886872       8.67622951       0.00000000 NULL       0.00044000       0.00320000       0.00146000
P       11.69154989      11.74642967       5.06863573       0.00000000 NULL       0.00044200      -0.00319800      -0.00145900
P        9.23331889       1.99822693       5.38311166       0.00000000 NULL      -0.00044300      -0.00226000      -0.00269400
P       22.65013546       7.07795622       6.79219138       0.00000000 NULL       0.00099600       0.00242400      -0.01590000
P       12.22464584       2.41153330       0.42383083       0.00000000 NULL      -0.00099300      -0.01467500       0.00658300
P       12.22464584       3.61356616       4.15779092       0.00000000 NULL      -0.00099400       0.01467500      -0.00658400
P       22.65013546      10.99734217       6.95267387       0.00000000 NULL       0.00099400      -0.00242200       0.01590100
P       13.00789083       0.31964120       0.77928469       0.00000000 NULL       0.00835100       0.00791000       0.00017200
P       21.86689046       6.86146169       4.68138818       0.00000000 NULL      -0.00835100       0.00228000       0.00757600
P       21.86689046      11.21383670       9.06347707       0.00000000 NULL      -0.00835200      -0.00228200      -0.00757500
P       13.00789083       5.70545827       3.80233707       0.00000000 NULL       0.00835000      -0.00791000      -0.00017300
P       23.51243934      12.61759894       9.49916242       0.00000000 NULL       0.00567400      -0.00335300      -0.00835600
P       11.36234195       6.50042938       5.03861822       0.00000000 NULL      -0.00566900      -0.00894200      -0.00099900
P       11.36234195      -0.47532991      -0.45699647       0.00000000 NULL      -0.00567200       0.00894500       0.00100100
P        9.56252683       5.45769945       4.24570282       0.00000000 NULL       0.00566800       0.00335200       0.00835000
P        7.22544509       3.72785091       3.31160758       0.00000000 NULL       0.00644200      -0.00724600      -0.00266000
P       13.69942369      10.21247331       7.28892990       0.00000000 NULL      -0.00644400      -0.00450100      -0.00627100
P       13.69942369       7.86282508       6.45593535       0.00000000 NULL      -0.00644300       0.00450100       0.00627200
P        7.22544509       2.29724856       1.27001417       0.00000000 NULL       0.00644400       0.00724700       0.00266100
P       16.63705815      11.71733861       7.56281173       0.00000000 NULL       0.00084100      -0.00569400      -0.00463100
P       18.23772315       4.39392096       4.68855403       0.00000000 NULL      -0.00083900      -0.00598400      -0.00425000
P        4.28781063       1.63117851      -0.10693228       0.00000000 NULL      -0.00084100       0.00598400       0.00425100
P       16.63705815       6.35795978       6.18205352       0.00000000 NULL       0.00084000       0.00569400       0.00462900
P       11.31086865       8.56425750       4.36398789       0.00000000 NULL      -0.00247000       0.00603100      -0.01225900
P       16.58895639       9.97466523       2.50921958       0.00000000 NULL       0.00246900      -0.01020200       0.00909100
P        9.61400013       5.55627323       2.07664869       0.00000000 NULL       0.00247000       0.01020200      -0.00908800
P       18.28582491       6.96668096       0.22188038       0.00000000 NULL      -0.00247000      -0.00603100       0.01226000
P        1.68346291       2.71766910       0.54726370       0.00000000 NULL       0.00384200       0.00273000      -0.00518900
P       19.24140587       7.27870949       7.05420841       0.00000000 NULL      -0.00384000      -0.00427100       0.00401800
P       19.24140587      10.79658890       6.69065684       0.00000000 NULL      -0.00384000       0.00427000      -0.00401700
P       15.63337543       3.30743037       4.03435805       0.00000000 NULL       0.00384000      -0.00273000       0.00518900
P       13.38908877       3.50377616       8.79998032       0.00000000 NULL       0.00581100      -0.00349100      -0.00267500
P       14.51073626       5.93552655       5.60208691       0.00000000 NULL      -0.00581200      -0.00351000      -0.00264900
P       21.48569252       2.63393284       8.13853182       0.00000000 NULL      -0.00581200       0.00350900       0.00265000
P       20.36404503       5.06568324       4.94063841       0.00000000 NULL       0.00581300       0.00349100       0.00267400
P       13.78215379       3.65343688       1.37389059       0.00000000 NULL      -0.00024100       0.01279700       0.00832200
P       21.09262750       8.32534114       7.73504284       0.00000000 NULL       0.00024100       0.01144000       0.01010800
P       21.09262750       9.74995725       6.00982241       0.00000000 NULL       0.00024100      -0.01144000      -0.01010800
P       13.78215379       2.37166259       3.20773116       0.00000000 NULL      -0.00024100      -0.01279800      -0.00832300
P       15.06499367       3.51931747       6.18651246       0.00000000 NULL       0.00544700      -0.00286200      -0.00342800
P       12.83483137       3.42125812       6.31546622       0.00000000 NULL      -0.00544600      -0.00406700      -0.00184300
P       19.80978763       5.14820128       7.42515250       0.00000000 NULL      -0.00544300       0.00406700       0.00184300
P        8.09003741       5.05014192       7.55410627       0.00000000 NULL       0.00544100       0.00286200       0.00342600
60
Lattice="13.951455253263871 8.191707131808074e-16 -3.678675765393107e-15 6.975727626631934 9.506020122256524 0.006721373797645761 6.975727626631938 2.5467931779467063 9.15851015451617" Properties=species:S:1:pos:R:3:initial_magmoms:R:1:castep_labels:S:1:forces:R:3 n_minim_iter=4 energy=-323.360063758733 stress="5.111214295958737e-05 2.470379070062222e-08 1.6469193800414814e-08 2.470379070062222e-08 8.38281964441114e-06 0.0001368754696752475 1.6469193800414814e-08 0.0001368754696752475 -6.754016377550114e-05" free_energy=-323.360063758733 pbc="T T T"
P       18.47610689       7.06183076       2.43141445       0.00000000 NULL      -0.00193200      -0.00443800       0.00420300
P        9.42680362       7.70975228       1.57935992       0.00000000 NULL       0.00193100       0.00286500      -0.00539900
P       16.40253125       7.82267450       3.00997722       0.00000000 NULL       0.00193200      -0.00286400       0.00540000
P       11.50037926       8.47059602       2.15792269       0.00000000 NULL      -0.00193100       0.00443700      -0.00420400
P       13.01046674      11.25512779       3.19059495       0.00000000 NULL      -0.00128900       0.00329100      -0.00169800
P       14.89244378       9.56190767       5.41727803       0.00000000 NULL       0.00129000      -0.00075700       0.00362500
P        7.91671615       5.97051910      -0.82794089       0.00000000 NULL       0.00129000       0.00075700      -0.00362500
P        6.03473911       4.27729899       1.39874219       0.00000000 NULL      -0.00128900      -0.00329100       0.00169800
P       16.78360891       4.64228733       0.32140635       0.00000000 NULL       0.00540300      -0.00652200       0.00154200
P       11.11930160       5.02990038      -0.18832739       0.00000000 NULL      -0.00540700      -0.00025900      -0.00670000
P       18.09502922      10.50252639       4.77766453       0.00000000 NULL      -0.00540400       0.00025700       0.00669700
P       23.75933654      10.89013945       4.26793079       0.00000000 NULL       0.00540500       0.00652500      -0.00154100
P       16.89366089       9.69935475       8.57821352       0.00000000 NULL      -0.00310300       0.00169300      -0.00346800
P       17.98497725       4.83181695       2.47161772       0.00000000 NULL       0.00310300      -0.00288800       0.00255900
P        4.03352199       1.19458971       2.11099804       0.00000000 NULL       0.00310300       0.00288900      -0.00255700
P       16.89366089       8.37986521       5.16963378       0.00000000 NULL      -0.00310400      -0.00169400       0.00346700
P        9.23435486       4.02683480      -0.80023346       0.00000000 NULL      -0.00019200       0.00192200       0.00364900
P       11.69282803       6.33137657       8.67685140       0.00000000 NULL       0.00019700       0.00402800       0.00087500
P       11.69282803      11.74784338       5.07099590       0.00000000 NULL       0.00019400      -0.00403000      -0.00087600
P        9.23435486       1.99957186       5.38284923       0.00000000 NULL      -0.00019600      -0.00192000      -0.00364700
P       22.65265372       7.07996129       6.79257067       0.00000000 NULL      -0.00341800       0.00701800      -0.00731700
P       12.22598442       2.41112743       0.42466761       0.00000000 NULL       0.00341600      -0.00517500       0.00872100
P       12.22598442       3.61527922       4.15794816       0.00000000 NULL       0.00341700       0.00517500      -0.00871900
P       22.65265372      10.99925867       6.95527662       0.00000000 NULL      -0.00341600      -0.00702100       0.00731600
P       13.00963174       0.32015393       0.77926062       0.00000000 NULL       0.00463300      -0.00072500       0.00125500
P       21.86900639       6.86288271       4.68288271       0.00000000 NULL      -0.00463400       0.00101400      -0.00103400
P       21.86900639      11.21633725       9.06496458       0.00000000 NULL      -0.00463300      -0.00101300       0.00103300
P       13.00963174       5.70625273       3.80335514       0.00000000 NULL       0.00463500       0.00072600      -0.00125400
P       23.51526332      12.62017560       9.50092305       0.00000000 NULL       0.00048000      -0.00418300      -0.00632600
P       11.36337482       6.50150735       5.03963666       0.00000000 NULL      -0.00048800      -0.00722100      -0.00234100
P       11.36337482      -0.47510070      -0.45702090       0.00000000 NULL      -0.00048100       0.00721600       0.00233800
P        9.56380807       5.45904435       4.24692425       0.00000000 NULL       0.00048800       0.00418500       0.00633200
P        7.22647036       3.72850245       3.31206906       0.00000000 NULL       0.00639900      -0.00401000       0.00009600
P       13.70071252      10.21439931       7.29042843       0.00000000 NULL      -0.00639700      -0.00097900      -0.00389100
P       13.70071252       7.86482064       6.45741886       0.00000000 NULL      -0.00639800       0.00097800       0.00389000
P        7.22647036       2.29790420       1.27054670       0.00000000 NULL       0.00639700       0.00401000      -0.00009600
P       16.63889557      11.71931479       7.56474550       0.00000000 NULL      -0.00216600      -0.00181200      -0.00465400
P       18.23974257       4.39500531       4.68894755       0.00000000 NULL       0.00216500      -0.00497000      -0.00050200
P        4.28828731       1.63140134      -0.10633179       0.00000000 NULL       0.00216700       0.00496900       0.00050100