16
Lattice="6.44508 -4.0851658260882327e-16 1.1077436388193417e-15 1.025004123455806 6.949304016014738 -1.645500653854058e-15 2.32466651682879 2.683753374047243 7.925020134638467" Properties=species:S:1:pos:R:3:initial_magmoms:R:1:castep_labels:S:1 n_minim_iter=1 pbc="T T T"
P        6.81580503       3.39416715       2.99572894       0.00000000 NULL
P        5.13397747       8.31342138       5.69782795       0.00000000 NULL
P        6.64583835       7.76263797       4.48264974       0.00000000 NULL
P        6.31690478       5.82370570       1.25420180       0.00000000 NULL
P        7.95449200       5.27128888       5.29483513       0.00000000 NULL
P        2.21706642       1.40784432       1.02599213       0.00000000 NULL
P        3.35720453       7.58108511       2.89889787       0.00000000 NULL
P        7.26550545       8.60939305       7.52314078       0.00000000 NULL
P        2.00274576       3.28846972       1.83133743       0.00000000 NULL
P        6.94085234       3.25737623       5.06957119       0.00000000 NULL
P        4.08782863       5.13115014       7.29457290       0.00000000 NULL
P        5.13603717       2.90456834       0.24331080       0.00000000 NULL
P        3.06881964       4.16191731       0.36730170       0.00000000 NULL
P        7.37782307       1.66999172       3.90530410       0.00000000 NULL
P        6.32192049       4.61063201       6.45134758       0.00000000 NULL
P        6.12931476       0.98908310       2.48862116       0.00000000 NULL
16
Lattice="6.456750405547183 2.2003208034212628e-05 -0.006505447179452662 1.026883870610262 6.966152093526158 -0.0009756684386987119 2.320885811595522 2.6903337332406863 7.9514896268154605" Properties=species:S:1:pos:R:3:initial_magmoms:R:1:castep_labels:S:1 n_minim_iter=2 pbc="T T T"
P        6.82470161       3.40275214       2.99958189       0.00000000 NULL
P        5.13745513       8.33367555       5.71352929       0.00000000 NULL
P        6.65316566       7.78118368       4.49247872       0.00000000 NULL
P        6.32707641       5.83784861       1.25239137       0.00000000 NULL
P        7.96361033       5.28420624       5.30604238       0.00000000 NULL
P        2.22012854       1.41098453       1.02748161       0.00000000 NULL
P        3.36067656       7.59912149       2.90624945       0.00000000 NULL
P        7.27110293       8.63035759       7.54327226       0.00000000 NULL
P        2.00468157       3.29656251       1.83615951       0.00000000 NULL
P        6.94841419       3.26554256       5.08122622       0.00000000 NULL
P        4.08782223       5.14384463       7.31661094       0.00000000 NULL
P        5.14502128       2.91167044       0.23902094       0.00000000 NULL
P        3.07425575       4.17222938       0.36532880       0.00000000 NULL
P        7.38765044       1.67395391       3.91229949       0.00000000 NULL
P        6.32677025       4.62202720       6.46870399       0.00000000 NULL
P        6.13760297       0.99136549       2.49103015       0.00000000 NULL
16
Lattice="6.630079322476271 -0.0003037500500382209 -0.10840502751610526 1.054098287831133 7.222217551919747 -0.01607573966144748 2.257969829528362 2.790387170736314 8.357830164133844" Properties=species:S:1:pos:R:3:initial_magmoms:R:1:castep_labels:S:1 n_minim_iter=3 pbc="T T T"
P        6.95370216       3.53288657       3.05687955       0.00000000 NULL
P        5.18363114       8.64126774       5.95373246       0.00000000 NULL
P        6.75724921       8.06238978       4.64204615       0.00000000 NULL
P        6.47647348       6.05230028       1.22278458       0.00000000 NULL
P        8.09406411       5.47992569       5.47617673       0.00000000 NULL
P        2.26465852       1.45839086       1.04981714       0.00000000 NULL
P        3.40929514       7.87284423       3.01851433       0.00000000 NULL
P        7.34720020       8.94859293       7.85100050       0.00000000 NULL
P        2.03175314       3.41952946       1.90985094       0.00000000 NULL
P        7.05630586       3.38942472       5.25864212       0.00000000 NULL
P        4.08137436       5.33681786       7.65409605       0.00000000 NULL
P        5.27776943       3.01917804       0.17162042       0.00000000 NULL
P        3.15455584       4.32876025       0.33393968       0.00000000 NULL
P        7.53058566       1.73343135       4.01781246       0.00000000 NULL
P        6.39297532       4.79500732       6.73408403       0.00000000 NULL
P        6.25833108       1.02534326       2.52607171       0.00000000 NULL
16
Lattice="6.604902024806703 -0.011188885905218741 -0.15493356742421974 1.0383574510623022 7.279345588936355 -0.031870211926825195 2.1871434850047726 2.7996184765234413 8.46212589303203" Properties=species:S:1:pos:R:3:initial_magmoms:R:1:castep_labels:S:1 n_minim_iter=4 pbc="T T T"
P        6.89542383       3.54955508       3.04850725       0.00000000 NULL
P        5.10973291       8.69601799       5.99648579       0.00000000 NULL
P        6.68310227       8.10784621       4.65675999       0.00000000 NULL
P        6.43180628       6.08974177       1.18831414       0.00000000 NULL
P        8.01402984       5.50411557       5.49579777       0.00000000 NULL
P        2.24639224       1.46335846       1.04905587       0.00000000 NULL
P        3.36483740       7.92392434       3.03166406       0.00000000 NULL
P        7.25004922       8.99993769       7.90801480       0.00000000 NULL
P        2.00762014       3.44241637       1.92091409       0.00000000 NULL
P        6.98868796       3.40341810       5.28668421       0.00000000 NULL
P        4.00530312       5.36726475       7.72940015       0.00000000 NULL
P        5.24809022       3.03545178       0.13407809       0.00000000 NULL
P        3.13559528       4.35883006       0.30936127       0.00000000 NULL
P        7.47534230       1.72842845       4.02586309       0.00000000 NULL
P        6.31404086       4.81837343       6.78708715       0.00000000 NULL
P        6.21095452       1.01806204       2.51583136       0.00000000 NULL
16
Lattice="6.5209603709025075 -0.025790921114342703 -0.20270248698367843 1.009263239151471 7.299811148798958 -0.05256764834246226 2.0920485811746556 2.7882123333282736 8.525170396391966" Properties=species:S:1:pos:R:3:initial_magmoms:R:1:castep_labels:S:1 n_minim_iter=5 pbc="T T T"
P        6.77184267       3.54295291       3.02143224       0.00000000 NULL
P        4.98419931       8.70059183       6.00442919       0.00000000 NULL
P        6.54228185       8.10514254       4.64302074       0.00000000 NULL
P        6.32556784       6.09267845       1.14183777       0.00000000 NULL
P        7.85627447       5.49204344       5.48465826       0.00000000 NULL
P        2.20651130       1.45924026       1.04262075       0.00000000 NULL
P        3.28494538       7.93079924       3.02468058       0.00000000 NULL
P        7.08005349       8.99712207       7.92174217       0.00000000 NULL
P        1.96387329       3.44563097       1.92005246       0.00000000 NULL
P        6.85547508       3.39482936       5.28659274       0.00000000 NULL
P        3.88853921       5.36471409       7.76418021       0.00000000 NULL
P        5.16858019       3.03380761       0.09216889       0.00000000 NULL
P        3.08679868       4.36453601       0.27861351       0.00000000 NULL
P        7.35226857       1.70784307       4.01251682       0.00000000 NULL
P        6.17391822       4.81091052       6.80476790       0.00000000 NULL
P        6.10570062       0.99965183       2.49094352       0.00000000 NULL
16
Lattice="6.289684239377938 -0.05387325323230424 -0.2931909193685875 0.9422025274402143 7.303143591482842 -0.09113084782141012 1.8856696717938861 2.7535289700051413 8.629672888993467" Properties=species:S:1:pos:R:3:initial_magmoms:R:1:castep_labels:S:1 n_minim_iter=6 pbc="T T T"
P        6.45971749       3.51383583       2.96400824       0.00000000 NULL
P        4.68978790       8.66677035       6.00930493       0.00000000 NULL
P        6.19878325       8.05754336       4.60976180       0.00000000 NULL
P        6.05314868       6.06859552       1.05093809       0.00000000 NULL
P        7.46639326       5.44124602       5.45451845       0.00000000 NULL
P        2.10531479       1.44426677       1.03011722       0.00000000 NULL
P        3.09579591       7.90248455       3.00611243       0.00000000 NULL
P        6.67506122       8.94793375       7.93593741       0.00000000 NULL
P        1.86016863       3.43471306       1.91487201       0.00000000 NULL
P        6.52568294       3.36568689       5.27795975       0.00000000 NULL
P        3.62250292       5.33602926       7.81491369       0.00000000 NULL
P        4.95855474       3.01643180       0.01260308       0.00000000 NULL
P        2.96098612       4.35296319       0.21761657       0.00000000 NULL
P        7.03908788       1.66128965       3.98143281       0.00000000 NULL
P        5.83730627       4.77574604       6.82842687       0.00000000 NULL
P        5.83570062       0.95750501       2.43668415       0.00000000 NULL
16
Lattice="5.797780241373928 -0.06383147559597634 -0.43587580665115266 0.8532344555213645 7.3118983772404 -0.08863855459559729 1.5286502443942107 2.782650223979275 8.96773063841353" Properties=species:S:1:pos:R:3:initial_magmoms:R:1:castep_labels:S:1 n_minim_iter=7 pbc="T T T"
P        5.84621240       3.53333651       2.95827722       0.00000000 NULL
P        4.17153709       8.68956352       6.20201529       0.00000000 NULL
P        5.55999295       8.04084183       4.71538028       0.00000000 NULL
P        5.53269913       6.07384536       0.98262205       0.00000000 NULL
P        6.72111876       5.44850858       5.55566295       0.00000000 NULL
P        1.90696517       1.44155552       1.04908827       0.00000000 NULL
P        2.77239082       7.88660064       3.09539884       0.00000000 NULL
P        5.93348979       8.97523775       8.18303107       0.00000000 NULL
P        1.68153956       3.44305729       1.97070257       0.00000000 NULL
P        5.88676359       3.41601817       5.39399735       0.00000000 NULL
P        3.15131261       5.38323243       8.06963884       0.00000000 NULL
P        4.53975669       3.02091856      -0.08005285       0.00000000 NULL
P        2.72855909       4.35161571       0.15573881       0.00000000 NULL
P        6.41926300       1.67323836       4.03036644       0.00000000 NULL
P        5.20364867       4.81960528       7.03916413       0.00000000 NULL
P        5.28918193       0.93532963       2.39107946       0.00000000 NULL
16
Lattice="5.246951684740493 0.02401516388266821 -0.535184834913794 0.8603517391944682 7.213233681202495 0.024409802085670788 1.244439647232937 2.917768954559728 9.108392747031441" Properties=species:S:1:pos:R:3:initial_magmoms:R:1:castep_labels:S:1 n_minim_iter=8 pbc="T T T"
P        5.24872348       3.63293559       2.95539482       0.00000000 NULL
P        3.76603416       8.73051446       6.37586855       0.00000000 NULL
P        5.00251609       8.03436294       4.84315426       0.00000000 NULL
P        5.05766072       6.08767770       1.01518626       0.00000000 NULL
P        6.02655756       5.57135206       5.62119681       0.00000000 NULL
P        1.71331447       1.47595052       1.07899354       0.00000000 NULL
P        2.54289332       7.82234277       3.21067592       0.00000000 NULL
P        5.30313510       9.07087332       8.35963662       0.00000000 NULL
P        1.54799234       3.44803836       2.02342808       0.00000000 NULL
P        5.26212884       3.59310218       5.44753095       0.00000000 NULL
P        2.75809341       5.50822160       8.19594175       0.00000000 NULL
P        4.13622759       3.04818084      -0.10124930       0.00000000 NULL
P        2.52453343       4.33726753       0.16014007       0.00000000 NULL
P        5.78183520       1.85662540       4.03226866       0.00000000 NULL
P        4.62622076       4.97187890       7.16251093       0.00000000 NULL
P        4.73521848       1.01424446       2.31029160       0.00000000 NULL
16
Lattice="5.412176314390264 -0.0035230127410531093 -0.6129571799477372 0.8569359189536836 7.437270724677017 0.06725979340477534 1.1969366045338847 3.059020133778424 9.458846956998347" Properties=species:S:1:pos:R:3:initial_magmoms:R:1:castep_labels:S:1 n_minim_iter=9 pbc="T T T"
P        5.36706914       3.74501277       3.03396842       0.00000000 NULL
P        3.79242170       9.02843400       6.63991713       0.00000000 NULL
P        5.08079713       8.28294764       5.02934125       0.00000000 NULL
P        5.18094616       6.26120183       1.04734601       0.00000000 NULL
P        6.14508543       5.75744532       5.80517675       0.00000000 NULL
P        1.75051436       1.52168359       1.11444574       0.00000000 NULL
P        2.56402876       8.06840675       3.35720741       0.00000000 NULL
P        5.35957994       9.38290045       8.67754819       0.00000000 NULL
P        1.56890292       3.56251058       2.10513499       0.00000000 NULL
P        5.36391306       3.71696015       5.62358793       0.00000000 NULL
P        2.74985752       5.72161604       8.50936442       0.00000000 NULL
P        4.25658350       3.11830744      -0.12952033       0.00000000 NULL
P        2.58026568       4.47215608       0.16745070       0.00000000 NULL
P        5.92454715       1.91758342       4.13956007       0.00000000 NULL
P        4.69038710       5.14984196       7.41999950       0.00000000 NULL
P        4.85588531       1.03133615       2.34399896       0.00000000 NULL
16
Lattice="5.3188382724741965 -0.00986900874622485 -0.5908326608295349 0.835249278390088 7.330159168552662 0.04586043722410447 1.1878329705218529 2.9873389593211948 9.265059495819223" Properties=species:S:1:pos:R:3:initial_magmoms:R:1:castep_labels:S:1 n_minim_iter=10 pbc="T T T"
P        5.27584731       3.67525917       2.97206450       0.00000000 NULL
P        3.72974662       8.87556200       6.48818012       0.00000000 NULL
P        4.99220119       8.14095542       4.91666315       0.00000000 NULL
P        5.08827202       6.16196555       1.01873218       0.00000000 NULL
P        6.04271784       5.65036276       5.68650588       0.00000000 NULL
P        1.72012196       1.49643905       1.09424194       0.00000000 NULL
P        2.51652959       7.93879249       3.27133218       0.00000000 NULL
P        5.27145546       9.21661683       8.48887793       0.00000000 NULL
P        1.54317939       3.50263461       2.05437385       0.00000000 NULL
P        5.27711171       3.64329826       5.51242017       0.00000000 NULL
P        2.70967100       5.61424675       8.32880808       0.00000000 NULL
P        4.18148082       3.06655619      -0.12936512       0.00000000 NULL
P        2.53217764       4.40498648       0.15360116       0.00000000 NULL
P        5.82946179       1.87105232       4.06348729       0.00000000 NULL
P        4.61703889       5.05009154       7.26837253       0.00000000 NULL
P        4.77602775       1.00062644       2.30190602       0.00000000 NULL
16
Lattice="5.301532148602787 -0.014375039580508836 -0.5897628713750804 0.8276384145214941 7.323253073639399 0.0443518846677942 1.1810299612203936 2.9814089881145156 9.243710382721966" Properties=species:S:1:pos:R:3:initial_magmoms:R:1:castep_labels:S:1 n_minim_iter=11 pbc="T T T"
P        5.25469683       3.66783637       2.96350828       0.00000000 NULL
P        3.71105558       8.86328805       6.47169834       0.00000000 NULL
P        4.96838276       8.12434969       4.90529350       0.00000000 NULL
P        5.06786789       6.15194878       1.01734525       0.00000000 NULL
P        6.01881120       5.64036617       5.67305338       0.00000000 NULL
P        1.71285047       1.49482539       1.09395444       0.00000000 NULL
P        2.50235652       7.92608790       3.26173338       0.00000000 NULL
P        5.24658556       9.20175889       8.46710067       0.00000000 NULL
P        1.53719422       3.49745223       2.04781702       0.00000000 NULL
P        5.25656525       3.63627036       5.50043712       0.00000000 NULL
P        2.69491647       5.60676254       8.30732503       0.00000000 NULL
P        4.16731552       3.05840099      -0.13025177       0.00000000 NULL
P        2.52059319       4.40139053       0.15040185       0.00000000 NULL
P        5.81121973       1.86517832       4.05531877       0.00000000 NULL
P        4.59819850       5.04051330       7.25241609       0.00000000 NULL
P        4.75933746       0.99207417       2.29301611       0.00000000 NULL
16
Lattice="5.290854353354299 -0.018843479002286802 -0.5902686207852301 0.8211222303657952 7.327370160398159 0.04585868424877823 1.1746960481081958 2.983471783812987 9.24231967026306" Properties=species:S:1:pos:R:3:initial_magmoms:R:1:castep_labels:S:1 n_minim_iter=12 pbc="T T T"
P        5.23956710       3.66750475       2.96205007       0.00000000 NULL
P        3.69623124       8.86699518       6.47188460       0.00000000 NULL
P        4.95014248       8.12137126       4.90690967       0.00000000 NULL
P        5.05375550       6.15172943       1.02066323       0.00000000 NULL
P        6.00193503       5.64165090       5.67296324       0.00000000 NULL
P        1.70755665       1.49601939       1.09659885       0.00000000 NULL
P        2.49104198       7.92612931       3.26180600       0.00000000 NULL
P        5.22729261       9.20418115       8.46574622       0.00000000 NULL
P        1.53313237       3.49844351       2.04669783       0.00000000 NULL
P        5.24188958       3.63713243       5.50092320       0.00000000 NULL
P        2.68237166       5.61112658       8.30452230       0.00000000 NULL
P        4.15855634       3.05478692      -0.13028430       0.00000000 NULL
P        2.51213980       4.40498111       0.14890908       0.00000000 NULL
P        5.80005875       1.86419270       4.05600657       0.00000000 NULL
P        4.58428854       5.04140487       7.25309605       0.00000000 NULL
P        4.74818549       0.98566093       2.28828923       0.00000000 NULL
16
Lattice="5.186575236750105 -0.054308622139371925 -0.589068931804552 0.7662983048069658 7.346722929505097 0.06321753169992285 1.1237911238865732 2.9999105074395205 9.215354206483978" Properties=species:S:1:pos:R:3:initial_magmoms:R:1:castep_labels:S:1 n_minim_iter=13 pbc="T T T"
P        5.10053757       3.66104478       2.95038471       0.00000000 NULL
P        3.56730117       8.88459250       6.46884654       0.00000000 NULL
P        4.78871964       8.08161239       4.91926511       0.00000000 NULL
P        4.92384631       6.13957899       1.05559218       0.00000000 NULL
P        5.84874257       5.64760337       5.66931745       0.00000000 NULL
P        1.65918407       1.50504486       1.12022456       0.00000000 NULL
P        2.39321938       7.91084330       3.26262138       0.00000000 NULL
P        5.05786703       9.21189117       8.44752208       0.00000000 NULL
P        1.49742720       3.50122883       2.03648684       0.00000000 NULL
P        5.10796405       3.64276610       5.50106519       0.00000000 NULL
P        2.57468827       5.64263281       8.26918267       0.00000000 NULL
P        4.07459324       3.01918080      -0.12428684       0.00000000 NULL
P        2.43619500       4.42768950       0.13911271       0.00000000 NULL
P        5.69345491       1.85733151       4.05981055       0.00000000 NULL
P        4.45998938       5.04404789       7.25185056       0.00000000 NULL
P        4.64325242       0.93084290       2.24660915       0.00000000 NULL
16
Lattice="5.170146122711795 -0.06577148907684106 -0.555282857088088 0.7513258208536862 7.399335157858858 0.1594173851280783 1.1546362962153358 3.120377471879855 9.40971032163552" Properties=species:S:1:pos:R:3:initial_magmoms:R:1:castep_labels:S:1 n_minim_iter=14 pbc="T T T"
P        5.07838697       3.72523662       3.07988499       0.00000000 NULL
P        3.56542794       9.02043465       6.71112227       0.00000000 NULL
P        4.77151090       8.13459762       5.14128290       0.00000000 NULL
P        4.90872353       6.18980884       1.22368118       0.00000000 NULL
P        5.85632344       5.77434807       5.87955497       0.00000000 NULL
P        1.65092902       1.54045036       1.19956394       0.00000000 NULL
P        2.38450390       7.96278566       3.42943564       0.00000000 NULL
P        5.05627409       9.36593511       8.73287617       0.00000000 NULL
P        1.51494245       3.55128336       2.11807787       0.00000000 NULL
P        5.10577889       3.74260230       5.68959353       0.00000000 NULL
P        2.57088620       5.79337478       8.46610155       0.00000000 NULL
P        4.07044086       3.02049467      -0.04291325       0.00000000 NULL
P        2.42554509       4.48321783       0.18534538       0.00000000 NULL
P        5.71789507       1.93014968       4.21062147       0.00000000 NULL
P        4.47086319       5.15538227       7.48302671       0.00000000 NULL
P        4.63380126       0.91337401       2.28252701       0.00000000 NULL
16
Lattice="5.102352461468597 -0.07087215026549634 -0.5366910142099534 0.7350444360452615 7.2938503231040634 0.13881122663110707 1.1509209285440327 3.0512424874279747 9.234626194901702" Properties=species:S:1:pos:R:3:initial_magmoms:R:1:castep_labels:S:1 n_minim_iter=15 pbc="T T T"
P        5.01317435       3.65777484       3.02324472       0.00000000 NULL
P        3.52134967       8.87155688       6.57194507       0.00000000 NULL
P        4.70935502       7.99794333       5.03650736       0.00000000 NULL
P        4.84137497       6.09336423       1.19504630       0.00000000 NULL
P        5.78416037       5.67161390       5.76935611       0.00000000 NULL
P        1.62919714       1.51474557       1.17956203       0.00000000 NULL
P        2.35072581       7.83721108       3.35118034       0.00000000 NULL
P        4.99479672       9.20487092       8.56163473       0.00000000 NULL
P        1.49635356       3.49414515       2.07304692       0.00000000 NULL
P        5.04435551       3.67034864       5.58676351       0.00000000 NULL
P        2.54379204       5.68893221       8.30221726       0.00000000 NULL
P        4.01500819       2.97144655      -0.04337204       0.00000000 NULL
P        2.39096376       4.41649278       0.17162003       0.00000000 NULL
P        5.64948891       1.88470384       4.14021462       0.00000000 NULL
P        4.41963258       5.05807234       7.34443074       0.00000000 NULL
P        4.57676197       0.88484120       2.24336329       0.00000000 NULL
16
Lattice="5.114159439539492 -0.07450739741090232 -0.5371726243982795 0.7330025317743178 7.3090003237831835 0.13995849397591323 1.1530736418315042 3.057401045991912 9.251985093824567" Properties=species:S:1:pos:R:3:initial_magmoms:R:1:castep_labels:S:1 n_minim_iter=16 pbc="T T T"
P        5.02230459       3.66315107       3.02968282       0.00000000 NULL
P        3.52540934       8.88895579       6.58515045       0.00000000 NULL
P        4.71638816       8.00900676       5.04693835       0.00000000 NULL
P        4.84988131       6.10333948       1.20002266       0.00000000 NULL
P        5.79621173       5.68240845       5.78075392       0.00000000 NULL
P        1.63198721       1.51724405       1.18325164       0.00000000 NULL
P        2.35235987       7.85029352       3.35879695       0.00000000 NULL
P        5.00226504       9.22191393       8.57930634       0.00000000 NULL
P        1.49940418       3.50172583       2.07768090       0.00000000 NULL
P        5.05438256       3.67572098       5.59830837       0.00000000 NULL
P        2.54625294       5.70119992       8.31676082       0.00000000 NULL
P        4.02326031       2.97424373      -0.04195301       0.00000000 NULL
P        2.39454293       4.42562733       0.17066775       0.00000000 NULL
P        5.66341330       1.88576492       4.14983760       0.00000000 NULL
P        4.42813918       5.06594113       7.36026260       0.00000000 NULL
P        4.58701507       0.88082570       2.24450234       0.00000000 NULL
16
Lattice="5.113246823706197 -0.07751445236331975 -0.5337123617510934 0.7296150836666994 7.307172203741329 0.13965428013591877 1.1557471431387358 3.0548206205056236 9.245396047119513" Properties=species:S:1:pos:R:3:initial_magmoms:R:1:castep_labels:S:1 n_minim_iter=17 pbc="T T T"
P        5.02048143       3.65958038       3.03005286       0.00000000 NULL
P        3.52368623       8.88459688       6.58116018       0.00000000 NULL
P        4.71404028       8.00109746       5.04516009       0.00000000 NULL
P        4.84722385       6.09927975       1.20295676       0.00000000 NULL
P        5.79621194       5.67909759       5.77912941       0.00000000 NULL
P        1.63123104       1.51621794       1.18452173       0.00000000 NULL
P        2.34973276       7.84489328       3.35725534       0.00000000 NULL
P        5.00093933       9.21620253       8.57553630       0.00000000 NULL
P        1.49961890       3.50076332       2.07695762       0.00000000 NULL
P        5.05419134       3.67198271       5.59712858       0.00000000 NULL
P        2.54576544       5.69880754       8.31004672       0.00000000 NULL
P        4.02170408       2.97052539      -0.03911370       0.00000000 NULL
P        2.39261490       4.42434872       0.16958897       0.00000000 NULL
P        5.66488657       1.88200373       4.15104592       0.00000000 NULL
P        4.42861242       5.06108169       7.35817938       0.00000000 NULL
P        4.58696405       0.87475668       2.24210713       0.00000000 NULL
16
Lattice="5.111278615919763 -0.08353302201540207 -0.5257842615068394 0.7228126403532259 7.304679054553685 0.14096494332020726 1.1622796564225348 3.052113409735789 9.236707653845675" Properties=species:S:1:pos:R:3:initial_magmoms:R:1:castep_labels:S:1 n_minim_iter=18 pbc="T T T"
P        5.01701228       3.65378434       3.03404450       0.00000000 NULL
P        3.52097621       8.87879469       6.57855252       0.00000000 NULL
P        4.70988275       7.98727887       5.04643180       0.00000000 NULL
P        4.84202350       6.09247636       1.21207701       0.00000000 NULL
P        5.79697555       5.67501373       5.78074706       0.00000000 NULL
P        1.62978246       1.51471569       1.18839216       0.00000000 NULL
P        2.34480344       7.83578698       3.35787567       0.00000000 NULL
P        4.99925594       9.20820717       8.57465208       0.00000000 NULL
P        1.50044259       3.50002091       2.07758657       0.00000000 NULL
P        5.05440920       3.66646612       5.59894616       0.00000000 NULL
P        2.54561441       5.69688034       8.30146441       0.00000000 NULL
P        4.01852794       2.96360738      -0.03161396       0.00000000 NULL
P        2.38878346       4.42265752       0.16884233       0.00000000 NULL
P        5.66845170       1.87588115       4.15702094       0.00000000 NULL
P        4.43043612       5.05375622       7.35918692       0.00000000 NULL
P        4.58712070       0.86290487       2.23891795       0.00000000 NULL
16
Lattice="5.108040263027713 -0.08822432144188883 -0.5174847640642819 0.7172393051871209 7.301320269810021 0.14455980278892466 1.1693634014089949 3.0520066609614753 9.233182174781707" Properties=species:S:1:pos:R:3:initial_magmoms:R:1:castep_labels:S:1 n_minim_iter=19 pbc="T T T"
P        5.01328275       3.64952471       3.04118010       0.00000000 NULL
P        3.51933146       8.87454410       6.58198078       0.00000000 NULL
P        4.70635777       7.97574686       5.05282357       0.00000000 NULL
P        4.83681726       6.08645202       1.22376368       0.00000000 NULL
P        5.79740650       5.67297552       5.78737500       0.00000000 NULL
P        1.62831707       1.51369574       1.19310670       0.00000000 NULL
P        2.34091881       7.82766293       3.36251415       0.00000000 NULL
P        4.99843904       9.20279009       8.58080959       0.00000000 NULL
P        1.50140268       3.49965261       2.08041081       0.00000000 NULL
P        5.05435069       3.66331702       5.60477809       0.00000000 NULL
P        2.54644278       5.69691592       8.29886260       0.00000000 NULL
P        4.01477849       2.95767161      -0.02281800       0.00000000 NULL
P        2.38516556       4.42069133       0.17023042       0.00000000 NULL
P        5.67082030       1.87221397       4.16588941       0.00000000 NULL
P        4.43233534       5.04912873       7.36518094       0.00000000 NULL
P        4.58649042       0.85345777       2.23814805       0.00000000 NULL
16
Lattice="5.10081905982154 -0.09747213724703908 -0.498741022258691 0.7061195601138642 7.291884063067822 0.15429690114194855 1.1859557144653916 3.0532996480648498 9.230630245729179" Properties=species:S:1:pos:R:3:initial_magmoms:R:1:castep_labels:S:1 n_minim_iter=20 pbc="T T T"
P        5.00581554       3.64068647       3.06007626       0.00000000 NULL
P        3.51746863       8.86486211       6.59514298       0.00000000 NULL
P        4.70017823       7.95053105       5.07169145       0.00000000 NULL
P        4.82636370       6.07272646       1.25188050       0.00000000 NULL
P        5.79945225       5.66924978       5.80682384       0.00000000 NULL
P        1.62536451       1.51159922       1.20444330       0.00000000 NULL
P        2.33375348       7.80901947       3.37639218       0.00000000 NULL
P        4.99859623       9.19133028       8.60125135       0.00000000 NULL
P        1.50410305       3.49861696       2.08879395       0.00000000 NULL
P        5.05511593       3.65766190       5.62160325       0.00000000 NULL
P        2.54970123       5.69760336       8.29883760       0.00000000 NULL
P        4.00677995       2.94483143      -0.00221249       0.00000000 NULL
P        2.37782730       4.41532377       0.17496211       0.00000000 NULL
P        5.67637398       1.86582634       4.18864028       0.00000000 NULL
P        4.43769888       5.04010445       7.38349958       0.00000000 NULL
P        4.58548440       0.83412815       2.23838681       0.00000000 NULL
16