20
Lattice="5.109628783726945 0.0 0.0 0.0 5.054073899512661 0.7184973889768743 0.0 -0.18935071935862977 13.334483114495193" Properties=species:S:1:pos:R:3:initial_magmoms:R:1:castep_labels:S:1:forces:R:3 n_minim_iter=1 energy=-111.195656809893 stress="-0.0015614224743539403 0.0 -0.0 0.0 0.0028993415962157675 0.002436134375925123 -0.0 0.002436134375925123 0.00638558236143021" free_energy=-111.195656809893 pbc="T T T"
P        1.14556196       4.84486594       5.26593766       0.00000000 NULL       0.06604500       0.04932300      -0.02929000
P        3.96406682       4.84486594       5.26593766       0.00000000 NULL      -0.06604500       0.04932300      -0.02929000
P        1.16569515       2.22903528       7.46544122       0.00000000 NULL       0.01990300       0.02399800      -0.13146800
P        3.94393363       2.22903528       7.46544122       0.00000000 NULL      -0.01990300       0.02399800      -0.13146800
P        1.42704060       0.28040766      12.97042298       0.00000000 NULL      -0.02784100      -0.07407600       0.08177500
P        3.68258819       0.28040766      12.97042298       0.00000000 NULL       0.02784100      -0.07407600       0.08177500
P        3.70202188       2.56039530       4.92475547       0.00000000 NULL       0.01108700       0.00446400      -0.01145000
P        1.40760690       2.56039530       4.92475547       0.00000000 NULL      -0.01108700       0.00446400      -0.01145000
P        3.95710733       0.39179421       1.93730278       0.00000000 NULL      -0.08043100       0.04117200      -0.09535200
P        1.15252145       0.39179421       1.93730278       0.00000000 NULL       0.08043100       0.04117200      -0.09535200
P        1.14413203       4.52613863      10.07805879       0.00000000 NULL      -0.20474600      -0.16592900      -0.02495400
P        3.96549676       4.52613863      10.07805879       0.00000000 NULL       0.20474600      -0.16592900      -0.02495400
P        1.35595883       4.55603239       7.73792278       0.00000000 NULL       0.20086800       0.03744000       0.18147100
P        3.75366995       4.55603239       7.73792278       0.00000000 NULL      -0.20086800       0.03744000       0.18147100
P        3.99452845       3.30032254       0.02821359       0.00000000 NULL      -0.20057500      -0.03691100       0.10228500
P        1.11510033       3.30032254       0.02821359       0.00000000 NULL       0.20057500      -0.03691100       0.10228500
P        1.40325408       2.69342041       2.26505384       0.00000000 NULL      -0.10139500       0.06329300      -0.05946000
P        3.70637470       2.69342041       2.26505384       0.00000000 NULL       0.10139500       0.06329300      -0.05946000
P        1.43741654       1.67604248       9.69257463       0.00000000 NULL      -0.19833600       0.05722700      -0.01355700
P        3.67221224       1.67604248       9.69257463       0.00000000 NULL       0.19833600       0.05722700      -0.01355700
20
Lattice="5.115907065704584 0.0 0.0 0.0 5.041200687527159 0.7052518915616176 0.0 -0.2143738409602603 13.268072846847966" Properties=species:S:1:pos:R:3:initial_magmoms:R:1:castep_labels:S:1:forces:R:3 n_minim_iter=2 energy=-111.205301770119 stress="0.00018258622474118198 0.0 -0.0 0.0 -0.0026030345939866304 0.0010860702170487938 -0.0 0.0010860702170487938 -7.172821987596737e-05" free_energy=-111.205301770119 pbc="T T T"
P        1.14712025       4.82390057       5.23025381       0.00000000 NULL       0.06791800       0.07170200      -0.03548500
P        3.96878682       4.82390057       5.23025381       0.00000000 NULL      -0.06791800       0.07170200      -0.03548500
P        1.16717288       2.20976706       7.42350519       0.00000000 NULL       0.01167100       0.01023800      -0.15236900
P        3.94873419       2.20976706       7.42350519       0.00000000 NULL      -0.01167100       0.01023800      -0.15236900
P        1.42873049       0.25484164      12.90512478       0.00000000 NULL      -0.01712300      -0.05915300       0.04131100
P        3.68717657       0.25484164      12.90512478       0.00000000 NULL       0.01712300      -0.05915300       0.04131100
P        3.70659592       2.54517794       4.89518153       0.00000000 NULL       0.01804500      -0.02185000      -0.03594800
P        1.40931115       2.54517794       4.89518153       0.00000000 NULL      -0.01804500      -0.02185000      -0.03594800
P        3.96178595       0.38729854       1.92663754       0.00000000 NULL      -0.07760200       0.04407900      -0.07047900
P        1.15412111       0.38729854       1.92663754       0.00000000 NULL       0.07760200       0.04407900      -0.07047900
P        1.14507061       4.49622328      10.01889768       0.00000000 NULL      -0.20782400      -0.18377800       0.01976300
P        3.97083645       4.49622328      10.01889768       0.00000000 NULL       0.20782400      -0.18377800       0.01976300
P        1.35808330       4.53097763       7.69088996       0.00000000 NULL       0.20389900       0.04057900       0.17243000
P        3.75782377       4.53097763       7.69088996       0.00000000 NULL      -0.20389900       0.04057900       0.17243000
P        3.99897888       3.29267368       0.02200448       0.00000000 NULL      -0.17642200      -0.07571500       0.04316300
P        1.11692819       3.29267368       0.02200448       0.00000000 NULL       0.17642200      -0.07571500       0.04316300
P        1.40474690       2.68311138       2.24843515       0.00000000 NULL      -0.09672400       0.07944800      -0.03671400
P        3.71116017       2.68311138       2.24843515       0.00000000 NULL       0.09672400       0.07944800      -0.03671400
P        1.43873012       1.65385642       9.64080921       0.00000000 NULL      -0.17149000       0.09444900       0.05432800
P        3.67717695       1.65385642       9.64080921       0.00000000 NULL       0.17149000       0.09444900       0.05432800
20
Lattice="5.116643978014089 0.0 0.0 0.0 5.05438231858431 0.6933283160908125 0.0 -0.2435013558518888 13.248200743552312" Properties=species:S:1:pos:R:3:initial_magmoms:R:1:castep_labels:S:1:forces:R:3 n_minim_iter=3 energy=-111.208852406891 stress="0.0006788132198009645 0.0 0.0 0.0 0.001993904657081346 4.704761379303306e-05 0.0 4.704761379303306e-05 -0.001239396019049016" free_energy=-111.208852406891 pbc="T T T"
P        1.14761316       4.82705850       5.21169610       0.00000000 NULL       0.06299200       0.04808500      -0.03136200
P        3.96903082       4.82705850       5.21169610       0.00000000 NULL      -0.06299200       0.04808500      -0.03136200
P        1.16740367       2.20032575       7.40666245       0.00000000 NULL       0.00420900       0.00865500      -0.14740000
P        3.94924030       2.20032575       7.40666245       0.00000000 NULL      -0.00420900       0.00865500      -0.14740000
P        1.42884536       0.22756384      12.88502874       0.00000000 NULL      -0.02060700      -0.10482800       0.03186500
P        3.68779862       0.22756384      12.88502874       0.00000000 NULL       0.02060700      -0.10482800       0.03186500
P        3.70721208       2.54199705       4.88205217       0.00000000 NULL       0.01915100      -0.00823600      -0.04517300
P        1.40943190       2.54199705       4.88205217       0.00000000 NULL      -0.01915100      -0.00823600      -0.04517300
P        3.96197853       0.38450144       1.92249542       0.00000000 NULL      -0.07329600       0.07081800      -0.06205800
P        1.15466545       0.38450144       1.92249542       0.00000000 NULL       0.07329600       0.07081800      -0.06205800
P        1.14423092       4.48693424       9.99393966       0.00000000 NULL      -0.19051500      -0.12234000       0.03000600
P        3.97241306       4.48693424       9.99393966       0.00000000 NULL       0.19051500      -0.12234000       0.03000600
P        1.35926457       4.52785403       7.67018842       0.00000000 NULL       0.20242700       0.02117600       0.16825200
P        3.75737941       4.52785403       7.67018842       0.00000000 NULL      -0.20242700       0.02117600       0.16825200
P        3.99868217       3.30188756       0.01514073       0.00000000 NULL      -0.15903800      -0.06811200       0.02885700
P        1.11796181       3.30188756       0.01514073       0.00000000 NULL       0.15903800      -0.06811200       0.02885700
P        1.40447713       2.68647595       2.23902406       0.00000000 NULL      -0.08906100       0.07952300      -0.03528100
P        3.71216685       2.68647595       2.23902406       0.00000000 NULL       0.08906100       0.07952300      -0.03528100
P        1.43808651       1.63839446       9.62268480       0.00000000 NULL      -0.15413600       0.07525900       0.06229400
P        3.67855747       1.63839446       9.62268480       0.00000000 NULL       0.15413600       0.07525900       0.06229400
20
Lattice="5.107631798536767 0.0 0.0 0.0 5.046705831812747 0.679491878756844 0.0 -0.28299848244272324 13.271267222513151" Properties=species:S:1:pos:R:3:initial_magmoms:R:1:castep_labels:S:1:forces:R:3 n_minim_iter=4 energy=-111.213726068243 stress="-0.002322836930326827 0.0 -0.0 0.0 -0.0004432307486830183 -0.0023401802353029146 -0.0 -0.0023401802353029146 0.0010422597580335845" free_energy=-111.213726068243 pbc="T T T"
P        1.14654060       4.80691225       5.20567305       0.00000000 NULL       0.05909000       0.05340600      -0.01363300
P        3.96109120       4.80691225       5.20567305       0.00000000 NULL      -0.05909000       0.05340600      -0.01363300
P        1.16546508       2.17582692       7.41048149       0.00000000 NULL       0.01818400      -0.02038300      -0.12890600
P        3.94216672       2.17582692       7.41048149       0.00000000 NULL      -0.01818400      -0.02038300      -0.12890600
P        1.42604256       0.18739456      12.90665152       0.00000000 NULL      -0.03550600      -0.09544300       0.04912300
P        3.68158924       0.18739456      12.90665152       0.00000000 NULL       0.03550600      -0.09544300       0.04912300
P        3.70094828       2.52434691       4.88217100       0.00000000 NULL       0.02786500      -0.02322500      -0.04732800
P        1.40668352       2.52434691       4.88217100       0.00000000 NULL      -0.02786500      -0.02322500      -0.04732800
P        3.95390138       0.37916563       1.92361759       0.00000000 NULL      -0.07354900       0.06443500      -0.05151600
P        1.15373041       0.37916563       1.92361759       0.00000000 NULL       0.07355000       0.06443500      -0.05151600
P        1.13932786       4.44979533       9.99782282       0.00000000 NULL      -0.13985900      -0.10173700       0.00503600
P        3.96830393       4.44979533       9.99782282       0.00000000 NULL       0.13985900      -0.10173700       0.00503600
P        1.35982682       4.50022695       7.67213651       0.00000000 NULL       0.17706000       0.02572800       0.15248500
P        3.74780498       4.50022695       7.67213651       0.00000000 NULL      -0.17706000       0.02572800       0.15248500
P        3.98918678       3.29717320       0.00593222       0.00000000 NULL      -0.13643600      -0.11356800       0.02768000
P        1.11844502       3.29717320       0.00593222       0.00000000 NULL       0.13643600      -0.11356800       0.02768000
P        1.40065118       2.67792892       2.23427645       0.00000000 NULL      -0.08490900       0.10474800      -0.02969300
P        3.70698062       2.67792892       2.23427645       0.00000000 NULL       0.08490900       0.10474800      -0.02969300
P        1.43317058       1.60887846       9.63482655       0.00000000 NULL      -0.13147900       0.10603700       0.03675100
P        3.67446122       1.60887846       9.63482655       0.00000000 NULL       0.13147900       0.10603700       0.03675100
20
Lattice="5.126546849844974 0.0 0.0 0.0 5.041575845175147 0.6833827973541187 0.0 -0.275357840831342 13.291084117981663" Properties=species:S:1:pos:R:3:initial_magmoms:R:1:castep_labels:S:1:forces:R:3 n_minim_iter=5 energy=-111.227741759203 stress="0.006276249355180986 -0.0 0.0 -0.0 -0.0007992814744460322 -0.001991643156834017 0.0 -0.001991643156834017 0.0034046534368563555" free_energy=-111.227741759203 pbc="T T T"
P        1.15422060       4.80759166       5.21467909       0.00000000 NULL      -0.01366200       0.04267700      -0.01582200
P        3.97232625       4.80759166       5.21467909       0.00000000 NULL       0.01366200       0.04267700      -0.01582200
P        1.17032687       2.17782104       7.41520529       0.00000000 NULL       0.00771400      -0.02472900      -0.05211400
P        3.95621998       2.17782104       7.41520529       0.00000000 NULL      -0.00771400      -0.02472900      -0.05211400
P        1.43009063       0.18964115      12.92838689       0.00000000 NULL       0.01595000      -0.06056500       0.03224500
P        3.69645622       0.18964115      12.92838689       0.00000000 NULL      -0.01595000      -0.06056500       0.03224500
P        3.71574632       2.52350140       4.88876885       0.00000000 NULL      -0.00703100      -0.00106300      -0.02329000
P        1.41080053       2.52350140       4.88876885       0.00000000 NULL       0.00703100      -0.00106300      -0.02329000
P        3.96451044       0.38304547       1.92330566       0.00000000 NULL      -0.01469300       0.04783900      -0.01285600
P        1.16203641       0.38304547       1.92330566       0.00000000 NULL       0.01469300       0.04783900      -0.01285600
P        1.13354925       4.44301492      10.01649859       0.00000000 NULL      -0.04254700      -0.02897700       0.00880100
P        3.99299760       4.44301492      10.01649859       0.00000000 NULL       0.04254700      -0.02897700       0.00880100
P        1.37548319       4.50101164       7.69508138       0.00000000 NULL       0.12323000       0.01149900       0.08893100
P        3.75106365       4.50101164       7.69508138       0.00000000 NULL      -0.12323000       0.01149900       0.08893100
P        3.99527712       3.28934673       0.00977661       0.00000000 NULL       0.02127500      -0.10744100       0.02736100
P        1.13126973       3.28934673       0.00977661       0.00000000 NULL      -0.02127500      -0.10744100       0.02736100
P        1.40093841       2.68075911       2.23722816       0.00000000 NULL      -0.02263500       0.07724600      -0.02839600
P        3.72560844       2.68075911       2.23722816       0.00000000 NULL       0.02263500       0.07724600      -0.02839600
P        1.43005428       1.61707313       9.65292043       0.00000000 NULL       0.02845900       0.04351300      -0.02486000
P        3.69649257       1.61707313       9.65292043       0.00000000 NULL      -0.02845900       0.04351300      -0.02486000
20
Lattice="5.109684846803301 0.0 0.0 0.0 5.042977100078091 0.6932696890157508 0.0 -0.24557433796806227 13.264700218116204" Properties=species:S:1:pos:R:3:initial_magmoms:R:1:castep_labels:S:1:forces:R:3 n_minim_iter=6 energy=-111.237487273399 stress="9.221564916732156e-06 0.0 -0.0 0.0 -0.00019794264186770322 -6.449259008220908e-06 -0.0 -6.449259008220908e-06 0.00018063761656510142" free_energy=-111.237487273399 pbc="T T T"
P        1.15269049       4.82131091       5.21417210       0.00000000 NULL      -0.00627800       0.05442800      -0.03786000
P        3.95699436       4.82131091       5.21417210       0.00000000 NULL       0.00627800       0.05442800      -0.03786000
P        1.16686284       2.19448577       7.40038475       0.00000000 NULL       0.01976500      -0.02633000      -0.01439800
P        3.94282201       2.19448577       7.40038475       0.00000000 NULL      -0.01976500      -0.02633000      -0.01439800
P        1.42460288       0.21529178      12.90529416       0.00000000 NULL      -0.00454700      -0.02246900      -0.02585900
P        3.68508197       0.21529178      12.90529416       0.00000000 NULL       0.00454700      -0.02246900      -0.02585900
P        3.70423883       2.53385245       4.88336942       0.00000000 NULL       0.02460700       0.00334300      -0.01318100
P        1.40544602       2.53385245       4.88336942       0.00000000 NULL      -0.02460700       0.00334300      -0.01318100
P        3.94872721       0.38964167       1.91810107       0.00000000 NULL      -0.00740000       0.01589300       0.04036700
P        1.16095764       0.38964167       1.91810107       0.00000000 NULL       0.00740000       0.01589300       0.04036700
P        1.12300379       4.46025687      10.00770993       0.00000000 NULL       0.09288200       0.00140200       0.05664600
P        3.98668106       4.46025687      10.00770993       0.00000000 NULL      -0.09288200       0.00140200       0.05664600
P        1.37840888       4.51915434       7.69633995       0.00000000 NULL       0.06833800       0.01529200       0.03372200
P        3.73127597       4.51915434       7.69633995       0.00000000 NULL      -0.06833800       0.01529200       0.03372200
P        3.97637222       3.28615367       0.01845464       0.00000000 NULL       0.05809100      -0.08380400      -0.00722200
P        1.13331263       3.28615367       0.01845464       0.00000000 NULL      -0.05809100      -0.08380400      -0.00722200
P        1.39298534       2.68894373       2.23748477       0.00000000 NULL      -0.01539200       0.05536200      -0.00676900
P        3.71669951       2.68894373       2.23748477       0.00000000 NULL       0.01539200       0.05536200      -0.00676900
P        1.41977972       1.64188994       9.63954108       0.00000000 NULL       0.06697200      -0.01311600      -0.02544500
P        3.68990513       1.64188994       9.63954108       0.00000000 NULL      -0.06697200      -0.01311600      -0.02544500
20
Lattice="5.108288782768683 0.0 0.0 0.0 5.040222252104679 0.6883540844436047 0.0 -0.25683069071447834 13.253378012601244" Properties=species:S:1:pos:R:3:initial_magmoms:R:1:castep_labels:S:1:forces:R:3 n_minim_iter=7 energy=-111.244039067576 stress="3.352461790240532e-05 0.0 -0.0 0.0 -0.00030709952946867715 -9.458209549449313e-05 -0.0 -9.458209549449313e-05 4.0627043491145075e-06" free_energy=-111.244039067576 pbc="T T T"
P        1.15311256       4.82363790       5.19948895       0.00000000 NULL      -0.00524900       0.03611600      -0.02809600
P        3.95517623       4.82363790       5.19948895       0.00000000 NULL       0.00524900       0.03611600      -0.02809600
P        1.16945779       2.18380039       7.38656465       0.00000000 NULL      -0.00818000      -0.00947300       0.00341000
P        3.93883100       2.18380039       7.38656465       0.00000000 NULL       0.00818000      -0.00947300       0.00341000
P        1.42301949       0.19871045      12.89122537       0.00000000 NULL       0.00839700      -0.03396100      -0.02023800
P        3.68526930       0.19871045      12.89122537       0.00000000 NULL      -0.00839700      -0.03396100      -0.02023800
P        3.70715417       2.52879075       4.87409431       0.00000000 NULL      -0.00077900       0.01849300      -0.00829900
P        1.40113462       2.52879075       4.87409431       0.00000000 NULL       0.00077900       0.01849300      -0.00829900
P        3.94477562       0.39158447       1.92007723       0.00000000 NULL       0.00286900      -0.00495000       0.02389300
P        1.16351316       0.39158447       1.92007723       0.00000000 NULL      -0.00286900      -0.00495000       0.02389300
P        1.13093725       4.44665726      10.00363515       0.00000000 NULL      -0.02214600       0.01485800       0.01825300
P        3.97735153       4.44665726      10.00363515       0.00000000 NULL       0.02214600       0.01485800       0.01825300
P        1.39242299       4.51327355       7.69444776       0.00000000 NULL      -0.06642600      -0.00822800       0.01213100
P        3.71586580       4.51327355       7.69444776       0.00000000 NULL       0.06642600      -0.00822800       0.01213100
P        3.97931724       3.27141830       0.01552182       0.00000000 NULL      -0.01191200      -0.02331200      -0.03176200
P        1.12897154       3.27141830       0.01552182       0.00000000 NULL       0.01191200      -0.02331200      -0.03176200
P        1.38822828       2.69551583       2.23137611       0.00000000 NULL       0.01776000       0.01604000       0.03163100
P        3.72006050       2.69551583       2.23137611       0.00000000 NULL      -0.01776000       0.01604000       0.03163100
P        1.42477271       1.63309194       9.62770905       0.00000000 NULL      -0.00679700      -0.00558300      -0.00092400
P        3.68351607       1.63309194       9.62770905       0.00000000 NULL       0.00679700      -0.00558300      -0.00092400
20
Lattice="5.10725263858818 0.0 0.0 0.0 5.0399331340229665 0.6840488243445727 0.0 -0.26577011201522177 13.236435463204097" Properties=species:S:1:pos:R:3:initial_magmoms:R:1:castep_labels:S:1:forces:R:3 n_minim_iter=8 energy=-111.246939277911 stress="5.0579979007924437e-05 -0.0 -0.0 -0.0 -0.00023601063121579555 -9.363735697126751e-05 -0.0 -9.363735697126751e-05 -0.00014497837733000563" free_energy=-111.246939277911 pbc="T T T"
P        1.15245478       4.83169658       5.18082769       0.00000000 NULL       0.01352000       0.01419300      -0.00906000
P        3.95479786       4.83169658       5.18082769       0.00000000 NULL      -0.01352000       0.01419300      -0.00906000
P        1.16868520       2.17576404       7.37332238       0.00000000 NULL      -0.00049300       0.00669800       0.01765000
P        3.93856743       2.17576404       7.37332238       0.00000000 NULL       0.00049300       0.00669800       0.01765000
P        1.42385180       0.17996359      12.86933955       0.00000000 NULL      -0.00531800      -0.00968500       0.00231700
P        3.68340084       0.17996359      12.86933955       0.00000000 NULL       0.00531800      -0.00968500       0.00231700
P        3.70795868       2.52979638       4.86301987       0.00000000 NULL      -0.00142700       0.02391400      -0.01324400
P        1.39929396       2.52979638       4.86301987       0.00000000 NULL       0.00142700       0.02391400      -0.01324400
P        3.94300505       0.39114381       1.92357687       0.00000000 NULL      -0.00479600      -0.01407500      -0.00971800
P        1.16424759       0.39114381       1.92357687       0.00000000 NULL       0.00479600      -0.01407500      -0.00971800
P        1.12844388       4.44140894       9.99513037       0.00000000 NULL       0.01757000      -0.00118600      -0.00419700
P        3.97880876       4.44140894       9.99513037       0.00000000 NULL      -0.01757000      -0.00118600      -0.00419700
P        1.38506195       4.50759600       7.68844346       0.00000000 NULL       0.00136400      -0.01322800      -0.00583700
P        3.72219069       4.50759600       7.68844346       0.00000000 NULL      -0.00136500      -0.01322800      -0.00583700
P        3.97661211       3.26136556       0.00699266       0.00000000 NULL       0.00942900      -0.01199900       0.00693600
P        1.13064053       3.26136556       0.00699266       0.00000000 NULL      -0.00942900      -0.01199900       0.00693600
P        1.38940292       2.70153869       2.23219960       0.00000000 NULL      -0.01221000      -0.01523100      -0.00842300
P        3.71784971       2.70153869       2.23219960       0.00000000 NULL       0.01221000      -0.01523100      -0.00842300
P        1.42423476       1.62545998       9.61332854       0.00000000 NULL      -0.00302300       0.02060100       0.02357700
P        3.68301788       1.62545998       9.61332854       0.00000000 NULL       0.00302300       0.02060100       0.02357700
20
Lattice="5.105504743452015 0.0 0.0 0.0 5.0400470310414445 0.6821301443301462 0.0 -0.26971764230998346 13.228564783375141" Properties=species:S:1:pos:R:3:initial_magmoms:R:1:castep_labels:S:1:forces:R:3 n_minim_iter=9 energy=-111.248156855261 stress="-1.9072085163944425e-05 0.0 -0.0 0.0 -0.00017841628056593174 3.708949280730206e-05 -0.0 3.708949280730206e-05 -0.0003134735963966288" free_energy=-111.248156855261 pbc="T T T"
P        1.15589798       4.83910480       5.16995280       0.00000000 NULL      -0.01164100       0.00209300      -0.00115200
P        3.94960676       4.83910480       5.16995280       0.00000000 NULL       0.01164100       0.00209300      -0.00115200
P        1.16779611       2.17464940       7.37252741       0.00000000 NULL       0.00549900       0.00783500       0.01061100
P        3.93770863       2.17464940       7.37252741       0.00000000 NULL      -0.00549900       0.00783500       0.01061100
P        1.42226389       0.16883075      12.86036818       0.00000000 NULL       0.00709100       0.00107500      -0.00771400
P        3.68324086       0.16883075      12.86036818       0.00000000 NULL      -0.00709100       0.00107500      -0.00771400
P        3.70675175       2.53768717       4.85441076       0.00000000 NULL       0.00478500       0.00764300      -0.01226000
P        1.39875299       2.53768717       4.85441076       0.00000000 NULL      -0.00478500       0.00764300      -0.01226000
P        3.93983922       0.38677864       1.92184872       0.00000000 NULL      -0.00013100      -0.01466200       0.00299100
P        1.16566552       0.38677864       1.92184872       0.00000000 NULL       0.00013100      -0.01466200       0.00299100
P        1.13149939       4.43908278       9.98929657       0.00000000 NULL      -0.01925600       0.01562200       0.00434300
P        3.97400535       4.43908278       9.98929657       0.00000000 NULL       0.01925600       0.01562200       0.00434300
P        1.38141227       4.50133217       7.68384140       0.00000000 NULL       0.02696100       0.01575000       0.00389300
P        3.72409248       4.50133217       7.68384140       0.00000000 NULL      -0.02696200       0.01575000       0.00389300
P        3.97642854       3.25471995       0.00578949       0.00000000 NULL      -0.01288600      -0.00901200      -0.00686900
P        1.12907620       3.25471995       0.00578949       0.00000000 NULL       0.01288600      -0.00901200      -0.00686900
P        1.38604177       2.69927922       2.22998414       0.00000000 NULL       0.00493000      -0.01997000       0.00612300
P        3.71946297       2.69927922       2.22998414       0.00000000 NULL      -0.00493000      -0.01997000       0.00612300
P        1.42194084       1.62760878       9.61310344       0.00000000 NULL       0.01044800      -0.00637200       0.00003500
P        3.68356390       1.62760878       9.61310344       0.00000000 NULL      -0.01044800      -0.00637200       0.00003500
20
Lattice="5.105995617809298 0.0 0.0 0.0 5.041184194502975 0.6812715451840567 0.0 -0.27121730379250825 13.222879448061672" Properties=species:S:1:pos:R:3:initial_magmoms:R:1:castep_labels:S:1:forces:R:3 n_minim_iter=10 energy=-111.249023403851 stress="-5.783702501959321e-05 0.0 0.0 0.0 -6.369690597395929e-05 8.098355478933923e-05 0.0 8.098355478933923e-05 -0.0003170781584407486" free_energy=-111.249023403851 pbc="T T T"
P        1.15549929       4.84596133       5.16269338       0.00000000 NULL      -0.00340600      -0.00645000       0.00032200
P        3.95049633       4.84596133       5.16269338       0.00000000 NULL       0.00340600      -0.00645000       0.00032200
P        1.16895789       2.17695956       7.37530362       0.00000000 NULL      -0.01186200       0.01808800      -0.00941200
P        3.93703773       2.17695956       7.37530362       0.00000000 NULL       0.01186200       0.01808800      -0.00941200
P        1.42343505       0.16242736      12.85254541       0.00000000 NULL      -0.00849600      -0.01336800      -0.00258300
P        3.68256057       0.16242736      12.85254541       0.00000000 NULL       0.00849600      -0.01336800      -0.00258300
P        3.70811884       2.54650097       4.84570678       0.00000000 NULL      -0.00362600      -0.00805900      -0.00256100
P        1.39787677       2.54650097       4.84570678       0.00000000 NULL       0.00362600      -0.00805900      -0.00256100
P        3.93909219       0.38020108       1.92126890       0.00000000 NULL       0.00358100      -0.00866600      -0.00022100
P        1.16690343       0.38020108       1.92126890       0.00000000 NULL      -0.00358100      -0.00866600      -0.00022100
P        1.12936069       4.44394924       9.98584381       0.00000000 NULL       0.00597400       0.00298000       0.00598500
P        3.97663493       4.44394924       9.98584381       0.00000000 NULL      -0.00597400       0.00298000       0.00598500
P        1.38547596       4.50234099       7.68166699       0.00000000 NULL      -0.00137700       0.01750400       0.01292900
P        3.72051965       4.50234099       7.68166699       0.00000000 NULL       0.00137700       0.01750400       0.01292900
P        3.97462486       3.24866873       0.00405717       0.00000000 NULL       0.01792800       0.00031700      -0.00453400
P        1.13137076       3.24866873       0.00405717       0.00000000 NULL      -0.01792800       0.00031700      -0.00453400
P        1.38565686       2.69319179       2.23014911       0.00000000 NULL      -0.00006100      -0.00621900       0.00206600
P        3.72033876       2.69319179       2.23014911       0.00000000 NULL       0.00006100      -0.00621900       0.00206600
P        1.42363213       1.62858023       9.61225037       0.00000000 NULL      -0.01096000       0.00387300      -0.00199100
P        3.68236349       1.62858023       9.61225037       0.00000000 NULL       0.01096000       0.00387300      -0.00199100
20