13
Lattice="4.336210000000001 -3.781774291233394e-15 -1.571495530376549e-15 1.9149981595970869 6.617994749834711 -1.7209369230942951e-15 0.49354490579097465 2.5090477809154206 9.976610619401322" Properties=species:S:1:pos:R:3:initial_magmoms:R:1:castep_labels:S:1 n_minim_iter=1 pbc="T T T"
P        2.53553381       6.75052999       5.96280268       0.00000000 NULL
P        2.28320713       5.90182479       1.17884230       0.00000000 NULL
P        4.62964521       6.28762243       6.53085293       0.00000000 NULL
P        3.39084737       2.82373610       4.70154061       0.00000000 NULL
P        2.69594102       4.16049268       0.12238608       0.00000000 NULL
P        5.20385965       5.90688884       4.61495061       0.00000000 NULL
P        6.18243699       7.68771728       4.26967708       0.00000000 NULL
P        4.34250274       1.16840395       0.46301051       0.00000000 NULL
P        2.42894541       3.95637877       6.10552607       0.00000000 NULL
P        1.60900646       5.65156352       7.97726792       0.00000000 NULL
P        3.36532666       2.46733817       1.82232869       0.00000000 NULL
P        3.30368418       5.26507556       4.82470286       0.00000000 NULL
P        4.58783477       3.30579195       0.45108746       0.00000000 NULL
13
Lattice="4.3498770875267185 0.00036832700884646273 -0.0009707515955659505 1.9215960950456696 6.636958516385753 -0.001582188609684959 0.49308013605263057 2.5144788108087712 9.998387416870019" Properties=species:S:1:pos:R:3:initial_magmoms:R:1:castep_labels:S:1 n_minim_iter=2 pbc="T T T"
P        2.54281870       6.76916918       5.97480553       0.00000000 NULL
P        2.29068116       5.91855540       1.18013327       0.00000000 NULL
P        4.64322629       6.30481786       6.54358060       0.00000000 NULL
P        3.40067109       2.83134982       4.71071483       0.00000000 NULL
P        2.70463945       4.17251831       0.12122602       0.00000000 NULL
P        5.21984514       5.92311343       4.62284733       0.00000000 NULL
P        6.20180496       7.70952248       4.27612404       0.00000000 NULL
P        4.35615098       1.17192702       0.46271427       0.00000000 NULL
P        2.43545566       3.96645572       6.11825123       0.00000000 NULL
P        1.61289712       5.66634259       7.99389370       0.00000000 NULL
P        3.37552082       2.47424521       1.82548561       0.00000000 NULL
P        3.31324520       5.27931722       4.83345509       0.00000000 NULL
P        4.60279565       3.31568218       0.45033399       0.00000000 NULL
13
Lattice="4.646707927806258 0.010788629574978647 -0.021625350487345457 2.0685889806580615 7.043692045326157 -0.035099616652810466 0.48537328963339144 2.6313464943728424 10.463057073322377" Properties=species:S:1:pos:R:3:initial_magmoms:R:1:castep_labels:S:1 n_minim_iter=3 pbc="T T T"
P        2.70551270       7.16993849       6.23142390       0.00000000 NULL
P        2.45647537       6.27776769       1.20805255       0.00000000 NULL
P        4.94227283       6.67568604       6.81563213       0.00000000 NULL
P        3.61603099       2.99649550       4.90650935       0.00000000 NULL
P        2.89583735       4.43132575       0.09661353       0.00000000 NULL
P        5.57087867       6.27320693       4.79138001       0.00000000 NULL
P        6.62737552       8.17990156       4.41369118       0.00000000 NULL
P        4.65319204       1.24978222       0.45641428       0.00000000 NULL
P        2.57957253       4.18325115       6.39007584       0.00000000 NULL
P        1.70141346       5.98370311       8.34877535       0.00000000 NULL
P        3.59831939       2.62388939       1.89308665       0.00000000 NULL
P        3.52403231       5.58589013       5.02013006       0.00000000 NULL
P        4.92984207       3.53016528       0.43430092       0.00000000 NULL
13
Lattice="4.756145410398428 0.05717795436136797 -0.008184572695324238 2.1877199465567694 7.086257623416236 -0.030494624252866472 0.5555956153284799 2.642990828512623 10.531962140976711" Properties=species:S:1:pos:R:3:initial_magmoms:R:1:castep_labels:S:1 n_minim_iter=4 pbc="T T T"
P        2.86210651       7.22298951       6.28307962       0.00000000 NULL
P        2.58208066       6.32112073       1.22428078       0.00000000 NULL
P        5.14689506       6.74608762       6.87684499       0.00000000 NULL
P        3.74529617       3.04252996       4.94782278       0.00000000 NULL
P        3.00803386       4.47373979       0.10466217       0.00000000 NULL
P        5.78057312       6.34625837       4.83561861       0.00000000 NULL
P        6.88112665       8.27239207       4.45690927       0.00000000 NULL
P        4.77519166       1.29971911       0.47193773       0.00000000 NULL
P        2.70185399       4.21674577       6.44009245       0.00000000 NULL
P        1.82813131       6.01823048       8.40604616       0.00000000 NULL
P        3.71411722       2.66653962       1.91578565       0.00000000 NULL
P        3.67398079       5.63502397       5.05847968       0.00000000 NULL
P        5.08453369       3.59247703       0.45006910       0.00000000 NULL
13
Lattice="4.879201088062732 0.1312397438548057 0.019768107185533797 2.3550992778820627 7.076451700895659 -0.00038238568019889483 0.6767685000271229 2.662086932525164 10.539193660966685" Properties=species:S:1:pos:R:3:initial_magmoms:R:1:castep_labels:S:1 n_minim_iter=5 pbc="T T T"
P        3.09079291       7.24584280       6.32267229       0.00000000 NULL
P        2.75737457       6.32437716       1.25827529       0.00000000 NULL
P        5.42867211       6.80409147       6.92672227       0.00000000 NULL
P        3.91826746       3.09695761       4.97510838       0.00000000 NULL
P        3.15602392       4.49223198       0.13307471       0.00000000 NULL
P        6.05943016       6.40810193       4.88178742       0.00000000 NULL
P        7.21865606       8.34087492       4.51198425       0.00000000 NULL
P        4.91884821       1.36741458       0.50160474       0.00000000 NULL
P        2.87744882       4.24341779       6.46657184       0.00000000 NULL
P        2.02291144       6.03126460       8.42684951       0.00000000 NULL
P        3.86237929       2.71195736       1.94270242       0.00000000 NULL
P        3.88195705       5.66604660       5.08792669       0.00000000 NULL
P        5.27602850       3.65410684       0.48794647       0.00000000 NULL
13
Lattice="5.081726332670022 0.2557672132191905 0.07655164127329102 2.6345962600758726 7.028732936800069 0.123328058709136 0.9025204545285812 2.786008458518191 10.509571344146963" Properties=species:S:1:pos:R:3:initial_magmoms:R:1:castep_labels:S:1 n_minim_iter=6 pbc="T T T"
P        3.48802540       7.31808213       6.42839662       0.00000000 NULL
P        3.05412870       6.31366060       1.37685449       0.00000000 NULL
P        5.91209898       6.94076871       7.04195766       0.00000000 NULL
P        4.21526392       3.22595929       5.02445335       0.00000000 NULL
P        3.40480482       4.50289913       0.22942412       0.00000000 NULL
P        6.53240147       6.53193079       5.00141876       0.00000000 NULL
P        7.79094885       8.46019212       4.66759250       0.00000000 NULL
P        5.15521993       1.48001265       0.56778862       0.00000000 NULL
P        3.18268137       4.33245689       6.51591083       0.00000000 NULL
P        2.36774444       6.11012668       8.46599915       0.00000000 NULL
P        4.11147612       2.79730443       2.00699586       0.00000000 NULL
P        4.23850955       5.74077430       5.16464512       0.00000000 NULL
P        5.59340787       3.74833555       0.59450622       0.00000000 NULL
13
Lattice="5.140931322391981 0.30103093210321 0.10651639107597864 2.729825158189419 7.025196510926802 0.2988584409716194 1.0043918573402104 3.0269033916708383 10.527147796454054" Properties=species:S:1:pos:R:3:initial_magmoms:R:1:castep_labels:S:1 n_minim_iter=7 pbc="T T T"
P        3.64271163       7.48345825       6.60364430       0.00000000 NULL
P        3.16144292       6.34182410       1.54508944       0.00000000 NULL
P        6.08466030       7.13145453       7.20630757       0.00000000 NULL
P        4.31993310       3.37469612       5.09129461       0.00000000 NULL
P        3.49085888       4.51223433       0.34862477       0.00000000 NULL
P        6.69530174       6.67532515       5.15856434       0.00000000 NULL
P        7.99039762       8.59212584       4.86767218       0.00000000 NULL
P        5.22305518       1.53228418       0.61475432       0.00000000 NULL
P        3.29571043       4.48539041       6.60589064       0.00000000 NULL
P        2.50693775       6.30368151       8.56668251       0.00000000 NULL
P        4.19097894       2.87130764       2.07846295       0.00000000 NULL
P        4.36585473       5.86555629       5.28468072       0.00000000 NULL
P        5.69357525       3.80340652       0.70737635       0.00000000 NULL
13
Lattice="5.157942224884241 0.35907127868590916 0.15369948229334532 2.825919802113184 6.984783829811206 0.3656239943054593 1.1484690528543182 3.077706701580987 10.517043529620295" Properties=species:S:1:pos:R:3:initial_magmoms:R:1:castep_labels:S:1 n_minim_iter=8 pbc="T T T"
P        3.82021377       7.50111542       6.67445421       0.00000000 NULL
P        3.26800916       6.31692469       1.61806400       0.00000000 NULL
P        6.25613266       7.17911667       7.28417703       0.00000000 NULL
P        4.41960636       3.43081356       5.12962003       0.00000000 NULL
P        3.56289628       4.50324055       0.40605220       0.00000000 NULL
P        6.84254571       6.71570048       5.24120771       0.00000000 NULL
P        8.16552210       8.62156228       4.96450263       0.00000000 NULL
P        5.25372522       1.58373248       0.66038338       0.00000000 NULL
P        3.42044493       4.51333761       6.64394395       0.00000000 NULL
P        2.67930057       6.32461128       8.58741846       0.00000000 NULL
P        4.25147764       2.90518847       2.12320963       0.00000000 NULL
P        4.49686925       5.88736342       5.33607420       0.00000000 NULL
P        5.76172360       3.84137355       0.78059111       0.00000000 NULL
13
Lattice="5.177266432663766 0.36791240495021443 0.16071393017359104 2.8479474136756466 7.027656594062275 0.40301713451308974 1.1719228495462592 3.1451869986419627 10.580764712957292" Properties=species:S:1:pos:R:3:initial_magmoms:R:1:castep_labels:S:1 n_minim_iter=9 pbc="T T T"
P        3.86040113       7.58239234       6.75116839       0.00000000 NULL
P        3.29473775       6.36000473       1.66400878       0.00000000 NULL
P        6.29833279       7.26109126       7.35972355       0.00000000 NULL
P        4.44712660       3.48185910       5.17127711       0.00000000 NULL
P        3.58543878       4.53184599       0.43186137       0.00000000 NULL
P        6.88438656       6.78356223       5.30287745       0.00000000 NULL
P        8.21663233       8.69763777       5.03108205       0.00000000 NULL
P        5.27314598       1.60253761       0.67081284       0.00000000 NULL
P        3.44640173       4.56991128       6.70179903       0.00000000 NULL
P        2.71307547       6.40257720       8.65477899       0.00000000 NULL
P        4.27097515       2.93653157       2.15024503       0.00000000 NULL
P        4.52903350       5.94851269       5.39014077       0.00000000 NULL
P        5.79062545       3.87574460       0.80838586       0.00000000 NULL
13
Lattice="5.170953835401284 0.3780931580962442 0.1703751371576961 2.8606976169014713 7.010465020012656 0.4219400748480429 1.1993234011943001 3.1602177024137945 10.568615228211195" Properties=species:S:1:pos:R:3:initial_magmoms:R:1:castep_labels:S:1 n_minim_iter=10 pbc="T T T"
P        3.88927737       7.58203722       6.76465296       0.00000000 NULL
P        3.30953419       6.34723646       1.68326142       0.00000000 NULL
P        6.32008507       7.26669824       7.37294192       0.00000000 NULL
P        4.45874164       3.49269505       5.17508635       0.00000000 NULL
P        3.59299856       4.52382041       0.44677399       0.00000000 NULL
P        6.90052473       6.78613942       5.31921929       0.00000000 NULL
P        8.23539833       8.69409795       5.05157142       0.00000000 NULL
P        5.26855484       1.61044898       0.67943774       0.00000000 NULL
P        3.46434642       4.57441872       6.70581003       0.00000000 NULL
P        2.74307998       6.40556734       8.65267165       0.00000000 NULL
P        4.27411108       2.94060844       2.15908113       0.00000000 NULL
P        4.54629312       5.94907316       5.39906598       0.00000000 NULL
P        5.79281864       3.87825662       0.82574015       0.00000000 NULL
13
Lattice="5.1729379684246535 0.387052039743327 0.17862947124217707 2.87524706049229 7.009949753264033 0.44157685487561155 1.223724386835106 3.1836490658849446 10.577803201792735" Properties=species:S:1:pos:R:3:initial_magmoms:R:1:castep_labels:S:1 n_minim_iter=11 pbc="T T T"
P        3.91971093       7.60032162       6.79196674       0.00000000 NULL
P        3.32686961       6.34914762       1.70602811       0.00000000 NULL
P        6.34644180       7.28883368       7.39992778       0.00000000 NULL
P        4.47444569       3.51117589       5.18792989       0.00000000 NULL
P        3.60453494       4.52576034       0.46173247       0.00000000 NULL
P        6.92340339       6.80333108       5.34462155       0.00000000 NULL
P        8.26261188       8.70935842       5.08010958       0.00000000 NULL
P        5.27150943       1.62030736       0.68726921       0.00000000 NULL
P        3.48340821       4.58938178       6.72309870       0.00000000 NULL
P        2.77232109       6.42437056       8.66770574       0.00000000 NULL
P        4.28187230       2.95048737       2.17134491       0.00000000 NULL
P        4.56691502       5.96329138       5.41782635       0.00000000 NULL
P        5.80306541       3.88854309       0.84332523       0.00000000 NULL
13
Lattice="5.184720780872968 0.44842085913605656 0.239823265812047 2.974112795476995 6.9928687499957505 0.5760030918717247 1.401367837664677 3.335790160991808 10.618936939042504" Properties=species:S:1:pos:R:3:initial_magmoms:R:1:castep_labels:S:1 n_minim_iter=12 pbc="T T T"
P        4.13601864       7.71130440       6.96883942       0.00000000 NULL
P        3.44701343       6.34969687       1.86169121       0.00000000 NULL
P        6.53125682       7.42579177       7.57372429       0.00000000 NULL
P        4.58542862       3.63081883       5.26741334       0.00000000 NULL
P        3.68318968       4.53074930       0.56547549       0.00000000 NULL
P        7.08301032       6.90749075       5.51291430       0.00000000 NULL
P        8.45060476       8.79550222       5.26989699       0.00000000 NULL
P        5.28877467       1.68495854       0.74228116       0.00000000 NULL
P        3.61836352       4.68119428       6.83015007       0.00000000 NULL
P        2.98155848       6.53867365       8.75169132       0.00000000 NULL
P        4.33408271       3.01199085       2.25395830       0.00000000 NULL
P        4.71165465       6.04849597       5.53787364       0.00000000 NULL
P        5.87255083       3.95270649       0.96720020       0.00000000 NULL
13
Lattice="5.246047712623205 0.46677677097473047 0.2834536850556944 3.029211669750194 6.921375019521823 0.6516670163459399 1.5193527043048352 3.3927169654238676 10.564617522758082" Properties=species:S:1:pos:R:3:initial_magmoms:R:1:castep_labels:S:1 n_minim_iter=13 pbc="T T T"
P        4.30122532       7.71980386       7.04656109       0.00000000 NULL
P        3.53668843       6.28132996       1.96690677       0.00000000 NULL
P        6.66793130       7.43410815       7.63208212       0.00000000 NULL
P        4.68509135       3.66821326       5.26463858       0.00000000 NULL
P        3.75632649       4.48939995       0.62438482       0.00000000 NULL
P        7.22927277       6.89374734       5.58604094       0.00000000 NULL
P        8.61907473       8.73908110       5.34233968       0.00000000 NULL
P        5.33047110       1.69879539       0.75260963       0.00000000 NULL
P        3.70621997       4.67503867       6.85962253       0.00000000 NULL
P        3.13291110       6.54426858       8.71311989       0.00000000 NULL
P        4.37924507       3.00909193       2.29212996       0.00000000 NULL
P        4.82531012       6.03998989       5.57168450       0.00000000 NULL
P        5.96513700       3.95365640       1.04571841       0.00000000 NULL
13
Lattice="5.188182283725985 0.4470254678787673 0.2775731247370861 2.973511828175655 6.6964480733404415 0.6533533132695902 1.4878080578556538 3.3149575564173084 10.421786832304372" Properties=species:S:1:pos:R:3:initial_magmoms:R:1:castep_labels:S:1 n_minim_iter=14 pbc="T T T"
P        4.24663458       7.50317542       6.97610380       0.00000000 NULL
P        3.48844521       6.07525410       1.97180739       0.00000000 NULL
P        6.55594747       7.21491912       7.54291043       0.00000000 NULL
P        4.61540232       3.56688762       5.17887206       0.00000000 NULL
P        3.71359270       4.34414744       0.62014027       0.00000000 NULL
P        7.12978219       6.67929641       5.52210379       0.00000000 NULL
P        8.50226712       8.45296162       5.27217244       0.00000000 NULL
P        5.25057878       1.64204876       0.72094217       0.00000000 NULL
P        3.63426747       4.53116427       6.78021785       0.00000000 NULL
P        3.08799753       6.35559757       8.57645135       0.00000000 NULL
P        4.30685087       2.91116916       2.26198090       0.00000000 NULL
P        4.75139657       5.85798613       5.50374588       0.00000000 NULL
P        5.88457216       3.82786508       1.04038667       0.00000000 NULL
13
Lattice="5.254165665173089 0.4426344132155695 0.2714614808449586 2.995950334919545 6.802716640443394 0.658332994112491 1.4787159946173207 3.3670577706586666 10.554952297990507" Properties=species:S:1:pos:R:3:initial_magmoms:R:1:castep_labels:S:1 n_minim_iter=15 pbc="T T T"
P        4.27473295       7.62338705       7.06395730       0.00000000 NULL
P        3.51835881       6.16896231       1.99681082       0.00000000 NULL
P        6.60751551       7.32194800       7.63172147       0.00000000 NULL
P        4.65616918       3.61718183       5.23575114       0.00000000 NULL
P        3.75100562       4.40904473       0.62069797       0.00000000 NULL
P        7.19550623       6.77391945       5.58192227       0.00000000 NULL
P        8.58564089       8.57489527       5.32515231       0.00000000 NULL
P        5.31063153       1.65743881       0.71659740       0.00000000 NULL
P        3.65442150       4.59669115       6.86476171       0.00000000 NULL
P        3.09889805       6.45518072       8.68170203       0.00000000 NULL
P        4.34878702       2.94942108       2.28527069       0.00000000 NULL
P        4.79058032       5.94608497       5.56717202       0.00000000 NULL
P        5.95275734       3.88088624       1.04534665       0.00000000 NULL
13
Lattice="5.254917017343866 0.44292201155438377 0.27707301331513395 2.9967210914835873 6.788830240565496 0.6570710147955231 1.4918787562094027 3.356139330703154 10.534098366928276" Properties=species:S:1:pos:R:3:initial_magmoms:R:1:castep_labels:S:1 n_minim_iter=16 pbc="T T T"
P        4.28589508       7.60760930       7.05298425       0.00000000 NULL
P        3.52237846       6.15558512       1.99665853       0.00000000 NULL
P        6.61605589       7.30547199       7.62136238       0.00000000 NULL
P        4.66197410       3.60935268       5.22748300       0.00000000 NULL
P        3.75312942       4.40078109       0.62131410       0.00000000 NULL
P        7.20261250       6.75871788       5.57699254       0.00000000 NULL
P        8.59389761       8.55593693       5.31986763       0.00000000 NULL
P        5.30947619       1.65506219       0.71830128       0.00000000 NULL
P        3.66147230       4.58380107       6.85403551       0.00000000 NULL
P        3.11140135       6.43860495       8.66208583       0.00000000 NULL
P        4.35043650       2.94278359       2.28419447       0.00000000 NULL
P        4.79775516       5.93248721       5.55913184       0.00000000 NULL
P        5.95409946       3.87435726       1.04939514       0.00000000 NULL
13
Lattice="5.260425526729501 0.4423195200395601 0.28125517397294747 2.99823427918753 6.781444694805857 0.6573800028640785 1.5017792926636573 3.3510530896540773 10.525441725519862" Properties=species:S:1:pos:R:3:initial_magmoms:R:1:castep_labels:S:1 n_minim_iter=17 pbc="T T T"
P        4.29712611       7.60110233       7.05096657       0.00000000 NULL
P        3.52772519       6.14820293       1.99992765       0.00000000 NULL
P        6.62581034       7.29695923       7.61953052       0.00000000 NULL
P        4.66914966       3.60549076       5.22389359       0.00000000 NULL
P        3.75761802       4.39635662       0.62234376       0.00000000 NULL
P        7.21264140       6.74989893       5.57767459       0.00000000 NULL
P        8.60641543       8.54479426       5.31966190       0.00000000 NULL
P        5.31206039       1.65307899       0.71867962       0.00000000 NULL
P        3.66776823       4.57616068       6.85129553       0.00000000 NULL
P        3.12234789       6.43011858       8.65230217       0.00000000 NULL
P        4.35409798       2.93851213       2.28507666       0.00000000 NULL
P        4.80601807       5.92527895       5.55726224       0.00000000 NULL
P        5.95971267       3.87075385       1.05383045       0.00000000 NULL
13
Lattice="5.279737819891644 0.4382846233176798 0.2932016756394732 3.000605031651445 6.7473703082455865 0.6616929861438712 1.5291288284642746 3.3368993239504268 10.499915486595851" Properties=species:S:1:pos:R:3:initial_magmoms:R:1:castep_labels:S:1 n_minim_iter=18 pbc="T T T"
P        4.33146969       7.57542910       7.05017568       0.00000000 NULL
P        3.54438076       6.11573285       2.01644169       0.00000000 NULL
P        6.65223710       7.26283617       7.61766943       0.00000000 NULL
P        4.68932883       3.59056903       5.21108274       0.00000000 NULL
P        3.77265313       4.37548168       0.62677963       0.00000000 NULL
P        7.24229572       6.71278610       5.58278362       0.00000000 NULL
P        8.64545257       8.49662858       5.32112683       0.00000000 NULL
P        5.31844471       1.64287429       0.71621249       0.00000000 NULL
P        3.68280026       4.54727157       6.84572602       0.00000000 NULL
P        3.15436421       6.39831930       8.62129911       0.00000000 NULL
P        4.36335836       2.92012673       2.28843363       0.00000000 NULL
P        4.82992954       5.89596738       5.55407247       0.00000000 NULL
P        5.97713166       3.85295292       1.06966620       0.00000000 NULL
13
Lattice="5.297265011150059 0.42533315527343046 0.29081032074350804 2.988578813244882 6.661555285531934 0.6787343592305445 1.5181277439117606 3.3323409536430413 10.495677589333448" Properties=species:S:1:pos:R:3:initial_magmoms:R:1:castep_labels:S:1 n_minim_iter=19 pbc="T T T"
P        4.34026498       7.52295045       7.07633221       0.00000000 NULL
P        3.55096522       6.04081172       2.05598345       0.00000000 NULL
P        6.63802687       7.19452540       7.63456697       0.00000000 NULL
P        4.68211846       3.56201068       5.19328260       0.00000000 NULL
P        3.78463641       4.32188548       0.63277092       0.00000000 NULL
P        7.24219527       6.63303467       5.59771442       0.00000000 NULL
P        8.65925151       8.38916214       5.32791649       0.00000000 NULL
P        5.30871120       1.61459306       0.69250141       0.00000000 NULL
P        3.66027818       4.49849040       6.85739767       0.00000000 NULL
P        3.15390794       6.34270197       8.60103449       0.00000000 NULL
P        4.35298495       2.87961273       2.29114613       0.00000000 NULL
P        4.82763552       5.83597260       5.56439328       0.00000000 NULL
P        5.98083497       3.80392856       1.08527095       0.00000000 NULL
