56
Lattice="5.02282 0.0 0.0 0.0 13.179469999999997 0.0 0.0 0.0 19.284749999999995" Properties=species:S:1:pos:R:3:initial_magmoms:R:1:castep_labels:S:1 n_minim_iter=1 pbc="T T T"
P        3.37935832       0.47631132       6.87597376       0.00000000 NULL
P        3.37935832      12.70315868      12.40877624       0.00000000 NULL
P        0.86794832      12.70315868       6.87597376       0.00000000 NULL
P        0.86794832       0.47631132      12.40877624       0.00000000 NULL
P        1.24036631       9.58118211       8.12245514       0.00000000 NULL
P        1.24036631       3.59828789      11.16229486       0.00000000 NULL
P        3.75177631       3.59828789       8.12245514       0.00000000 NULL
P        3.75177631       9.58118211      11.16229486       0.00000000 NULL
P        3.76870623       0.12147781      14.31083114       0.00000000 NULL
P        3.76870623      13.05799219       4.97391886       0.00000000 NULL
P        1.25729623      13.05799219      14.31083114       0.00000000 NULL
P        1.25729623       0.12147781       4.97391886       0.00000000 NULL
P        0.05114235      12.73757555       8.73711798       0.00000000 NULL
P        0.05114235       0.44189445      10.54763202       0.00000000 NULL
P        2.56255235       0.44189445       8.73711798       0.00000000 NULL
P        2.56255235      12.73757555      10.54763202       0.00000000 NULL
P        3.76390492       4.95731135      14.46477165       0.00000000 NULL
P        3.76390492       8.22215865       4.81997835       0.00000000 NULL
P        1.25249492       8.22215865      14.46477165       0.00000000 NULL
P        1.25249492       4.95731135       4.81997835       0.00000000 NULL
P        2.69179604       4.97961365      11.18687327       0.00000000 NULL
P        2.69179604       8.19985635       8.09787673       0.00000000 NULL
P        0.18038604       8.19985635      11.18687327       0.00000000 NULL
P        0.18038604       4.97961365       8.09787673       0.00000000 NULL
P        4.56301147       7.79388782      15.46924871       0.00000000 NULL
P        4.56301147       5.38558218       3.81550129       0.00000000 NULL
P        2.05160147       5.38558218      15.46924871       0.00000000 NULL
P        2.05160147       7.79388782       3.81550129       0.00000000 NULL
P        1.59454293       8.80927768       5.49057467       0.00000000 NULL
P        1.59454293       4.37019232      13.79417533       0.00000000 NULL
P        4.10595293       4.37019232       5.49057467       0.00000000 NULL
P        4.10595293       8.80927768      13.79417533       0.00000000 NULL
P        3.36766118      10.16740889       5.23206646       0.00000000 NULL
P        3.36766118       3.01206111      14.05268354       0.00000000 NULL
P        0.85625118       3.01206111       5.23206646       0.00000000 NULL
P        0.85625118      10.16740889      14.05268354       0.00000000 NULL
P        3.44557616       7.61208362      12.26779315       0.00000000 NULL
P        3.44557616       5.56738638       7.01695685       0.00000000 NULL
P        0.93416616       5.56738638      12.26779315       0.00000000 NULL
P        0.93416616       7.61208362       7.01695685       0.00000000 NULL
P        2.09455512       2.92124402       7.12637081       0.00000000 NULL
P        2.09455512      10.25822598      12.15837919       0.00000000 NULL
P        4.60596512      10.25822598       7.12637081       0.00000000 NULL
P        4.60596512       2.92124402      12.15837919       0.00000000 NULL
P        5.02088923      10.75599347       9.16475731       0.00000000 NULL
P        5.02088923       2.42347653      10.11999269       0.00000000 NULL
P        2.50947923       2.42347653       9.16475731       0.00000000 NULL
P        2.50947923      10.75599347      10.11999269       0.00000000 NULL
P        2.54863512       6.47417214       5.40075788       0.00000000 NULL
P        2.54863512       6.70529786      13.88399212       0.00000000 NULL
P        0.03722512       6.70529786       5.40075788       0.00000000 NULL
P        0.03722512       6.47417214      13.88399212       0.00000000 NULL
P        2.57739529       7.18978177       1.98044740       0.00000000 NULL
P        2.57739529       5.98968823      17.30430260       0.00000000 NULL
P        0.06598529       5.98968823       1.98044740       0.00000000 NULL
P        0.06598529       7.18978177      17.30430260       0.00000000 NULL
56
Lattice="5.083670504641256 0.0 0.0 0.0 13.370169849666471 0.0 0.0 0.0 19.6575373935059" Properties=species:S:1:pos:R:3:initial_magmoms:R:1:castep_labels:S:1 n_minim_iter=2 pbc="T T T"
P        3.42037043       0.48330160       7.00881285       0.00000000 NULL
P        3.42037043      12.88686825      12.64872454       0.00000000 NULL
P        0.87853517      12.88686825       7.00881285       0.00000000 NULL
P        0.87853517       0.48330160      12.64872454       0.00000000 NULL
P        1.25555753       9.71987547       8.27948664       0.00000000 NULL
P        1.25555753       3.65029438      11.37805075       0.00000000 NULL
P        3.79739279       3.65029438       8.27948664       0.00000000 NULL
P        3.79739279       9.71987547      11.37805075       0.00000000 NULL
P        3.81437116       0.12333738      14.58769640       0.00000000 NULL
P        3.81437116      13.24683247       5.06984099       0.00000000 NULL
P        1.27253591      13.24683247      14.58769640       0.00000000 NULL
P        1.27253591       0.12333738       5.06984099       0.00000000 NULL
P        0.05168590      12.92203381       8.90591427       0.00000000 NULL
P        0.05168590       0.44813604      10.75162312       0.00000000 NULL
P        2.59352115       0.44813604       8.90591427       0.00000000 NULL
P        2.59352115      12.92203381      10.75162312       0.00000000 NULL
P        3.80980289       5.02893692      14.74436757       0.00000000 NULL
P        3.80980289       8.34123293       4.91316983       0.00000000 NULL
P        1.26796763       8.34123293      14.74436757       0.00000000 NULL
P        1.26796763       5.02893692       4.91316983       0.00000000 NULL
P        2.72482933       5.05183170      11.40299423       0.00000000 NULL
P        2.72482933       8.31833815       8.25454317       0.00000000 NULL
P        0.18299407       8.31833815      11.40299423       0.00000000 NULL
P        0.18299407       5.05183170       8.25454317       0.00000000 NULL
P        4.61809421       7.90641070      15.76874771       0.00000000 NULL
P        4.61809421       5.46375915       3.88878968       0.00000000 NULL
P        2.07625896       5.46375915      15.76874771       0.00000000 NULL
P        2.07625896       7.90641070       3.88878968       0.00000000 NULL
P        1.61374125       8.93727725       5.59679487       0.00000000 NULL
P        1.61374125       4.43289260      14.06074253       0.00000000 NULL
P        4.15557650       4.43289260       5.59679487       0.00000000 NULL
P        4.15557650       8.93727725      14.06074253       0.00000000 NULL
P        3.40850148      10.31485952       5.33327329       0.00000000 NULL
P        3.40850148       3.05531033      14.32426410       0.00000000 NULL
P        0.86666623       3.05531033       5.33327329       0.00000000 NULL
P        0.86666623      10.31485952      14.32426410       0.00000000 NULL
P        3.48728549       7.72206395      12.50463761       0.00000000 NULL
P        3.48728549       5.64810590       7.15289978       0.00000000 NULL
P        0.94545024       5.64810590      12.50463761       0.00000000 NULL
P        0.94545024       7.72206395       7.15289978       0.00000000 NULL
P        2.11966092       2.96342702       7.26393652       0.00000000 NULL
P        2.11966092      10.40674283      12.39360088       0.00000000 NULL
P        4.66149617      10.40674283       7.26393652       0.00000000 NULL
P        4.66149617       2.96342702      12.39360088       0.00000000 NULL
P        5.08149991      10.91156264       9.34228101       0.00000000 NULL
P        5.08149991       2.45860721      10.31525638       0.00000000 NULL
P        2.53966466       2.45860721       9.34228101       0.00000000 NULL
P        2.53966466      10.91156264      10.31525638       0.00000000 NULL
P        2.57939970       6.56788573       5.50511727       0.00000000 NULL
P        2.57939970       6.80228412      14.15242012       0.00000000 NULL
P        0.03756445       6.80228412       5.50511727       0.00000000 NULL
P        0.03756445       6.56788573      14.15242012       0.00000000 NULL
P        2.60863568       7.29368791       2.01843075       0.00000000 NULL
P        2.60863568       6.07648194      17.63910665       0.00000000 NULL
P        0.06680043       6.07648194       2.01843075       0.00000000 NULL
P        0.06680043       7.29368791      17.63910665       0.00000000 NULL
56
Lattice="5.2965718783724105 0.0 0.0 0.0 14.082704254259124 0.0 0.0 0.0 21.022176485024577" Properties=species:S:1:pos:R:3:initial_magmoms:R:1:castep_labels:S:1 n_minim_iter=3 pbc="T T T"
P        3.56389554       0.50945122       7.49492000       0.00000000 NULL
P        3.56389554      13.57325304      13.52725649       0.00000000 NULL
P        0.91560960      13.57325304       7.49492000       0.00000000 NULL
P        0.91560960       0.50945122      13.52725649       0.00000000 NULL
P        1.30875364      10.23811459       8.85423983       0.00000000 NULL
P        1.30875364       3.84458966      12.16793666       0.00000000 NULL
P        3.95703958       3.84458966       8.85423983       0.00000000 NULL
P        3.95703958      10.23811459      12.16793666       0.00000000 NULL
P        3.97410711       0.13028349      15.60112384       0.00000000 NULL
P        3.97410711      13.95242076       5.42105265       0.00000000 NULL
P        1.32582117      13.95242076      15.60112384       0.00000000 NULL
P        1.32582117       0.13028349       5.42105265       0.00000000 NULL
P        0.05358093      13.61130334       9.52372476       0.00000000 NULL
P        0.05358093       0.47140091      11.49845172       0.00000000 NULL
P        2.70186687       0.47140091       9.52372476       0.00000000 NULL
P        2.70186687      13.61130334      11.49845172       0.00000000 NULL
P        3.97046752       5.29644587      15.76791026       0.00000000 NULL
P        3.97046752       8.78625838       5.25426623       0.00000000 NULL
P        1.32218158       8.78625838      15.76791026       0.00000000 NULL
P        1.32218158       5.29644587       5.25426623       0.00000000 NULL
P        2.84056641       5.32174401      12.19415618       0.00000000 NULL
P        2.84056641       8.76096024       8.82802031       0.00000000 NULL
P        0.19228048       8.76096024      12.19415618       0.00000000 NULL
P        0.19228048       5.32174401       8.82802031       0.00000000 NULL
P        4.81083616       8.32665834      16.86534565       0.00000000 NULL
P        4.81083616       5.75604592       4.15683083       0.00000000 NULL
P        2.16255023       5.75604592      16.86534565       0.00000000 NULL
P        2.16255023       8.32665834       4.15683083       0.00000000 NULL
P        1.68083947       9.41571690       5.98570853       0.00000000 NULL
P        1.68083947       4.66698735      15.03646796       0.00000000 NULL
P        4.32912541       4.66698735       5.98570853       0.00000000 NULL
P        4.32912541       9.41571690      15.03646796       0.00000000 NULL
P        3.55144969      10.86587021       5.70385989       0.00000000 NULL
P        3.55144969       3.21683404      15.31831660       0.00000000 NULL
P        0.90316375       3.21683404       5.70385989       0.00000000 NULL
P        0.90316375      10.86587021      15.31831660       0.00000000 NULL
P        3.63327621       8.13304627      13.37151774       0.00000000 NULL
P        3.63327621       5.94965799       7.65065875       0.00000000 NULL
P        0.98499027       5.94965799      13.37151774       0.00000000 NULL
P        0.98499027       8.13304627       7.65065875       0.00000000 NULL
P        2.20737963       3.12097148       7.76751855       0.00000000 NULL
P        2.20737963      10.96173277      13.25465793       0.00000000 NULL
P        4.85566557      10.96173277       7.76751855       0.00000000 NULL
P        4.85566557       3.12097148      13.25465793       0.00000000 NULL
P        5.29341712      11.49283928       9.99220563       0.00000000 NULL
P        5.29341712       2.58986497      11.02997085       0.00000000 NULL
P        2.64513119       2.58986497       9.99220563       0.00000000 NULL
P        2.64513119      11.49283928      11.02997085       0.00000000 NULL
P        2.68700242       6.91808082       5.88704649       0.00000000 NULL
P        2.68700242       7.16462344      15.13512999       0.00000000 NULL
P        0.03871649       7.16462344       5.88704649       0.00000000 NULL
P        0.03871649       6.91808082      15.13512999       0.00000000 NULL
P        2.71789516       7.68182936       2.15750266       0.00000000 NULL
P        2.71789516       6.40087489      18.86467383       0.00000000 NULL
P        0.06960922       6.40087489       2.15750266       0.00000000 NULL
P        0.06960922       7.68182936      18.86467383       0.00000000 NULL
56
Lattice="5.304919396712591 0.0 0.0 0.0 14.344453144844676 0.0 0.0 0.0 21.416831047528827" Properties=species:S:1:pos:R:3:initial_magmoms:R:1:castep_labels:S:1 n_minim_iter=4 pbc="T T T"
P        3.56967758       0.51903361       7.63495937       0.00000000 NULL
P        3.56967758      13.82541953      13.78187168       0.00000000 NULL
P        0.91721789      13.82541953       7.63495937       0.00000000 NULL
P        0.91721789       0.51903361      13.78187168       0.00000000 NULL
P        1.31101803      10.42859217       9.02008077       0.00000000 NULL
P        1.31101803       3.91586098      12.39675028       0.00000000 NULL
P        3.96347773       3.91586098       9.02008077       0.00000000 NULL
P        3.96347773      10.42859217      12.39675028       0.00000000 NULL
P        3.98023868       0.13276042      15.89375936       0.00000000 NULL
P        3.98023868      14.21169272       5.52307169       0.00000000 NULL
P        1.32777898      14.21169272      15.89375936       0.00000000 NULL
P        1.32777898       0.13276042       5.52307169       0.00000000 NULL
P        0.05362101      13.86465471       9.70213311       0.00000000 NULL
P        0.05362101       0.47979843      11.71469794       0.00000000 NULL
P        2.70608071       0.47979843       9.70213311       0.00000000 NULL
P        2.70608071      13.86465471      11.71469794       0.00000000 NULL
P        3.97713706       5.39423330      16.06409632       0.00000000 NULL
P        3.97713706       8.95021985       5.35273473       0.00000000 NULL
P        1.32467737       8.95021985      16.06409632       0.00000000 NULL
P        1.32467737       5.39423330       5.35273473       0.00000000 NULL
P        2.84570018       5.42106026      12.42300106       0.00000000 NULL
P        2.84570018       8.92339289       8.99382999       0.00000000 NULL
P        0.19324048       8.92339289      12.42300106       0.00000000 NULL
P        0.19324048       5.42106026       8.99382999       0.00000000 NULL
P        4.81844298       8.48047231      17.18323737       0.00000000 NULL
P        4.81844298       5.86398083       4.23359368       0.00000000 NULL
P        2.16598328       5.86398083      17.18323737       0.00000000 NULL
P        2.16598328       8.48047231       4.23359368       0.00000000 NULL
P        1.68324865       9.59212068       6.09848408       0.00000000 NULL
P        1.68324865       4.75233246      15.31834697       0.00000000 NULL
P        4.33570834       4.75233246       6.09848408       0.00000000 NULL
P        4.33570834       9.59212068      15.31834697       0.00000000 NULL
P        3.55715599      11.06834946       5.81141327       0.00000000 NULL
P        3.55715599       3.27610369      15.60541778       0.00000000 NULL
P        0.90469629       3.27610369       5.81141327       0.00000000 NULL
P        0.90469629      11.06834946      15.60541778       0.00000000 NULL
P        3.63936139       8.28423726      13.62189197       0.00000000 NULL
P        3.63936139       6.06021589       7.79493908       0.00000000 NULL
P        0.98690169       6.06021589      13.62189197       0.00000000 NULL
P        0.98690169       8.28423726       7.79493908       0.00000000 NULL
P        2.21039193       3.17859033       7.91323732       0.00000000 NULL
P        2.21039193      11.16586282      13.50359373       0.00000000 NULL
P        4.86285163      11.16586282       7.91323732       0.00000000 NULL
P        4.86285163       3.17859033      13.50359373       0.00000000 NULL
P        5.30115099      11.70655918      10.18020930       0.00000000 NULL
P        5.30115099       2.63789396      11.23662175       0.00000000 NULL
P        2.64869130       2.63789396      10.18020930       0.00000000 NULL
P        2.64869130      11.70655918      11.23662175       0.00000000 NULL
P        2.69094858       7.04674524       5.99723922       0.00000000 NULL
P        2.69094858       7.29770790      15.41959182       0.00000000 NULL
P        0.03848888       7.29770790       5.99723922       0.00000000 NULL
P        0.03848888       7.04674524      15.41959182       0.00000000 NULL
P        2.72202943       7.82402364       2.19800628       0.00000000 NULL
P        2.72202943       6.52042950      19.21882477       0.00000000 NULL
P        0.06956973       6.52042950       2.19800628       0.00000000 NULL
P        0.06956973       7.82402364      19.21882477       0.00000000 NULL
56
Lattice="5.253304373435636 0.0 0.0 0.0 14.480924719829677 0.0 0.0 0.0 21.568055806025168" Properties=species:S:1:pos:R:3:initial_magmoms:R:1:castep_labels:S:1 n_minim_iter=5 pbc="T T T"
P        3.53511861       0.52398032       7.68804545       0.00000000 NULL
P        3.53511861      13.95694439      13.88001036       0.00000000 NULL
P        0.90846642      13.95694439       7.68804545       0.00000000 NULL
P        0.90846642       0.52398032      13.88001036       0.00000000 NULL
P        1.29839159      10.52797190       9.08324529       0.00000000 NULL
P        1.29839159       3.95295282      12.48481052       0.00000000 NULL
P        3.92504378       3.95295282       9.08324529       0.00000000 NULL
P        3.92504378      10.52797190      12.48481052       0.00000000 NULL
P        3.94132371       0.13402595      16.00547726       0.00000000 NULL
P        3.94132371      14.34689877       5.56257855       0.00000000 NULL
P        1.31467152      14.34689877      16.00547726       0.00000000 NULL
P        1.31467152       0.13402595       5.56257855       0.00000000 NULL
P        0.05310045      13.99687162       9.77027541       0.00000000 NULL
P        0.05310045       0.48405310      11.79778040       0.00000000 NULL
P        2.67975264       0.48405310       9.77027541       0.00000000 NULL
P        2.67975264      13.99687162      11.79778040       0.00000000 NULL
P        3.93873212       5.44464938      16.17769786       0.00000000 NULL
P        3.93873212       9.03627534       5.39035795       0.00000000 NULL
P        1.31207993       9.03627534      16.17769786       0.00000000 NULL
P        1.31207993       5.44464938       5.39035795       0.00000000 NULL
P        2.81852060       5.47303304      12.51069810       0.00000000 NULL
P        2.81852060       9.00789168       9.05735771       0.00000000 NULL
P        0.19186842       9.00789168      12.51069810       0.00000000 NULL
P        0.19186842       5.47303304       9.05735771       0.00000000 NULL
P        4.77170690       8.56010843      17.30581307       0.00000000 NULL
P        4.77170690       5.92081629       4.26224273       0.00000000 NULL
P        2.14505471       5.92081629      17.30581307       0.00000000 NULL
P        2.14505471       8.56010843       4.26224273       0.00000000 NULL
P        1.66675318       9.68476837       6.14200169       0.00000000 NULL
P        1.66675318       4.79615635      15.42605412       0.00000000 NULL
P        4.29340537       4.79615635       6.14200169       0.00000000 NULL
P        4.29340537       9.68476837      15.42605412       0.00000000 NULL
P        3.52260599      11.17393774       5.85303159       0.00000000 NULL
P        3.52260599       3.30698698      15.71502421       0.00000000 NULL
P        0.89595380       3.30698698       5.85303159       0.00000000 NULL
P        0.89595380      11.17393774      15.71502421       0.00000000 NULL
P        3.60449383       8.36324757      13.71751958       0.00000000 NULL
P        3.60449383       6.11767715       7.85053622       0.00000000 NULL
P        0.97784164       6.11767715      13.71751958       0.00000000 NULL
P        0.97784164       8.36324757       7.85053622       0.00000000 NULL
P        2.18850381       3.20835400       7.96916299       0.00000000 NULL
P        2.18850381      11.27257072      13.59889281       0.00000000 NULL
P        4.81515600      11.27257072       7.96916299       0.00000000 NULL
P        4.81515600       3.20835400      13.59889281       0.00000000 NULL
P        5.24896369      11.81820993      10.25230815       0.00000000 NULL
P        5.24896369       2.66271479      11.31574766       0.00000000 NULL
P        2.62231150       2.66271479      10.25230815       0.00000000 NULL
P        2.62231150      11.81820993      11.31574766       0.00000000 NULL
P        2.66440963       7.11386228       6.03919959       0.00000000 NULL
P        2.66440963       7.36706244      15.52885622       0.00000000 NULL
P        0.03775744       7.36706244       6.03919959       0.00000000 NULL
P        0.03775744       7.11386228      15.52885622       0.00000000 NULL
P        2.69534911       7.89774761       2.21379776       0.00000000 NULL
P        2.69534911       6.58317711      19.35425805       0.00000000 NULL
P        0.06869692       6.58317711       2.21379776       0.00000000 NULL
P        0.06869692       7.89774761      19.35425805       0.00000000 NULL
56
Lattice="5.132230752805388 0.0 0.0 0.0 14.691894395798204 0.0 0.0 0.0 21.752025150530194" Properties=species:S:1:pos:R:3:initial_magmoms:R:1:castep_labels:S:1 n_minim_iter=6 pbc="T T T"
P        3.45399968       0.53153132       7.75179777       0.00000000 NULL
P        3.45399968      14.16036307      14.00022738       0.00000000 NULL
P        0.88788430      14.16036307       7.75179777       0.00000000 NULL
P        0.88788430       0.53153132      14.00022738       0.00000000 NULL
P        1.26872225      10.68168017       9.15957722       0.00000000 NULL
P        1.26872225       4.01021423      12.59244793       0.00000000 NULL
P        3.83483763       4.01021423       9.15957722       0.00000000 NULL
P        3.83483763      10.68168017      12.59244793       0.00000000 NULL
P        3.85006976       0.13600543      16.14083803       0.00000000 NULL
P        3.85006976      14.55588897       5.61118712       0.00000000 NULL
P        1.28395439      14.55588897      16.14083803       0.00000000 NULL
P        1.28395439       0.13600543       5.61118712       0.00000000 NULL
P        0.05192063      14.20137845       9.85292072       0.00000000 NULL
P        0.05192063       0.49051595      11.89910443       0.00000000 NULL
P        2.61803600       0.49051595       9.85292072       0.00000000 NULL
P        2.61803600      14.20137845      11.89910443       0.00000000 NULL
P        3.84859179       5.52168062      16.31597494       0.00000000 NULL
P        3.84859179       9.17021377       5.43605021       0.00000000 NULL
P        1.28247641       9.17021377      16.31597494       0.00000000 NULL
P        1.28247641       5.52168062       5.43605021       0.00000000 NULL
P        2.75462218       5.55365497      12.61736815       0.00000000 NULL
P        2.75462218       9.13823943       9.13465700       0.00000000 NULL
P        0.18850681       9.13823943      12.61736815       0.00000000 NULL
P        0.18850681       5.55365497       9.13465700       0.00000000 NULL
P        4.66193696       8.68254967      17.45602378       0.00000000 NULL
P        4.66193696       6.00934473       4.29600137       0.00000000 NULL
P        2.09582159       6.00934473      17.45602378       0.00000000 NULL
P        2.09582159       8.68254967       4.29600137       0.00000000 NULL
P        1.62816416       9.82877142       6.19533455       0.00000000 NULL
P        1.62816416       4.86312297      15.55669060       0.00000000 NULL
P        4.19427954       4.86312297       6.19533455       0.00000000 NULL
P        4.19427954       9.82877142      15.55669060       0.00000000 NULL
P        3.44152733      11.33708510       5.90418687       0.00000000 NULL
P        3.44152733       3.35480929      15.84783828       0.00000000 NULL
P        0.87541195       3.35480929       5.90418687       0.00000000 NULL
P        0.87541195      11.33708510      15.84783828       0.00000000 NULL
P        3.52256524       8.48562297      13.83351116       0.00000000 NULL
P        3.52256524       6.20627143       7.91851399       0.00000000 NULL
P        0.95644987       6.20627143      13.83351116       0.00000000 NULL
P        0.95644987       8.48562297       7.91851399       0.00000000 NULL
P        2.13724026       3.25402007       8.03726111       0.00000000 NULL
P        2.13724026      11.43787433      13.71476404       0.00000000 NULL
P        4.70335564      11.43787433       8.03726111       0.00000000 NULL
P        4.70335564       3.25402007      13.71476404       0.00000000 NULL
P        5.12676310      11.99119072      10.34013285       0.00000000 NULL
P        5.12676310       2.70070368      11.41189230       0.00000000 NULL
P        2.56064773       2.70070368      10.34013285       0.00000000 NULL
P        2.56064773      11.99119072      11.41189230       0.00000000 NULL
P        2.60224774       7.21770385       6.08989671       0.00000000 NULL
P        2.60224774       7.47419055      15.66212844       0.00000000 NULL
P        0.03613237       7.47419055       6.08989671       0.00000000 NULL
P        0.03613237       7.21770385      15.66212844       0.00000000 NULL
P        2.63282148       8.01113065       2.23345951       0.00000000 NULL
P        2.63282148       6.68076374      19.51856564       0.00000000 NULL
P        0.06670610       6.68076374       2.23345951       0.00000000 NULL
P        0.06670610       8.01113065      19.51856564       0.00000000 NULL
56
Lattice="4.923692282831204 0.0 0.0 0.0 15.17520747216315 0.0 0.0 0.0 22.119628687497844" Properties=species:S:1:pos:R:3:initial_magmoms:R:1:castep_labels:S:1 n_minim_iter=7 pbc="T T T"
P        3.31453147       0.54845491       7.87758701       0.00000000 NULL
P        3.31453147      14.62675256      14.24204167       0.00000000 NULL
P        0.85268533      14.62675256       7.87758701       0.00000000 NULL
P        0.85268533       0.54845491      14.24204167       0.00000000 NULL
P        1.21803244      11.03395541       9.31144425       0.00000000 NULL
P        1.21803244       4.14125206      12.80818444       0.00000000 NULL
P        3.67987858       4.14125206       9.31144425       0.00000000 NULL
P        3.67987858      11.03395541      12.80818444       0.00000000 NULL
P        3.69247571       0.14096522      16.41051680       0.00000000 NULL
P        3.69247571      15.03424225       5.70911189       0.00000000 NULL
P        1.23062957      15.03424225      16.41051680       0.00000000 NULL
P        1.23062957       0.14096522       5.70911189       0.00000000 NULL
P        0.05010280      14.66999759      10.01793292       0.00000000 NULL
P        0.05010280       0.50520988      12.10169577       0.00000000 NULL
P        2.51194894       0.50520988      10.01793292       0.00000000 NULL
P        2.51194894      14.66999759      12.10169577       0.00000000 NULL
P        3.69451509       5.69510869      16.59197401       0.00000000 NULL
P        3.69451509       9.48009878       5.52765468       0.00000000 NULL
P        1.23266895       9.48009878      16.59197401       0.00000000 NULL
P        1.23266895       5.69510869       5.52765468       0.00000000 NULL
P        2.64594079       5.73918993      12.83029650       0.00000000 NULL
P        2.64594079       9.43601754       9.28933218       0.00000000 NULL
P        0.18409465       9.43601754      12.83029650       0.00000000 NULL
P        0.18409465       5.73918993       9.28933218       0.00000000 NULL
P        4.47212059       8.96166096      17.75829628       0.00000000 NULL
P        4.47212059       6.21354652       4.36133241       0.00000000 NULL
P        2.01027445       6.21354652      17.75829628       0.00000000 NULL
P        2.01027445       8.96166096       4.36133241       0.00000000 NULL
P        1.56176834      10.16011615       6.30250278       0.00000000 NULL
P        1.56176834       5.01509133      15.81712590       0.00000000 NULL
P        4.02361448       5.01509133       6.30250278       0.00000000 NULL
P        4.02361448      10.16011615      15.81712590       0.00000000 NULL
P        3.30199884      11.71019260       6.00709786       0.00000000 NULL
P        3.30199884       3.46501488      16.11253083       0.00000000 NULL
P        0.84015270       3.46501488       6.00709786       0.00000000 NULL
P        0.84015270      11.71019260      16.11253083       0.00000000 NULL
P        3.38206239       8.76655458      14.06526203       0.00000000 NULL
P        3.38206239       6.40865289       8.05436666       0.00000000 NULL
P        0.92021624       6.40865289      14.06526203       0.00000000 NULL
P        0.92021624       8.76655458       8.05436666       0.00000000 NULL
P        2.04774377       3.35781176       8.17300559       0.00000000 NULL