48
Lattice="9.864622285593422 3.1519795443460974 -4.666863997405273e-15 -0.7290176222619127 10.33026046098714 5.2635573643950174e-15 -4.567802331665748 -6.741120002666622 9.444390837579308" Properties=species:S:1:pos:R:3:initial_magmoms:R:1:castep_labels:S:1:forces:R:3 n_minim_iter=1 energy=-255.336533366266 stress="0.00032731645799996404 -0.00023544795878297425 0.0 -0.00023544795878297425 0.0001393625115320224 -0.0 0.0 -0.0 -0.00036399882523515184" free_energy=-255.336533366266 pbc="T T T"
P        1.24483467       9.79144784       2.68702976       0.00000000 NULL      -0.00998200       0.01289800       0.01798700
P       -1.97385138       0.53881395       2.68702976       0.00000000 NULL       0.00998300      -0.01289700       0.01798800
P       -4.06474977       1.95561273       6.75736107       0.00000000 NULL      -0.01568100       0.00449300      -0.01798900
P        3.33573306       8.37464907       6.75736107       0.00000000 NULL       0.01567900      -0.00449000      -0.01798800
P       -1.35857054       5.71622534       6.31054135       0.00000000 NULL      -0.02295500       0.00144500       0.03215600
P        0.62955383       4.61403645       6.31054135       0.00000000 NULL       0.02295500      -0.00144600       0.03215600
P       -1.24481061       5.88411119       3.13384949       0.00000000 NULL      -0.00985100       0.02078300      -0.03215700
P        0.51579389       4.44615060       3.13384949       0.00000000 NULL       0.00985200      -0.02078400      -0.03215700
P        7.30248339       6.14993447       2.76430523       0.00000000 NULL      -0.03501600      -0.01500900      -0.01098000
P        1.83312218       7.33230686       2.76430523       0.00000000 NULL       0.03501600       0.01500900      -0.01098100
P        1.56272504      -2.32074728       6.68008560       0.00000000 NULL       0.00096100       0.03808700       0.01098200
P       -1.56272413       2.32074861       6.68008560       0.00000000 NULL      -0.00096100      -0.03808600       0.01098100
P        6.64957227       8.11675893       1.62509788       0.00000000 NULL       0.02011300      -0.01161200       0.00427400
P        2.48603330       5.36548240       1.62509788       0.00000000 NULL      -0.02011300       0.01161100       0.00427400
P       -0.50600718      -2.44337837       7.81929295       0.00000000 NULL       0.01824000      -0.01437600      -0.00427400
P        0.50600809       2.44337970       7.81929295       0.00000000 NULL      -0.01824000       0.01437600      -0.00427400
P        1.71079144       2.44121065       5.94809279       0.00000000 NULL      -0.00874100       0.01862600       0.01622600
P       -1.71079053      -2.44120932       5.94809279       0.00000000 NULL       0.00874300      -0.01862600       0.01622500
P        2.93461895       4.24732386       3.49629805       0.00000000 NULL      -0.02053900       0.00121400      -0.01622600
P        6.20098662       9.23491748       3.49629805       0.00000000 NULL       0.02053700      -0.00121200      -0.01622700
P        6.18087484       1.40341358       0.59828661       0.00000000 NULL       0.00525500      -0.02475000      -0.00111100
P        3.68374836       1.74856729       0.59828661       0.00000000 NULL      -0.00525700       0.02474900      -0.00111200
P        5.55539401       0.48033481       8.84610422       0.00000000 NULL       0.02493200       0.00428800       0.00111100
P        4.30922919       2.67164606       8.84610422       0.00000000 NULL      -0.02493200      -0.00428800       0.00111100
P        6.96415359       3.45183835       0.62893612       0.00000000 NULL       0.00349500       0.00915500      -0.01679000
P        2.90046960      -0.29985748       0.62893612       0.00000000 NULL      -0.00349700      -0.00915400      -0.01679100
P        3.94321957      -1.00642786       8.81545471       0.00000000 NULL      -0.00720300      -0.00663600       0.01679100
P        5.92140363       4.15840873       8.81545471       0.00000000 NULL       0.00720600       0.00663400       0.01679000
P        1.45885524      -0.15074329       5.96352513       0.00000000 NULL       0.02865200      -0.02792600      -0.03715200
P       -1.45885433       0.15074462       5.96352513       0.00000000 NULL      -0.02864900       0.02792600      -0.03715200
P        5.24855526       5.44206059       3.48086570       0.00000000 NULL       0.03655700      -0.01625900       0.03715200
P        3.88705032       8.04018075       3.48086570       0.00000000 NULL      -0.03655700       0.01625700       0.03715200
P        2.67097200       5.53262686       8.75341517       0.00000000 NULL       0.00132900       0.01774200      -0.00682400
P       -2.67097109      -5.53262553       8.75341517       0.00000000 NULL      -0.00132500      -0.01774300      -0.00682300
P        0.41932022       2.20966020       0.69097567       0.00000000 NULL      -0.01598800      -0.00781000       0.00682400
P        8.71628535      11.27258113       0.69097567       0.00000000 NULL       0.01598400       0.00781100       0.00682400
P        3.68880774       0.03567821       5.83229246       0.00000000 NULL      -0.03970400       0.00720300       0.04550600
P        6.17581545       3.11630267       5.83229246       0.00000000 NULL       0.03970300      -0.00720400       0.04550600
P        5.90197871       3.30185523       3.61209838       0.00000000 NULL      -0.02140800       0.03420500      -0.04550600
P        3.96264449      -0.14987436       3.61209838       0.00000000 NULL       0.02140700      -0.03420300      -0.04550500
P       -0.54839742       7.27620315       4.90678203       0.00000000 NULL       0.01380200      -0.00146800       0.01114900
P       -0.18061929       3.05405864       4.90678203       0.00000000 NULL      -0.01380300       0.00146800       0.01114900
P       -2.39336302       4.55342016       4.53760880       0.00000000 NULL       0.00648100      -0.01227900      -0.01114800
P        1.66434631       5.77684163       4.53760880       0.00000000 NULL      -0.00648000       0.01227600      -0.01114900
P        1.04528975       0.34241173       8.15358439       0.00000000 NULL       0.03480900      -0.00951300       0.02077900
P       -1.04528884      -0.34241040       8.15358439       0.00000000 NULL      -0.03480900       0.00951400       0.02077900
P        4.63723506       5.64337105       1.29080645       0.00000000 NULL       0.02173800      -0.02880300      -0.02077900
P        4.49837051       7.83887028       1.29080645       0.00000000 NULL      -0.02173800       0.02880300      -0.02077900
48
Lattice="9.859675765749339 3.1557262042418817 -4.4435881615616516e-15 -0.7237043475315379 10.327055054525834 5.3206814574017604e-15 -4.567985709108894 -6.741390629383861 9.451235313899346" Properties=species:S:1:pos:R:3:initial_magmoms:R:1:castep_labels:S:1:forces:R:3 n_minim_iter=2 energy=-255.3369662825 stress="-0.00010086155389861771 -8.842155571523318e-06 -0.0 -8.842155571523318e-06 -0.00010792511495862772 -1.0163397208647492e-08 -0.0 -1.0163397208647492e-08 9.218201268243275e-06" free_energy=-255.3369662825 pbc="T T T"
P        1.24859023       9.78934241       2.68901349       0.00000000 NULL      -0.01715700       0.01697300       0.01018100
P       -1.97229366       0.53771397       2.68901349       0.00000000 NULL       0.01715600      -0.01697200       0.01018100
P       -4.06121890       1.95317573       6.76222182       0.00000000 NULL      -0.02212100       0.00964200      -0.01018000
P        3.33751546       8.37388066       6.76222182       0.00000000 NULL       0.02212200      -0.00964300      -0.01018000
P       -1.35505493       5.71400714       6.31517976       0.00000000 NULL      -0.03670700       0.00299500       0.02080800
P        0.63135149       4.61304924       6.31517976       0.00000000 NULL       0.03670700      -0.00299500       0.02080800
P       -1.24126393       5.88193884       3.13605555       0.00000000 NULL      -0.01638800       0.03298200      -0.02080800
P        0.51756049       4.44511754       3.13605555       0.00000000 NULL       0.01638700      -0.03298200      -0.02080800
P        7.30053852       6.15161952       2.76628634       0.00000000 NULL      -0.02844000      -0.01615100      -0.00748500
P        1.83543381       7.33116307       2.76628634       0.00000000 NULL       0.02844000       0.01615100      -0.00748400
P        1.56062250      -2.31929491       6.68494897       0.00000000 NULL       0.00445800       0.03240100       0.00748400
P       -1.56062159       2.31929624       6.68494897       0.00000000 NULL      -0.00445900      -0.03240100       0.00748400
P        6.64908518       8.11759981       1.62628426       0.00000000 NULL       0.02727800      -0.00940900       0.00970100
P        2.48688715       5.36518278       1.62628426       0.00000000 NULL      -0.02727800       0.00940900       0.00970000
P       -0.50678533      -2.44296703       7.82495105       0.00000000 NULL       0.01885000      -0.02184700      -0.00970000
P        0.50678624       2.44296836       7.82495105       0.00000000 NULL      -0.01885000       0.02184700      -0.00970000
P        1.71080333       2.44137282       5.95243629       0.00000000 NULL       0.00224000       0.01243600       0.02335900
P       -1.71080242      -2.44137149       5.95243629       0.00000000 NULL      -0.00224200      -0.01243500       0.02336000
P        2.93465611       4.24752333       3.49879902       0.00000000 NULL      -0.01072000      -0.00669000      -0.02335900
P        6.20131621       9.23525926       3.49879902       0.00000000 NULL       0.01072200       0.00668800      -0.02335800
P        6.17751840       1.40586954       0.59871795       0.00000000 NULL       0.00555400      -0.02562000       0.00077000
P        3.68215827       1.74985799       0.59871795       0.00000000 NULL      -0.00555100       0.02562200       0.00077300
P        5.55205225       0.48281244       8.85251736       0.00000000 NULL       0.02585300       0.00433900      -0.00077000
P        4.30762442       2.67291509       8.85251736       0.00000000 NULL      -0.02585300      -0.00434100      -0.00077200
P        6.96124310       3.45416183       0.62935794       0.00000000 NULL       0.00001600       0.01306500      -0.00843000
P        2.89843358      -0.29843430       0.62935794       0.00000000 NULL      -0.00001600      -0.01306400      -0.00843100
P        3.94016616      -1.00431529       8.82187737       0.00000000 NULL      -0.01212600      -0.00485800       0.00843100
P        5.91951052       4.16004282       8.82187737       0.00000000 NULL       0.01212400       0.00486000       0.00843100
P        1.45789265      -0.15007462       5.96777179       0.00000000 NULL       0.01745800      -0.02448200      -0.02871500
P       -1.45789174       0.15007595       5.96777179       0.00000000 NULL      -0.01746000       0.02448200      -0.02871500
P        5.24776079       5.44297738       3.48346352       0.00000000 NULL       0.02920900      -0.00714000       0.02871500
P        3.88821154       8.03980521       3.48346352       0.00000000 NULL      -0.02920800       0.00713800       0.02871500
P        2.67182706       5.53237994       8.75974507       0.00000000 NULL      -0.00043500       0.01901600      -0.01039600
P       -2.67182615      -5.53237861       8.75974507       0.00000000 NULL       0.00043300      -0.01901800      -0.01039700
P        0.42004987       2.20922820       0.69149024       0.00000000 NULL      -0.01782500      -0.00664300       0.01039500
P        8.71592246      11.27355439       0.69149024       0.00000000 NULL       0.01782700       0.00664500       0.01039500
P        3.68634243       0.03741065       5.83661130       0.00000000 NULL      -0.03176200       0.00859100       0.03715300
P        6.17333425       3.11831688       5.83661130       0.00000000 NULL       0.03176300      -0.00859100       0.03715200
P        5.89963924       3.30377341       3.61462402       0.00000000 NULL      -0.01975200       0.02631500      -0.03715200
P        3.96003743      -0.14804587       3.61462402       0.00000000 NULL       0.01975100      -0.02631400      -0.03715300
P       -0.54460435       7.27392609       4.91036061       0.00000000 NULL       0.01782700      -0.00313900       0.01096600
P       -0.17909909       3.05313029       4.91036061       0.00000000 NULL      -0.01782600       0.00313900       0.01096700
P       -2.38965883       4.55101194       4.54087471       0.00000000 NULL       0.00952200      -0.01539100      -0.01096800
P        1.66595539       5.77604445       4.54087471       0.00000000 NULL      -0.00952200       0.01539200      -0.01096700
P        1.04483989       0.34278720       8.15953546       0.00000000 NULL       0.04424700      -0.01735600       0.01737700
P       -1.04483898      -0.34278587       8.15953546       0.00000000 NULL      -0.04424800       0.01735500       0.01737700
P        4.63690296       5.64392033       1.29169986       0.00000000 NULL       0.03252000      -0.03466200      -0.01737700
P        4.49906937       7.83886226       1.29169986       0.00000000 NULL      -0.03252000       0.03466300      -0.01737700
48
Lattice="9.862049436137308 3.1585851266950566 -4.3957918602712325e-15 -0.7219289125485888 10.330319343012677 5.3371818763392674e-15 -4.570060261794353 -6.744452234853868 9.453094963659757" Properties=species:S:1:pos:R:3:initial_magmoms:R:1:castep_labels:S:1:forces:R:3 n_minim_iter=3 energy=-255.337123490476 stress="0.0002150171529204211 7.307394148894384e-05 -0.0 7.307394148894384e-05 0.0002733442753625343 -0.0 -0.0 -0.0 0.0003141417768164728" free_energy=-255.337123490476 pbc="T T T"
P        1.25055078       9.79286904       2.68959441       0.00000000 NULL      -0.01021500       0.01696000       0.00746300
P       -1.97247879       0.53745163       2.68959441       0.00000000 NULL       0.01021500      -0.01696000       0.00746300
P       -4.06169304       1.95310923       6.76350055       0.00000000 NULL      -0.01953900       0.00320100      -0.00746300
P        3.33976504       8.37721144       6.76350055       0.00000000 NULL       0.01953800      -0.00320100      -0.00746300
P       -1.35440517       5.71564957       6.31652527       0.00000000 NULL      -0.03403500       0.00752000       0.01548100
P        0.63247717       4.61467110       6.31652527       0.00000000 NULL       0.03403500      -0.00752100       0.01548100
P       -1.24047396       5.88378818       3.13656969       0.00000000 NULL      -0.01959900       0.02882300      -0.01548100
P        0.51854596       4.44653249       3.13656969       0.00000000 NULL       0.01960100      -0.02882300      -0.01548100
P        7.30286592       6.15491820       2.76679400       0.00000000 NULL      -0.03156400      -0.01609400      -0.00440300
P        1.83725551       7.33398760       2.76679400       0.00000000 NULL       0.03156400       0.01609300      -0.00440200
P        1.56049604      -2.31961762       6.68630096       0.00000000 NULL       0.00324800       0.03528100       0.00440300
P       -1.56049513       2.31961895       6.68630096       0.00000000 NULL      -0.00324700      -0.03528100       0.00440300
P        6.65191212       8.12145407       1.62664527       0.00000000 NULL       0.02051100      -0.01149200       0.01290500
P        2.48820932       5.36745173       1.62664527       0.00000000 NULL      -0.02051200       0.01149100       0.01290600
P       -0.50724264      -2.44395963       7.82644969       0.00000000 NULL       0.01827600      -0.01479100      -0.01290500
P        0.50724355       2.44396096       7.82644969       0.00000000 NULL      -0.01827500       0.01479100      -0.01290600
P        1.71156809       2.44255304       5.95371014       0.00000000 NULL      -0.00229500       0.01297200       0.02503700
P       -1.71156718      -2.44255171       5.95371014       0.00000000 NULL       0.00229500      -0.01297200       0.02503600
P        2.93591799       4.24943718       3.49938482       0.00000000 NULL      -0.01289900      -0.00267700      -0.02503700
P        6.20420344       9.23946862       3.49938482       0.00000000 NULL       0.01289700       0.00267700      -0.02503700
P        6.17892523       1.40735594       0.59883808       0.00000000 NULL       0.01101600      -0.01405800      -0.00153900
P        3.68312512       1.75123051       0.59883808       0.00000000 NULL      -0.01101800       0.01405700      -0.00154100
P        5.55326775       0.48401648       8.85425689       0.00000000 NULL       0.01714100      -0.00502000       0.00153900
P        4.30878260       2.67456998       8.85425689       0.00000000 NULL      -0.01714000       0.00502200       0.00154100
P        6.96314778       3.45664110       0.62943763       0.00000000 NULL      -0.00013800       0.00305700      -0.00651100
P        2.89890257      -0.29805464       0.62943763       0.00000000 NULL       0.00013900      -0.00305700      -0.00651100
P        3.94064405      -1.00394167       8.82365733       0.00000000 NULL      -0.00289100      -0.00100500       0.00651100
P        5.92140630       4.16252813       8.82365733       0.00000000 NULL       0.00289300       0.00100400       0.00651100
P        1.45821685      -0.14996917       5.96880869       0.00000000 NULL       0.01678600      -0.02527300      -0.02350100
P       -1.45821594       0.14997050       5.96880869       0.00000000 NULL      -0.01678300       0.02527300      -0.02350100
P        5.24985758       5.44569879       3.48428628       0.00000000 NULL       0.02969400      -0.00622300       0.02350100
P        3.89026385       8.04320701       3.48428628       0.00000000 NULL      -0.02969500       0.00622000       0.02350100
P        2.67333318       5.53477997       8.76142325       0.00000000 NULL      -0.00248600       0.01847100      -0.00377700
P       -2.67333227      -5.53477864       8.76142325       0.00000000 NULL       0.00248900      -0.01847000      -0.00377600
P        0.42045362       2.21000136       0.69167172       0.00000000 NULL      -0.01807800      -0.00453700       0.00377700
P        8.71966781      11.27890444       0.69167172       0.00000000 NULL       0.01807600       0.00453600       0.00377700
P        3.68686836       0.03814197       5.83793575       0.00000000 NULL      -0.03232500       0.00211800       0.03447400
P        6.17518199       3.12044449       5.83793575       0.00000000 NULL       0.03232200      -0.00211800       0.03447300
P        5.90122951       3.30607548       3.61515921       0.00000000 NULL      -0.01394900       0.02923800      -0.03447400
P        3.96082083      -0.14748902       3.61515921       0.00000000 NULL       0.01394800      -0.02923500      -0.03447300
P       -0.54328112       7.27620566       4.91137726       0.00000000 NULL       0.01465800      -0.00837200       0.01505700
P       -0.17864688       3.05411502       4.91137726       0.00000000 NULL      -0.01465800       0.00837200       0.01505700
P       -2.38921098       4.55199962       4.54171770       0.00000000 NULL       0.01321000      -0.01051100      -0.01505600
P        1.66728298       5.77832106       4.54171770       0.00000000 NULL      -0.01320900       0.01051100      -0.01505700
P        1.04528943       0.34301866       8.16122295       0.00000000 NULL       0.03303900      -0.01469400       0.01220800
P       -1.04528852      -0.34301733       8.16122295       0.00000000 NULL      -0.03303900       0.01469500       0.01220900
P        4.63892918       5.64647862       1.29187201       0.00000000 NULL       0.02589400      -0.02523900      -0.01220800
P        4.50119226       7.84242718       1.29187201       0.00000000 NULL      -0.02589400       0.02523900      -0.01220800
48
Lattice="9.86093330954438 3.1657344767305142 -4.408448168912006e-15 -0.7148751258571736 10.331932736273153 5.313992609963711e-15 -4.573029091843597 -6.748833606501834 9.442868267650185" Properties=species:S:1:pos:R:3:initial_magmoms:R:1:castep_labels:S:1:forces:R:3 n_minim_iter=4 energy=-255.338169781439 stress="-7.966987622121749e-05 0.0003749212515829623 0.0 0.0003749212515829623 0.00021963871427929774 -1.0168458994411933e-08 0.0 -1.0168458994411933e-08 -0.00041584929903547036" free_energy=-255.338169781439 pbc="T T T"
P        1.25603570       9.79630916       2.68708795       0.00000000 NULL      -0.01702400       0.02211200       0.00748300
P       -1.97090992       0.53562491       2.68708795       0.00000000 NULL       0.01702400      -0.02211300       0.00748300
P       -4.05988622       1.95112126       6.75578031       0.00000000 NULL      -0.02684700       0.00761400      -0.00748200
P        3.34501200       8.38081281       6.75578031       0.00000000 NULL       0.02684700      -0.00761500      -0.00748300
P       -1.35152136       5.71605230       6.31049835       0.00000000 NULL      -0.02885900       0.01369300       0.02121200
P        0.63664714       4.61588177       6.31049835       0.00000000 NULL       0.02886000      -0.01369200       0.02121200
P       -1.23681024       5.88534189       3.13236992       0.00000000 NULL      -0.02341300       0.02173000      -0.02121200
P        0.52193603       4.44659218       3.13236992       0.00000000 NULL       0.02341500      -0.02172900      -0.02121200
P        7.30341569       6.16036748       2.76352201       0.00000000 NULL      -0.01430500      -0.01822100      -0.00285900
P        1.84264340       7.33730106       2.76352201       0.00000000 NULL       0.01430400       0.01822000      -0.00285800
P        1.55860754      -2.31776671       6.67934625       0.00000000 NULL       0.01162000       0.02003800       0.00285700
P       -1.55860663       2.31776804       6.67934625       0.00000000 NULL      -0.01162000      -0.02003800       0.00285800
P        6.65607787       8.12710371       1.62525963       0.00000000 NULL       0.00079600      -0.01925400      -0.01754100
P        2.48998123       5.37056483       1.62525963       0.00000000 NULL      -0.00079700       0.01925400      -0.01754000
P       -0.50797691      -2.44554139       7.81760864       0.00000000 NULL       0.01817700       0.00639700       0.01754000
P        0.50797782       2.44554272       7.81760864       0.00000000 NULL      -0.01817700      -0.00639700       0.01754000
P        1.71263113       2.44468469       5.94814917       0.00000000 NULL       0.01655600       0.01479200       0.00709200
P       -1.71263021      -2.44468336       5.94814917       0.00000000 NULL      -0.01655600      -0.01479200       0.00709300
P        2.93730105       4.25204112       3.49471910       0.00000000 NULL      -0.00760200      -0.02085900      -0.00709200
P        6.20875805       9.24562743       3.49471910       0.00000000 NULL       0.00760200       0.02085800      -0.00709200
P        6.17810011       1.41082793       0.59819437       0.00000000 NULL       0.01582900       0.00456700      -0.00086900
P        3.68283411       1.75490788       0.59819437       0.00000000 NULL      -0.01582900      -0.00456700      -0.00086800
P        5.55270607       0.48787725       8.84467390       0.00000000 NULL       0.00163100      -0.01639100       0.00087000
P        4.30822815       2.67785856       8.84467390       0.00000000 NULL      -0.00163100       0.01638800       0.00086800
P        6.96318421       3.46234617       0.62841226       0.00000000 NULL      -0.01276700      -0.00519600      -0.00881800
P        2.89775001      -0.29661036       0.62841226       0.00000000 NULL       0.01276500       0.00519800      -0.00882000
P        3.93832771      -1.00170880       8.81445600       0.00000000 NULL       0.00008900       0.01377800       0.00881800
P        5.92260651       4.16744461       8.81445600       0.00000000 NULL      -0.00008800      -0.01377800       0.00881700
P        1.45835411      -0.14999610       5.96125258       0.00000000 NULL      -0.00601700      -0.01794900      -0.02384200
P       -1.45835320       0.14999743       5.96125258       0.00000000 NULL       0.00602000       0.01794900      -0.02384200
P        5.25290230       5.44996266       3.48161569       0.00000000 NULL       0.01444000       0.01224200       0.02384200
P        3.89315679       8.04770588       3.48161569       0.00000000 NULL      -0.01444100      -0.01224100       0.02384200
P        2.67609557       5.53838509       8.75161086       0.00000000 NULL      -0.00062700       0.01367600      -0.01867400
P       -2.67609466      -5.53838375       8.75161086       0.00000000 NULL       0.00063000      -0.01367900      -0.01867300
P        0.42109806       2.21048083       0.69125741       0.00000000 NULL      -0.01293600      -0.00448400       0.01867400
P        8.72496103      11.28718772       0.69125741       0.00000000 NULL       0.01293400       0.00448800       0.01867500
P        3.68444187       0.04085615       5.83306191       0.00000000 NULL      -0.01312900       0.00333400       0.02042000
P        6.17649235       3.12487966       5.83306191       0.00000000 NULL       0.01312600      -0.00333500       0.02041900
P        5.90077809       3.31170444       3.60980636       0.00000000 NULL      -0.00796300       0.01095800      -0.02042000
P        3.96015613      -0.14596863       3.60980636       0.00000000 NULL       0.00796300      -0.01095900      -0.02042000
P       -0.53765926       7.27716700       4.90651705       0.00000000 NULL       0.01113400      -0.01518500       0.00432600
P       -0.17721495       3.05476707       4.90651705       0.00000000 NULL      -0.01113400       0.01518600       0.00432500
P       -2.38505119       4.55080326       4.53635121       0.00000000 NULL       0.01823100      -0.00471000      -0.00432500
P        1.67017697       5.78113081       4.53635121       0.00000000 NULL      -0.01823100       0.00471200      -0.00432600
P        1.04674719       0.34316777       8.15303634       0.00000000 NULL      -0.00085300      -0.01034100       0.00952000
P       -1.04674627      -0.34316644       8.15303634       0.00000000 NULL       0.00085300       0.01034000       0.00952100
P        4.64229986       5.64945081       1.28983192       0.00000000 NULL       0.00928800       0.00462500      -0.00952000
P        4.50375924       7.84821774       1.28983192       0.00000000 NULL      -0.00928800      -0.00462500      -0.00952000
48
Lattice="9.858434728394583 3.1566234048736908 -4.426031026495095e-15 -0.722411048344994 10.326234981417079 5.2859495820936904e-15 -4.568011840024785 -6.741429193145385 9.446907808863974" Properties=species:S:1:pos:R:3:initial_magmoms:R:1:castep_labels:S:1:forces:R:3 n_minim_iter=5 energy=-255.339090844622 stress="-1.118747243111572e-06 -1.8805124113757243e-05 -0.0 -1.8805124113757243e-05 -1.61303011597723e-05 0.0 -0.0 0.0 -4.505500260894785e-06" free_energy=-255.339090844622 pbc="T T T"
P        1.24828649       9.79013219       2.68862013       0.00000000 NULL      -0.00743900       0.01625100      -0.00076200
P       -1.97069663       0.53610412       2.68862013       0.00000000 NULL       0.00743800      -0.01625100      -0.00076200
P       -4.06203887       1.95320365       6.75828768       0.00000000 NULL      -0.01784900       0.00088300       0.00076300
P        3.33962873       8.37303267       6.75828768       0.00000000 NULL       0.01785000      -0.00088500       0.00076200
P       -1.35695063       5.71377215       6.31398547       0.00000000 NULL      -0.01395000       0.00555700       0.01432500
P        0.63454049       4.61246416       6.31398547       0.00000000 NULL       0.01395100      -0.00555600       0.01432400
P       -1.24172222       5.88382517       3.13292234       0.00000000 NULL      -0.01033200       0.01089700      -0.01432400
P        0.51931208       4.44241114       3.13292234       0.00000000 NULL       0.01033100      -0.01089700      -0.01432500
P        7.29771567       6.15071319       2.76444780       0.00000000 NULL       0.00506800      -0.01066600      -0.00441500
P        1.83830892       7.33214653       2.76444780       0.00000000 NULL      -0.00506800       0.01066600      -0.00441500
P        1.56044408      -2.31629863       6.68246000       0.00000000 NULL       0.01178400      -0.00075400       0.00441400
P       -1.56044317       2.31629996       6.68246000       0.00000000 NULL      -0.01178400       0.00075400       0.00441400
P        6.65087006       8.11693892       1.62622523       0.00000000 NULL      -0.01362400      -0.01263600      -0.01728300
P        2.48515453       5.36592079       1.62622523       0.00000000 NULL       0.01362400       0.01263700      -0.01728300
P       -0.50548380      -2.44434123       7.82068258       0.00000000 NULL       0.00668700       0.01733700       0.01728300
P        0.50548471       2.44434256       7.82068258       0.00000000 NULL      -0.00668700      -0.01733700       0.01728300
P        1.71087610       2.44246235       5.95149847       0.00000000 NULL       0.00741400       0.02565700       0.00267800
P       -1.71087519      -2.44246102       5.95149847       0.00000000 NULL      -0.00741400      -0.02565700       0.00267800
P        2.93369730       4.24709046       3.49540933       0.00000000 NULL      -0.02108100      -0.01639600      -0.00267700
P        6.20232729       9.23576926       3.49540933       0.00000000 NULL       0.02108400       0.01639300      -0.00267600
P        6.17723235       1.40469254       0.59845076       0.00000000 NULL       0.00741500      -0.00253400      -0.00320500
P        3.68120329       1.75193220       0.59845076       0.00000000 NULL      -0.00741500       0.00253400      -0.00320400
P        5.55306552       0.48355296       8.84845705       0.00000000 NULL       0.00510100      -0.00594600       0.00320500
P        4.30537012       2.67307178       8.84845705       0.00000000 NULL      -0.00510100       0.00594800       0.00320500