45
Lattice="5.73040939867961 1.2123880020881956e-15 9.608928576995759e-27 -2.8652046993398064 4.962680113341651 1.9218475718545433e-26 -5.0421600654664304e-26 -1.4555837152432385e-25 30.069576641425595" Properties=species:S:1:pos:R:3:initial_magmoms:R:1:castep_labels:S:1:forces:R:3 n_minim_iter=1 energy=-238.68843314468 stress="0.004223713798238954 -2.338841463114765e-08 -0.0 -2.338841463114765e-08 0.00422372549244627 -0.0 -0.0 -0.0 0.00570837527640226" free_energy=-238.68843314468 pbc="T T T"
P        1.52072707       4.26354765      22.73684211       0.00000000 NULL      -0.15949500       0.32344800      -0.26500600
P       -1.58749942       4.14789457       2.69045768       0.00000000 NULL      -0.20036700      -0.29985000      -0.26500700
P        0.06677234       1.51391801      12.71364989       0.00000000 NULL       0.35986200      -0.02359700      -0.26500600
P        0.05350826       4.21713184      13.54977766       0.00000000 NULL       0.24272800       0.43783400       0.12137100
P       -0.81369273       2.90045371      23.57296987       0.00000000 NULL      -0.50053900      -0.00870800       0.12137100
P        0.76018447       2.80777468       3.52658544       0.00000000 NULL       0.25781200      -0.42912700       0.12137000
P        5.34403835       0.11138328      11.00742260       0.00000000 NULL       0.38314100       0.26303400       0.13101000
P        2.96192947       4.57238133      21.03061482       0.00000000 NULL      -0.41936600       0.20029400       0.13101000
P        0.28964627       0.27891550       0.98423039       0.00000000 NULL       0.03622500      -0.46332800       0.13101000
P        2.32746011       1.47792374      14.49401783       0.00000000 NULL       0.02761400      -0.28603200       0.01700900
P        3.28675984       1.27667771      24.51721004       0.00000000 NULL       0.23390400       0.16692900       0.01700800
P        2.98139415       2.20807866       4.47082561       0.00000000 NULL      -0.26151700       0.11910200       0.01700900
P        2.30239503       4.54205815      14.24254793       0.00000000 NULL      -0.31647700       0.12972400      -0.19007800
P       -2.21953056       4.68558363      24.26574015       0.00000000 NULL       0.04589400      -0.33893800      -0.19007900
P       -0.08286447       0.69771846       4.21935572       0.00000000 NULL       0.27058300       0.20921500      -0.19007800
P       -0.73385899       3.79787191      10.27684286       0.00000000 NULL       0.17541600       0.09771900      -0.21898800
P       -0.05691936       2.42820363      20.30003508       0.00000000 NULL      -0.17233300       0.10305600      -0.21898800
P        0.79077835       3.69928469      30.32322729       0.00000000 NULL      -0.00308000      -0.20077700      -0.21899000
P        1.58978588       2.04458140       1.52589675       0.00000000 NULL       0.12201900       0.31555400       0.20951500
P        3.16485703       0.35450427      11.54908897       0.00000000 NULL      -0.33428600      -0.05210400       0.20951500
P        3.84097119       2.56359445      21.57228118       0.00000000 NULL       0.21226600      -0.26344900       0.20951500
P        4.42720775       1.75714705      18.58195873       0.00000000 NULL       0.20466800       0.14801500       0.21850600
P        1.99507154       2.95550086      28.60515094       0.00000000 NULL      -0.23052200       0.10324100       0.21850800
P        2.17333481       0.25003221       8.55876651       0.00000000 NULL       0.02585000      -0.25125600       0.21850700
P        2.89584109       3.16736688      25.75515047       0.00000000 NULL       0.26643600       0.26250400      -0.12011200
P        1.53946868       0.92418851       5.70876605       0.00000000 NULL      -0.36055400       0.09948900      -0.12011300
P        4.16030434       0.87112473      15.73195826       0.00000000 NULL       0.09411600      -0.36199500      -0.12011300
P        1.95147215       2.33238707      11.80052432       0.00000000 NULL      -0.12506900      -0.12941400      -0.25207900
P        2.73476687       0.52383092      21.82371653       0.00000000 NULL       0.17461200      -0.04360600      -0.25207900
P        3.90937508       2.10646213       1.77733211       0.00000000 NULL      -0.04954200       0.17302000      -0.25208000
P        4.97430417       0.61119063       6.46988584       0.00000000 NULL      -0.09241400       0.12266500      -0.07983300
P        2.71395070       4.00227846      16.49307805       0.00000000 NULL      -0.06002500      -0.14136500      -0.07983300
P        0.90735923       0.34921102      26.51627026       0.00000000 NULL       0.15243800       0.01870000      -0.07983300
P        0.16026891       1.15474667       8.98974894       0.00000000 NULL       0.06624800      -0.52337100      -0.12414600
P        1.78503030       4.52410373      19.01294116       0.00000000 NULL       0.42012800       0.31905700      -0.12414600
P       -1.94529921       4.24650983      29.03613337       0.00000000 NULL      -0.48637500       0.20431500      -0.12414500
P        4.77107684       2.39389734      29.73830242       0.00000000 NULL       0.00377100       0.09560900       0.29865600
P        1.27169507       2.93492508       9.69191799       0.00000000 NULL      -0.08468500      -0.04453900       0.29865400
P        2.55284218      -0.36614230      19.71511021       0.00000000 NULL       0.08091500      -0.05107000       0.29865400
P       -0.48815006       2.59958693      16.59517314       0.00000000 NULL      -0.02892600       0.13473000       0.06997200
P        0.85797141       3.24013630      26.61836536       0.00000000 NULL      -0.10221500      -0.09241700       0.06997200
P       -0.36982135       4.08563701       6.57198093       0.00000000 NULL       0.13114300      -0.04231200       0.06997200
P        1.70570992       1.95274917      16.58491365       0.00000000 NULL      -0.20571200       0.07005200       0.18420600
P        3.18642406       0.50081354      26.60810586       0.00000000 NULL       0.04219000      -0.21317800       0.18420600
P        3.70348012       2.50911741       6.56172143       0.00000000 NULL       0.16352100       0.14312600       0.18420600
45
Lattice="5.711389087978524 2.7051473914453354e-15 1.154956416174306e-23 -2.855694543989264 4.946208041086635 2.309912893999699e-23 5.987545358899886e-23 1.7284554250613063e-22 29.93476633395925" Properties=species:S:1:pos:R:3:initial_magmoms:R:1:castep_labels:S:1:forces:R:3 n_minim_iter=2 energy=-238.714223607737 stress="-0.000770982090409547 -2.3650482849460016e-08 0.0 -2.3650482849460016e-08 -0.000770982090409547 -0.0 0.0 -0.0 -0.00026863400944559157" free_energy=-238.714223607737 pbc="T T T"
P        1.51553316       4.24969288      22.63466365       0.00000000 NULL      -0.17056800       0.28081400      -0.20451800
P       -1.58241403       4.13385182       2.67815276       0.00000000 NULL      -0.15790800      -0.28812100      -0.20451800
P        0.06688087       1.50887138      12.65640820       0.00000000 NULL       0.32847500       0.00730900      -0.20451800
P        0.05355335       4.20353607      13.48914144       0.00000000 NULL       0.19971000       0.37661000       0.14847000
P       -0.81145115       2.89081857      23.46739689       0.00000000 NULL      -0.42600900      -0.01535100       0.14847000
P        0.75789781       2.79806145       3.51088600       0.00000000 NULL       0.22629900      -0.36126000       0.14847000
P        5.32665200       0.11125490      10.95819331       0.00000000 NULL       0.39362900       0.20875200       0.10833500
P        2.95171352       4.55738850      20.93644875       0.00000000 NULL      -0.37760000       0.23651700       0.10833500
P        0.28871812       0.27756464       0.97993787       0.00000000 NULL      -0.01602900      -0.44526900       0.10833600
P        2.31976017       1.47275581      14.42905268       0.00000000 NULL      -0.00800900      -0.28087600      -0.06458900
P        3.27606506       1.27259333      24.40730813       0.00000000 NULL       0.24725100       0.13350100      -0.06458900
P        2.97125841       2.20085890       4.45079724       0.00000000 NULL      -0.23924100       0.14737500      -0.06458900
P        2.29446259       4.52710122      14.17852043       0.00000000 NULL      -0.24912900       0.08942500      -0.27253400
P       -2.21212141       4.66972033      24.15677587       0.00000000 NULL       0.04712000      -0.26046200      -0.27253500
P       -0.08234118       0.69559454       4.20026498       0.00000000 NULL       0.20200700       0.17103800      -0.27253400
P       -0.73126223       3.78535571      10.23056823       0.00000000 NULL       0.09878900       0.01657200      -0.17747000
P       -0.05688854       2.42023852      20.20882367       0.00000000 NULL      -0.06374700       0.07726900      -0.17746900
P        0.78815078       3.68682186      30.18707912       0.00000000 NULL      -0.03504300      -0.09384100      -0.17746700
P        1.58462103       2.03808455       1.51924773       0.00000000 NULL       0.14034800       0.28152800       0.20279500
P        3.15404557       0.35327980      11.49750317       0.00000000 NULL      -0.31398200      -0.01921800       0.20279500
P        3.82841702       2.55484370      21.47575862       0.00000000 NULL       0.17363600      -0.26230900       0.20279500
P        4.41270079       1.75145055      18.49885085       0.00000000 NULL       0.14505400       0.17560700       0.19559500
P        1.98823803       2.94578571      28.47710630       0.00000000 NULL      -0.22460700       0.03781600       0.19559300
P        2.16614482       0.24897179       8.52059541       0.00000000 NULL       0.07955400      -0.21342400       0.19559500
P        2.88647369       3.15709463      25.63957287       0.00000000 NULL       0.26985100       0.22796800      -0.07763300
P        1.53402810       0.92121223       5.68306198       0.00000000 NULL      -0.33235000       0.11971300      -0.07763300
P        4.14658185       0.86790119      15.66131743       0.00000000 NULL       0.06250100      -0.34768300      -0.07763400
P        1.94488010       2.32452670      11.74738827       0.00000000 NULL      -0.07737500      -0.07971700      -0.23382500
P        2.72584986       0.52205222      21.72564372       0.00000000 NULL       0.10772700      -0.02715100      -0.23382500
P        3.89635367       2.09962912       1.76913283       0.00000000 NULL      -0.03035000       0.10686700      -0.23382300
P        4.95770873       0.60927452       6.44080637       0.00000000 NULL      -0.09804700       0.07178800      -0.03157500
P        2.70488751       3.98886445      16.41906182       0.00000000 NULL      -0.01314700      -0.12080500      -0.03157400
P        0.90448739       0.34806908      26.39731726       0.00000000 NULL       0.11119400       0.04901700      -0.03157400
P        0.15979773       1.15043367       8.94933162       0.00000000 NULL      -0.00434200      -0.52471900      -0.16133900
P        1.77949089       4.50938010      18.92758707       0.00000000 NULL       0.45659100       0.25859900      -0.16134000
P       -1.93928862       4.23260231      28.90584251       0.00000000 NULL      -0.45224900       0.26612000      -0.16134100
P        4.75524420       2.38603926      29.60525099       0.00000000 NULL       0.01057500       0.01558100       0.24617700
P        1.26739638       2.92514265       9.64874010       0.00000000 NULL      -0.01878200       0.00136800       0.24617900
P        2.54444305      -0.36497386      19.62699554       0.00000000 NULL       0.00820600      -0.01694900       0.24617900
P       -0.48655634       2.59108202      16.52083647       0.00000000 NULL      -0.02210500       0.20461000       0.05883200
P        0.85502987       3.22929688      26.49909191       0.00000000 NULL      -0.16614500      -0.12144900       0.05883200
P       -0.36847352       4.07203719       6.54258103       0.00000000 NULL       0.18824900      -0.08316000       0.05883200
P        1.69985961       1.94633189      16.51072765       0.00000000 NULL      -0.20794400       0.02321600       0.26327600
P        3.17588642       0.49895566      26.48898310       0.00000000 NULL       0.08386800      -0.19169300       0.26327600
P        3.69133760       2.50092049       6.53247221       0.00000000 NULL       0.12407700       0.16847700       0.26327600
45
Lattice="5.760503916310191 7.651046775939635e-15 -1.7409820351765387e-21 -2.880251958155102 4.988742730124368 -3.4819640697313835e-21 -8.762404077076476e-21 -2.5294881766929116e-20 29.58145728698347" Properties=species:S:1:pos:R:3:initial_magmoms:R:1:castep_labels:S:1:forces:R:3 n_minim_iter=3 energy=-238.825820670184 stress="0.003310766370432625 -0.0 0.0 -0.0 0.0033107898970137846 -0.0 0.0 -0.0 -0.00687265546816574" free_energy=-238.825820670184 pbc="T T T"
P        1.52178190       4.29765769      22.35926535       0.00000000 NULL      -0.19982100       0.23260400      -0.08385900
P       -1.60251973       4.15781567       2.63829382       0.00000000 NULL      -0.10153100      -0.28935000      -0.08385900
P        0.08073783       1.52201210      12.49877958       0.00000000 NULL       0.30135100       0.05674800      -0.08385800
P        0.06218779       4.25501638      13.33563646       0.00000000 NULL       0.08961900       0.25347300       0.20035500
P       -0.83579422       2.91509075      23.19612222       0.00000000 NULL      -0.26432200      -0.04912400       0.20035500
P        0.77360643       2.80737833       3.47515070       0.00000000 NULL       0.17470400      -0.20434700       0.20035500
P        5.38817633       0.12079404      10.83318994       0.00000000 NULL       0.20167000       0.05829700       0.07259400
P        2.96180504       4.60590057      20.69367570       0.00000000 NULL      -0.15132200       0.14550300       0.07259400
P        0.29077450       0.26204813       0.97270418       0.00000000 NULL      -0.05034800      -0.20380200       0.07259500
P        2.33953497       1.47415292      14.25655277       0.00000000 NULL       0.05319500      -0.30500100      -0.00191300
P        3.31408255       1.28902025      24.11703854       0.00000000 NULL       0.23754100       0.19856900      -0.00191300
P        2.98713835       2.22556955       4.39606701       0.00000000 NULL      -0.29073600       0.10643300      -0.00191300
P        2.30394080       4.56977857      14.00084109       0.00000000 NULL      -0.18651200       0.12042000      -0.33791000
P       -2.22926277       4.69912471      23.86132685       0.00000000 NULL      -0.01103100      -0.22173300      -0.33791100
P       -0.07467803       0.70858218       4.14035533       0.00000000 NULL       0.19754200       0.10131300      -0.33791100
P       -0.73327918       3.81890577      10.10270625       0.00000000 NULL       0.12892000      -0.12714400       0.03719500
P       -0.06037786       2.44425145      19.96319201       0.00000000 NULL       0.04565100       0.17522100       0.03719500
P        0.79365704       3.71432825      29.82367777       0.00000000 NULL      -0.17457200      -0.04807400       0.03719700
P        1.60379202       2.06702383       1.50928194       0.00000000 NULL       0.09641100       0.09238100       0.01488700
P        3.16851277       0.35541272      11.36976770       0.00000000 NULL      -0.12821000       0.03730200       0.01488700
P        3.86845109       2.56630619      21.23025346       0.00000000 NULL       0.03179900      -0.12968500       0.01488700
P        4.45670143       1.77342981      18.28826451       0.00000000 NULL       0.03795600       0.04769800       0.02075000
P        1.99631794       2.97290175      28.14875027       0.00000000 NULL      -0.06028600       0.00902100       0.02074700
P        2.18773651       0.24241117       8.42777875       0.00000000 NULL       0.02233100      -0.05672200       0.02075000
P        2.92208678       3.19351433      25.33374816       0.00000000 NULL       0.02245700       0.09681100       0.09478100
P        1.53379599       0.93384422       5.61277664       0.00000000 NULL      -0.09506900      -0.02895900       0.09478200
P        4.18487310       0.86138418      15.47326240       0.00000000 NULL       0.07261300      -0.06785500       0.09478000
P        1.95831022       2.34111953      11.59951169       0.00000000 NULL      -0.01385200      -0.12672400      -0.03053600
P        2.75387982       0.52538663      21.45999745       0.00000000 NULL       0.11667300       0.05136500      -0.03053600
P        3.92856584       2.12223657       1.73902592       0.00000000 NULL      -0.10282000       0.07535800      -0.03053500
P        4.99643966       0.61759813       6.36335727       0.00000000 NULL      -0.15442500       0.16723900       0.00342500
P        2.72742841       4.01824461      16.22384304       0.00000000 NULL      -0.06762100      -0.21735500       0.00342500
P        0.91688780       0.35289999      26.08432880       0.00000000 NULL       0.22204500       0.05011600       0.00342500
P        0.16128902       1.13932211       8.83754049       0.00000000 NULL       0.17505700      -0.29714900      -0.06798900
P        1.81292556       4.55876207      18.69802625       0.00000000 NULL       0.16980900       0.30018000      -0.06798900
P       -1.97421458       4.27940129      28.55851202       0.00000000 NULL      -0.34486700      -0.00303000      -0.06799000
P        4.79653210       2.40751167      29.26567921       0.00000000 NULL       0.01646200       0.19794100      -0.11699400
P        1.27727160       2.95016281       9.54470769       0.00000000 NULL      -0.17965400      -0.08471400      -0.11699200
P        2.56695217      -0.36893175      19.40519345       0.00000000 NULL       0.16319100      -0.11322700      -0.11699200
P       -0.49165370       2.62126860      16.32819497       0.00000000 NULL      -0.00808500      -0.03643200      -0.08810100
P        0.85599361       3.25232384      26.18868073       0.00000000 NULL       0.03559300       0.01121500      -0.08810100
P       -0.36433991       4.10389303       6.46770921       0.00000000 NULL      -0.02750900       0.02521900      -0.08810100
P        1.70616040       1.96419191      16.32584432       0.00000000 NULL      -0.21675900       0.14292300       0.28331300
P        3.20638362       0.49548229      26.18633008       0.00000000 NULL      -0.01539500      -0.25918200       0.28331300
P        3.72821185       2.52906853       6.46535856       0.00000000 NULL       0.23215500       0.11625800       0.28331300
45
Lattice="5.709901307822286 1.6989737332828994e-14 2.650041228888761e-20 -2.8549506539111573 4.94491958567608 5.300082457839466e-20 1.3651333545305313e-19 3.940800548552121e-19 30.153815911572693" Properties=species:S:1:pos:R:3:initial_magmoms:R:1:castep_labels:S:1:forces:R:3 n_minim_iter=4 energy=-238.950918729431 stress="-0.0024331063853521005 -3.52363671105719e-08 0.0 -3.52363671105719e-08 -0.002433059403529286 -0.0 0.0 -0.0 0.0009827775150809607" free_energy=-238.950918729431 pbc="T T T"
P        1.49531555       4.28122816      22.77669129       0.00000000 NULL       0.02599400       0.00085800       0.07538900
P       -1.60035947       4.09928676       2.67414735       0.00000000 NULL      -0.01374100       0.02208800       0.07538800
P        0.10504392       1.50932425      12.72541932       0.00000000 NULL      -0.01225700      -0.02294100       0.07539000
P        0.07634379       4.24583447      13.60515452       0.00000000 NULL      -0.21589600       0.04584500      -0.00583400
P       -0.86022176       2.88811801      23.65642649       0.00000000 NULL       0.06824800      -0.20989300      -0.00583400
P        0.78387796       2.75588669       3.55388255       0.00000000 NULL       0.14765000       0.16405000      -0.00583400
P        5.36927084       0.13491141      11.05097704       0.00000000 NULL      -0.13149300      -0.08121900      -0.01110500
P        2.90842918       4.58246925      21.10224901       0.00000000 NULL       0.13608100      -0.07326600      -0.01110500
P        0.28715194       0.22753894       0.99970507       0.00000000 NULL      -0.00458800       0.15448100      -0.01110400
P        2.31910254       1.43963086      14.52856090       0.00000000 NULL      -0.06177100      -0.05730400       0.24533900
P        3.30359314       1.28858628      24.57983287       0.00000000 NULL       0.08051100      -0.02484600       0.24533900
P        2.94215628       2.21670245       4.47728893       0.00000000 NULL      -0.01873900       0.08214900       0.24533800
P        2.26470357       4.53697528      14.25111308       0.00000000 NULL       0.19436400       0.03708700      -0.21996800
P       -2.20653698       4.63772277      24.30238505       0.00000000 NULL      -0.12930000       0.14978400      -0.21997000
P       -0.05816659       0.71514113       4.19984111       0.00000000 NULL      -0.06506600      -0.18686900      -0.21997000
P       -0.71851168       3.78618401      10.28588091       0.00000000 NULL      -0.04800800      -0.27321800       0.24112800
P       -0.06472504       2.42957822      20.33715288       0.00000000 NULL       0.26062300       0.09503500       0.24113100
P        0.78323672       3.67407695      30.38842485       0.00000000 NULL      -0.21261300       0.17818600       0.24113000
P        1.59990740       2.06913489       1.55263848       0.00000000 NULL      -0.09411400      -0.16506200      -0.09751300
P        3.11802423       0.35099300      11.60391045       0.00000000 NULL       0.19000500       0.00102400      -0.09751300
P        3.84692034       2.52479169      21.65518242       0.00000000 NULL      -0.09589300       0.16403600      -0.09751300
P        4.42824932       1.77004330      18.65594206       0.00000000 NULL      -0.11782700       0.11390900      -0.19509900
P        1.96287418       2.94995476      28.70721403       0.00000000 NULL      -0.03974100      -0.15899700      -0.19509900
P        2.17372845       0.22492153       8.60467009       0.00000000 NULL       0.15756500       0.04508100      -0.19509800
P        2.91507877       3.18209053      25.81892228       0.00000000 NULL      -0.15466300       0.00710800       0.23684700
P        1.49659069       0.93348700       5.71637834       0.00000000 NULL       0.07117700      -0.13749900       0.23684700
P        4.15318250       0.82934206      15.76765031       0.00000000 NULL       0.08348700       0.13038400       0.23684400
P        1.93532572       2.31376162      11.80744661       0.00000000 NULL       0.23748800       0.10159200      -0.06856000
P        2.73846211       0.51916043      21.85871858       0.00000000 NULL      -0.20672100       0.15487200      -0.06855900
P        3.89106413       2.11199754       1.75617464       0.00000000 NULL      -0.03076400      -0.25646600      -0.06856000
P        4.94472144       0.61872986       6.48394969       0.00000000 NULL      -0.01295900       0.11259700      -0.01916500
P        2.70170481       3.97288945      16.53522166       0.00000000 NULL      -0.09103300      -0.06752100      -0.01916500
P        0.91842571       0.35330028      26.58649363       0.00000000 NULL       0.10399200      -0.04507500      -0.01916400
P        0.16141421       1.09111356       8.99719574       0.00000000 NULL       0.04851800      -0.04633800       0.08331000
P        1.82931148       4.53915161      19.04846772       0.00000000 NULL       0.01587000       0.06519000       0.08330900
P       -1.99072570       4.25957400      29.09973969       0.00000000 NULL      -0.06438700      -0.01884700       0.08331000
P        4.75519232       2.38951473      29.84847159       0.00000000 NULL      -0.23647500       0.11177000      -0.22025800
P        1.26292469       2.92335999       9.74592765       0.00000000 NULL       0.02144200      -0.26067700      -0.22025900
P        2.54673495      -0.36795513      19.79719962       0.00000000 NULL       0.21503400       0.14890900      -0.22025800
P       -0.48896455       2.61147590      16.64762687       0.00000000 NULL      -0.11607600      -0.13298400      -0.00212700
P        0.83782846       3.21572592      26.69889884       0.00000000 NULL       0.17320600      -0.03403000      -0.00212700
P       -0.34886391       4.06263736       6.59635490       0.00000000 NULL      -0.05713100       0.16702100      -0.00212700
P        1.67531542       1.94994982      16.66134003       0.00000000 NULL      -0.06215600      -0.03042800      -0.04238500
P        3.18353752       0.47589081      26.71261200       0.00000000 NULL       0.05743100      -0.03861800      -0.04238400
P        3.70599902       2.51907897       6.61006806       0.00000000 NULL       0.00472500       0.06904400      -0.04238400
45
Lattice="5.7277778124842795 2.0741376128010725e-14 1.516292292679332e-19 -2.863888906242157 4.960401092844237 3.032584585364931e-19 7.984471284347221e-19 2.304918322673626e-18 30.001933876784456" Properties=species:S:1:pos:R:3:initial_magmoms:R:1:castep_labels:S:1:forces:R:3 n_minim_iter=5 energy=-239.080023753114 stress="-0.0021381079078624204 0.0 -0.0 0.0 -0.0021381196392068363 0.0 -0.0 0.0 0.0006548671079838033" free_energy=-239.080023753114 pbc="T T T"
P        1.49006683       4.31324962      22.65750611       0.00000000 NULL       0.00723800      -0.04442800       0.14992600
P       -1.61652826       4.09421201       2.65621686       0.00000000 NULL       0.03485600       0.02848200       0.14992600
P        0.12646142       1.51334055      12.65686149       0.00000000 NULL      -0.04209500       0.01594500       0.14992600
P        0.06805537       4.28625357      13.54705443       0.00000000 NULL      -0.14899500      -0.07295100      -0.03114000
P       -0.88214325       2.87621199      23.54769906       0.00000000 NULL       0.13767300      -0.09255800      -0.03114100
P        0.81408788       2.75833663       3.54640981       0.00000000 NULL       0.01132100       0.16550800      -0.03114100
P        5.39415202       0.13849852      11.00097757       0.00000000 NULL      -0.13770700      -0.21668400      -0.01712800
P        2.91075857       4.60222342      21.00162220       0.00000000 NULL       0.25650800      -0.01091600      -0.01712800
P        0.28675613       0.21967916       1.00033295       0.00000000 NULL      -0.11880000       0.22760100      -0.01712800
P        2.32325374       1.41895535      14.47749909       0.00000000 NULL      -0.02735800       0.04625000       0.16590800
P        3.33729956       1.30251908      24.47814371       0.00000000 NULL      -0.02637500      -0.04681700       0.16590800
P        2.93111342       2.23892666       4.47685446       0.00000000 NULL       0.05373300       0.00056700       0.16590900
P        2.27277926       4.56270022      14.14112690       0.00000000 NULL       0.07820800       0.14125400       0.07308300
P       -2.22391502       4.64733556      24.14177153       0.00000000 NULL      -0.16143400      -0.00289700       0.07308300
P       -0.04886424       0.71076641       4.14048228       0.00000000 NULL       0.08322500      -0.13835700       0.07308300
P       -0.71535922       3.77177095      10.25005231       0.00000000 NULL       0.01674500      -0.06743200       0.03414000
P       -0.04488094       2.45499636      20.25069694       0.00000000 NULL       0.05002200       0.04821800       0.03414000
P        0.76024016       3.69403488      30.25134156       0.00000000 NULL      -0.06677000       0.01921300       0.03414000
P        1.60398073       2.07431003       1.54352606       0.00000000 NULL      -0.12246900      -0.13786400      -0.19434400
P        3.12938226       0.35193305      11.54417068       0.00000000 NULL       0.18062900      -0.03712900      -0.19434400
P        3.85830372       2.53415802      21.54481531       0.00000000 NULL      -0.05815800       0.17499300      -0.19434400
P        4.43926113       1.79272253      18.55221074       0.00000000 NULL       0.01087200       0.14894700       0.09594500
P        1.95560400       2.94815165      28.55285536       0.00000000 NULL      -0.13442500      -0.06505800       0.09594600
P        2.19680159       0.21952692       8.55156611       0.00000000 NULL       0.12355500      -0.08388700       0.09594500
P        2.92009362       3.20462650      25.70973333       0.00000000 NULL       0.05742600       0.11655900      -0.00466300
P        1.49244304       0.92656200       5.70844408       0.00000000 NULL      -0.12965500      -0.00854700      -0.00466300
P        4.17913006       0.82921259      15.70908870       0.00000000 NULL       0.07223100      -0.10801000      -0.00466200
P        1.95846167       2.32186614      11.73234166       0.00000000 NULL       0.22264300       0.03729100       0.02230700
P        2.73775192       0.53514448      21.73298629       0.00000000 NULL      -0.14361600       0.17417000       0.02230800
P        3.89545314       2.10339047       1.73169704       0.00000000 NULL      -0.07902600      -0.21146000       0.02230600
P        4.95061738       0.64026413       6.44733351       0.00000000 NULL       0.09445700       0.06994100      -0.03393400
P        2.69798412       3.96722835      16.44797814       0.00000000 NULL      -0.10779800       0.04683200      -0.03393400
P        0.94306522       0.35290861      26.44862276       0.00000000 NULL       0.01334200      -0.11677200      -0.03393400
P        0.17392995       1.06248592       8.95267988       0.00000000 NULL       0.03262400       0.01973700       0.01145200
P        1.85678413       4.57978589      18.95332450       0.00000000 NULL      -0.03340500       0.01838400       0.01145200
P       -2.03071409       4.27853038      28.95396913       0.00000000 NULL       0.00078000      -0.03812200       0.01145300
P        4.74948403       2.41641238      29.68401487       0.00000000 NULL      -0.12138900       0.08210300      -0.24282700