21
Lattice="5.532495756007863 -4.091306128033677e-15 0.0 -2.766247878003928 4.791281871032404 0.0 0.0 0.0 20.477973375393173" Properties=species:S:1:pos:R:3:initial_magmoms:R:1:castep_labels:S:1:forces:R:3 n_minim_iter=1 energy=-108.832061239312 stress="-0.0005340211346030156 -0.0 0.0 -0.0 -0.0005340395567478548 -0.0 0.0 -0.0 -0.00028779074668029215" free_energy=-108.832061239312 pbc="T T T"
P        4.78203182       0.97872988       9.70250362       0.00000000 NULL      -0.01488600       0.01339500      -0.00249700
P        2.29387490       3.65199610       9.70250362       0.00000000 NULL      -0.00415700      -0.01958900      -0.00249700
P        1.22283691       0.16055589       9.70250362       0.00000000 NULL       0.01904200       0.00619500      -0.00249700
P        2.12272139       3.69470938      16.00728255       0.00000000 NULL       0.00922600       0.00563300      -0.00741500
P        1.27142287      -0.00902403      16.00728255       0.00000000 NULL      -0.00949100       0.00517300      -0.00741500
P        4.90459936       1.10559653      16.00728255       0.00000000 NULL       0.00026600      -0.01080600      -0.00741500
P        1.85466627       3.21742959      18.20194574       0.00000000 NULL      -0.01335600      -0.01657100       0.00861800
P       -0.94746102       4.78875518      18.20194574       0.00000000 NULL       0.02102900      -0.00328100       0.00861800
P       -0.90720526       1.57637897      18.20194574       0.00000000 NULL      -0.00767400       0.01985200       0.00861800
P        0.91351387       1.57483047      19.74324709       0.00000000 NULL      -0.01113900      -0.00320200      -0.00176500
P        3.71189562       0.00371098      19.74324709       0.00000000 NULL       0.00834400      -0.00804700      -0.00176500
P        3.67333414       3.21274042      19.74324709       0.00000000 NULL       0.00279800       0.01124800      -0.00176500
P       -1.23383040       2.84950060       6.25508531       0.00000000 NULL      -0.00568800      -0.01608500       0.01916400
P        0.91542317       2.29800310       6.25508531       0.00000000 NULL       0.01677300       0.00311700       0.01916400
P        0.31840722       4.43506004       6.25508531       0.00000000 NULL      -0.01108600       0.01296800       0.01916400
P        3.67253756       2.50087625       4.10890367       0.00000000 NULL       0.04040400       0.01427000      -0.01383900
P        1.53040460       1.93007270       4.10890367       0.00000000 NULL      -0.03256000       0.02785500      -0.01383900
P        3.09580146       0.36033292       4.10890367       0.00000000 NULL      -0.00784400      -0.04212600      -0.01383900
P       -0.91421097       1.59817344       0.68048117       0.00000000 NULL      -0.01654700      -0.02158700      -0.00226600
P        1.83929455       3.20046523       0.68048117       0.00000000 NULL       0.02696700      -0.00353600      -0.00226600
P       -0.92508360       4.78392507       0.68048117       0.00000000 NULL      -0.01042200       0.02512300      -0.00226600
21
Lattice="5.535501330773198 -4.969892984606804e-15 0.0 -2.767750665386595 4.7938847751321605 0.0 0.0 0.0 20.483967833467183" Properties=species:S:1:pos:R:3:initial_magmoms:R:1:castep_labels:S:1:forces:R:3 n_minim_iter=2 energy=-108.832250795966 stress="2.3363886462664605e-05 -3.67935219884482e-08 -0.0 -3.67935219884482e-08 2.341907674564728e-05 -0.0 -0.0 -0.0 7.774471196159103e-05" free_energy=-108.832250795966 pbc="T T T"
P        4.78460179       0.97928670       9.70533913       0.00000000 NULL      -0.00007000      -0.00524100      -0.00358400
P        2.29511327       3.65394335       9.70533913       0.00000000 NULL       0.00456700       0.00256200      -0.00358400
P        1.22353692       0.16065472       9.70533913       0.00000000 NULL      -0.00449700       0.00267900      -0.00358400
P        2.12389187       3.69672712      16.01195441       0.00000000 NULL       0.01747400       0.01964500      -0.00128600
P        1.27209579      -0.00901924      16.01195441       0.00000000 NULL      -0.02575100       0.00531500      -0.00128600
P        4.90726432       1.10617690      16.01195441       0.00000000 NULL       0.00827800      -0.02496000      -0.00128600
P        1.85564880       3.21914642      18.20729009       0.00000000 NULL      -0.01144100      -0.01340000       0.01176800
P       -0.94793632       4.79135056      18.20729009       0.00000000 NULL       0.01732400      -0.00320600       0.01176800
P       -0.90771249       1.57727256      18.20729009       0.00000000 NULL      -0.00588300       0.01660700       0.01176700
P        0.91398926       1.57568001      19.74902316       0.00000000 NULL      -0.01201500      -0.00456400       0.00122100
P        3.71392778       0.00369791      19.74902316       0.00000000 NULL       0.00996100      -0.00812700       0.00122100
P        3.67533495       3.21450685      19.74902316       0.00000000 NULL       0.00205500       0.01268800       0.00122000
P       -1.23451135       2.85101846       6.25695226       0.00000000 NULL       0.00906600      -0.01216800       0.01328000
P        0.91595192       2.29925735       6.25695226       0.00000000 NULL       0.00600500       0.01393600       0.01328000
P        0.31855942       4.43749373       6.25695226       0.00000000 NULL      -0.01507100      -0.00176700       0.01327900
P        3.67460844       2.50226162       4.11008053       0.00000000 NULL       0.02891900       0.00259200      -0.00755100
P        1.53117497       1.93117345       4.11008053       0.00000000 NULL      -0.01670500       0.02374900      -0.00755000
P        3.09746858       0.36044970       4.11008053       0.00000000 NULL      -0.01221500      -0.02634100      -0.00755000
P       -0.91473864       1.59900120       0.68067612       0.00000000 NULL      -0.01573300      -0.02182000      -0.01384700
P        1.84034432       3.20219728       0.68067612       0.00000000 NULL       0.02676300      -0.00271600      -0.01384800
P       -0.92560569       4.78657107       0.68067612       0.00000000 NULL      -0.01103100       0.02453800      -0.01384700
21
Lattice="5.53737470296666 -5.216314010066344e-15 0.0 -2.768687351483326 4.795507163042441 0.0 0.0 0.0 20.46430715165636" Properties=species:S:1:pos:R:3:initial_magmoms:R:1:castep_labels:S:1:forces:R:3 n_minim_iter=3 energy=-108.832458815299 stress="0.00011871115613924628 3.680395477887034e-08 0.0 3.680395477887034e-08 0.00011865595020707797 0.0 0.0 0.0 -0.00033870679582994375" free_energy=-108.832458815299 pbc="T T T"
P        4.78618034       0.97948350       9.69590180       0.00000000 NULL       0.00650400      -0.01412800      -0.00296500
P        2.29602694       3.65521201       9.69590180       0.00000000 NULL       0.00899000       0.01269500      -0.00296500
P        1.22385477       0.16081165       9.69590180       0.00000000 NULL      -0.01549300       0.00143300      -0.00296500
P        2.12519928       3.69862764      15.99652539       0.00000000 NULL       0.01215100       0.01125900      -0.00884100
P        1.27166957      -0.00883725      15.99652539       0.00000000 NULL      -0.01582400       0.00488900      -0.00884000
P        4.90919320       1.10571678      15.99652539       0.00000000 NULL       0.00367300      -0.01614800      -0.00884100
P        1.85587258       3.21976002      18.19021643       0.00000000 NULL      -0.00739900      -0.01097700       0.00766500
P       -0.94764291       4.79285995      18.19021643       0.00000000 NULL       0.01320600      -0.00092100       0.00766500
P       -0.90822967       1.57839435      18.19021643       0.00000000 NULL      -0.00580700       0.01189700       0.00766600
P        0.91388145       1.57605751      19.73010271       0.00000000 NULL      -0.00853800      -0.00393600      -0.00607600
P        3.71552813       0.00341581      19.73010271       0.00000000 NULL       0.00767600      -0.00542300      -0.00607600
P        3.67665246       3.21603385      19.73010271       0.00000000 NULL       0.00086100       0.00936200      -0.00607600
P       -1.23465087       2.85154852       6.25142462       0.00000000 NULL       0.01312900      -0.01093200       0.01869600
P        0.91649932       2.30049389       6.25142462       0.00000000 NULL       0.00290200       0.01683600       0.01869600
P        0.31815153       4.43897192       6.25142462       0.00000000 NULL      -0.01603200      -0.00590500       0.01869700
P        3.67689104       2.50322912       4.10585636       0.00000000 NULL       0.00883500      -0.01513100      -0.01387500
P        1.53106917       1.93266649       4.10585636       0.00000000 NULL       0.00868600       0.01521700      -0.01387500
P        3.09810183       0.35961155       4.10585636       0.00000000 NULL      -0.01752100      -0.00008600      -0.01387500
P       -0.91559944       1.59878139       0.67957026       0.00000000 NULL      -0.01272200      -0.01585700       0.00539500
P        1.84190177       3.20318410       0.67957026       0.00000000 NULL       0.02009400      -0.00308800       0.00539600
P       -0.92630234       4.78904884       0.67957026       0.00000000 NULL      -0.00737100       0.01894400       0.00539500
21
Lattice="5.536438738326445 -4.767307842016026e-15 0.0 -2.768219369163219 4.794696593886972 0.0 0.0 0.0 20.47823723719141" Properties=species:S:1:pos:R:3:initial_magmoms:R:1:castep_labels:S:1:forces:R:3 n_minim_iter=4 energy=-108.832721193693 stress="-1.6740065037416989e-06 1.8395675865293396e-08 -0.0 1.8395675865293396e-08 -1.6556108278764056e-06 -0.0 -0.0 -0.0 3.511734522684509e-05" free_energy=-108.832721193693 pbc="T T T"
P        4.78538280       0.97900195       9.70231356       0.00000000 NULL      -0.00276600      -0.00173700      -0.00311100
P        2.29590677       3.65476210       9.70231356       0.00000000 NULL       0.00289100      -0.00152300      -0.00311100
P        1.22336852       0.16093254       9.70231356       0.00000000 NULL      -0.00012500       0.00326000      -0.00311100
P        2.12572501       3.69895593      16.00724403       0.00000000 NULL      -0.00505700      -0.01713000       0.00255400
P        1.27018643      -0.00854610      16.00724403       0.00000000 NULL       0.01736700       0.00418500       0.00255400
P        4.90874666       1.10428677      16.00724403       0.00000000 NULL      -0.01231000       0.01294500       0.00255400
P        1.85495949       3.21848674      18.20319694       0.00000000 NULL       0.00009800      -0.00438200       0.00048100
P       -0.94655166       4.79189527      18.20319694       0.00000000 NULL       0.00374700       0.00227700       0.00048100
P       -0.90840784       1.57901118      18.20319694       0.00000000 NULL      -0.00384500       0.00210600       0.00048100
P        0.91309972       1.57554938      19.74351531       0.00000000 NULL      -0.00193200       0.00045800      -0.00764000
P        3.71542309       0.00299286      19.74351531       0.00000000 NULL       0.00056700      -0.00190400      -0.00764000
P        3.67613530       3.21615435      19.74351531       0.00000000 NULL       0.00136500       0.00144400      -0.00764000
P       -1.23394990       2.85039091       6.25649147       0.00000000 NULL       0.00197200      -0.01403000       0.00421400
P        0.91668337       2.30086918       6.25649147       0.00000000 NULL       0.01116500       0.00872300       0.00421400
P        0.31726652       4.43813309       6.25649147       0.00000000 NULL      -0.01313700       0.00530700       0.00421400
P        3.67770680       2.50280882       4.10814621       0.00000000 NULL      -0.00486300      -0.02720600       0.00057800
P        1.53008932       1.93358311       4.10814621       0.00000000 NULL       0.02599300       0.00939100       0.00057700
P        3.09686198       0.35830467       4.10814621       0.00000000 NULL      -0.02113000       0.01781500       0.00057800
P       -0.91628876       1.59736367       0.67950416       0.00000000 NULL      -0.00814600      -0.00672000       0.00292500
P        1.84300622       3.20248541       0.67950416       0.00000000 NULL       0.00989200      -0.00369300       0.00292500
P       -0.92671747       4.78954410       0.67950416       0.00000000 NULL      -0.00174600       0.01041400       0.00292400
21
Lattice="5.537408008210816 -4.6147540575046645e-15 0.0 -2.768704004105405 4.795536006229959 0.0 0.0 0.0 20.470031982113053" Properties=species:S:1:pos:R:3:initial_magmoms:R:1:castep_labels:S:1:forces:R:3 n_minim_iter=5 energy=-108.833028139433 stress="4.617549082743573e-06 0.0 -0.0 0.0 4.617549082743573e-06 0.0 -0.0 0.0 9.915772731469267e-06" free_energy=-108.833028139433 pbc="T T T"
P        4.78588881       0.97857804       9.69781878       0.00000000 NULL      -0.00409100      -0.00011600      -0.00268400
P        2.29699015       3.65541227       9.69781878       0.00000000 NULL       0.00214600      -0.00348400      -0.00268400
P        1.22323303       0.16154569       9.69781878       0.00000000 NULL       0.00194400       0.00360100      -0.00268400
P        2.12645859       3.69850061      16.00091356       0.00000000 NULL       0.00713400       0.00512500       0.00358700
P        1.27118322      -0.00768314      16.00091356       0.00000000 NULL      -0.00800600       0.00361600       0.00358700
P        4.90847019       1.10471854      16.00091356       0.00000000 NULL       0.00087100      -0.00874100       0.00358700
P        1.85460990       3.21765075      18.19664095       0.00000000 NULL       0.01004400       0.00451400      -0.00860900
P       -0.94516824       4.79284992      18.19664095       0.00000000 NULL      -0.00893100       0.00644100      -0.00860900
P       -0.90944167       1.58057134      18.19664095       0.00000000 NULL      -0.00111200      -0.01095500      -0.00860900
P        0.91229856       1.57560553      19.73458819       0.00000000 NULL       0.00640000       0.00459200      -0.00342200
P        3.71674431       0.00227096      19.73458819       0.00000000 NULL      -0.00717700       0.00324600      -0.00342200
P        3.67706914       3.21765951      19.73458819       0.00000000 NULL       0.00077700      -0.00783800      -0.00342200
P       -1.23334872       2.84832996       6.25549284       0.00000000 NULL       0.00614000      -0.01051700      -0.00267500
P        0.91865225       2.30325971       6.25549284       0.00000000 NULL       0.00603800       0.01057600      -0.00267500
P        0.31469646       4.43948234       6.25549284       0.00000000 NULL      -0.01217800      -0.00005900      -0.00267500
P        3.67935285       2.49976528       4.10594863       0.00000000 NULL       0.01578800      -0.00374100       0.00745100
P        1.53287134       1.93653040       4.10594863       0.00000000 NULL      -0.00465400       0.01554400       0.00745100
P        3.09388781       0.35924032       4.10594863       0.00000000 NULL      -0.01113400      -0.01180200       0.00745100
P       -0.91845160       1.59547986       0.67907772       0.00000000 NULL       0.00393700       0.00935200       0.00635300
P        1.84620371       3.20239366       0.67907772       0.00000000 NULL      -0.01006800      -0.00126700       0.00635300
P       -0.92775212       4.79319849       0.67907772       0.00000000 NULL       0.00613100      -0.00808600       0.00635300
21
Lattice="5.537869501257059 -5.082525830752384e-15 0.0 -2.7689347506285262 4.795935670931676 0.0 0.0 0.0 20.46568393889254" Properties=species:S:1:pos:R:3:initial_magmoms:R:1:castep_labels:S:1:forces:R:3 n_minim_iter=6 energy=-108.833331256433 stress="5.905581028940642e-06 -0.0 0.0 -0.0 5.905581028940642e-06 -0.0 0.0 -0.0 9.014749857261415e-07" free_energy=-108.833331256433 pbc="T T T"
P        4.78515376       0.97806213       9.69464587       0.00000000 NULL       0.00212800      -0.00810000      -0.00227500
P        2.29826597       3.65503365       9.69464587       0.00000000 NULL       0.00595100       0.00589200      -0.00227500
P        1.22338452       0.16283989       9.69464587       0.00000000 NULL      -0.00807900       0.00220800      -0.00227500
P        2.12836709       3.69870536      15.99826023       0.00000000 NULL      -0.00181500      -0.01066900      -0.00946000
P        1.27051315      -0.00613271      15.99826023       0.00000000 NULL       0.01014700       0.00376200      -0.00946000
P        4.90792400       1.10336302      15.99826023       0.00000000 NULL      -0.00833200       0.00690700      -0.00946000
P        1.85610191       3.21745322      18.19177731       0.00000000 NULL       0.00199500       0.00331100       0.00834300
P       -0.94551244       4.79464047      18.19177731       0.00000000 NULL      -0.00386600       0.00007300       0.00834300
P       -0.91058948       1.57977765      18.19177731       0.00000000 NULL       0.00186800      -0.00338300       0.00834300
P        0.91271822       1.57643429      19.72870700       0.00000000 NULL      -0.00230600      -0.00552100       0.01500500
P        3.71627824       0.00222003      19.72870700       0.00000000 NULL       0.00593700       0.00076100       0.01500500
P        3.67780778       3.21728135      19.72870700       0.00000000 NULL      -0.00362500       0.00475800       0.01500500
P       -1.23145800       2.84400493       6.25513444       0.00000000 NULL      -0.00503400      -0.00938800       0.00087900
P        0.92168323       2.30745929       6.25513444       0.00000000 NULL       0.01064600       0.00033500       0.00087900
P        0.30977476       4.44040712       6.25513444       0.00000000 NULL      -0.00561400       0.00905300       0.00087900
P        3.68370987       2.49582607       4.10597043       0.00000000 NULL       0.00775700      -0.00293700       0.00369500
P        1.53456578       1.94227329       4.10597043       0.00000000 NULL      -0.00133500       0.00818500       0.00369500
P        3.08852859       0.35783630       4.10597043       0.00000000 NULL      -0.00642100      -0.00524900       0.00369500
P       -0.91968505       1.59538008       0.68012486       0.00000000 NULL       0.01188900       0.00812600      -0.01618700
P        1.84713760       3.20177501       0.68012486       0.00000000 NULL      -0.01298300       0.00623500      -0.01618700
P       -0.92745255       4.79471625       0.68012486       0.00000000 NULL       0.00109100      -0.01435900      -0.01618700
21
Lattice="5.537832509289896 -4.0647536860192175e-15 0.0 -2.7689162546449464 4.795903634948376 0.0 0.0 0.0 20.470693164583636" Properties=species:S:1:pos:R:3:initial_magmoms:R:1:castep_labels:S:1:forces:R:3 n_minim_iter=7 energy=-108.833621254413 stress="6.566369760815885e-06 1.839319260732741e-08 0.0 1.839319260732741e-08 6.547976568208558e-06 -0.0 0.0 -0.0 -8.66319371805121e-06" free_energy=-108.833621254413 pbc="T T T"
P        4.78437030       0.97641190       9.69569526       0.00000000 NULL      -0.01479300       0.01565900      -0.00188500
P        2.30004984       3.65518028       9.69569526       0.00000000 NULL      -0.00615900      -0.02063900      -0.00188500
P        1.22232861       0.16431146       9.69569526       0.00000000 NULL       0.02095300       0.00498000      -0.00188500
P        2.12967255       3.69710765      16.00153840       0.00000000 NULL       0.00673700       0.00411200      -0.00209900
P        1.27120709      -0.00420329      16.00153840       0.00000000 NULL      -0.00692700       0.00377600      -0.00209900
P        4.90586912       1.10299928      16.00153840       0.00000000 NULL       0.00019000      -0.00788800      -0.00209900
P        1.85757622       3.21745598      18.19646313       0.00000000 NULL      -0.00693800       0.00297200       0.00009000
P       -0.94627048       4.79588385      18.19646313       0.00000000 NULL       0.00089700      -0.00749500       0.00009000
P       -0.91130576       1.57846744      18.19646313       0.00000000 NULL       0.00604100       0.00452300       0.00009000
P        0.91270643       1.57629879      19.73404820       0.00000000 NULL      -0.00091800      -0.00238700       0.00608800
P        3.71636449       0.00227756      19.73404820       0.00000000 NULL       0.00252500       0.00039800       0.00608800
P        3.67767783       3.21732728      19.73404820       0.00000000 NULL      -0.00160500       0.00198800       0.00608800
P       -1.23034043       2.83853824       6.25768876       0.00000000 NULL       0.00429100      -0.00047000       0.00150800
P        0.92584024       2.31112845       6.25768876       0.00000000 NULL      -0.00173900       0.00395100       0.00150900
P        0.30450018       4.44214058       6.25768876       0.00000000 NULL      -0.00255300      -0.00348100       0.00150900
P        3.68844931       2.49164102       4.10827581       0.00000000 NULL      -0.00683800      -0.00772800       0.00240000
P        1.53578342       1.94847030       4.10827581       0.00000000 NULL       0.01011200      -0.00205800       0.00239900
P        3.08251602       0.35579231       4.10827581       0.00000000 NULL      -0.00327400       0.00978600       0.00240000
P       -0.91909924       1.59627280       0.67918345       0.00000000 NULL       0.00653400       0.00143100      -0.00610200
P        1.84605308       3.20180394       0.67918345       0.00000000 NULL      -0.00450700       0.00494500      -0.00610200
P       -0.92695384       4.79373053       0.67918345       0.00000000 NULL      -0.00202800      -0.00637500      -0.00610300
21
Lattice="5.53748824454124 -4.278123346515786e-15 0.0 -2.7687441222706175 4.795605492930411 0.0 0.0 0.0 20.474245461260146" Properties=species:S:1:pos:R:3:initial_magmoms:R:1:castep_labels:S:1:forces:R:3 n_minim_iter=8 energy=-108.833692336613 stress="-5.701611156024248e-07 0.0 -0.0 0.0 -6.06945703705807e-07 0.0 -0.0 0.0 -1.3573513010148048e-05" free_energy=-108.833692336613 pbc="T T T"
P        4.78307796       0.97677765       9.69693424       0.00000000 NULL       0.00267400      -0.00651900      -0.00145600
P        2.30003500       3.65387820       9.69693424       0.00000000 NULL       0.00431000       0.00557300      -0.00145600
P        1.22311940       0.16494965       9.69693424       0.00000000 NULL      -0.00698500       0.00094600      -0.00145600
P        2.13026004       3.69672470      16.00406642       0.00000000 NULL       0.00280600      -0.00167600       0.00125400
P        1.27090072      -0.00350304      16.00406642       0.00000000 NULL       0.00004800       0.00326600       0.00125400
P        4.90507160       1.10238383      16.00406642       0.00000000 NULL      -0.00285400      -0.00159000       0.00125400
P        1.85747563       3.21740503      18.19966855       0.00000000 NULL      -0.00679400       0.00236700      -0.00296000
P       -0.94634818       4.79552406      18.19966855       0.00000000 NULL       0.00134700      -0.00707000      -0.00296000
P       -0.91112745       1.57828190      18.19966855       0.00000000 NULL       0.00544800       0.00470100      -0.00295900
P        0.91260135       1.57605625      19.73789431       0.00000000 NULL       0.00125100      -0.00042200      -0.00014600
P        3.71628282       0.00230783      19.73789431       0.00000000 NULL      -0.00026000       0.00129900      -0.00014600
P        3.67734819       3.21724141      19.73789431       0.00000000 NULL      -0.00099400      -0.00087300      -0.00014600
P       -1.22973418       2.83692076       6.25912171       0.00000000 NULL       0.00082400       0.00050600       0.00051000
P        0.92676576       2.31216408       6.25912171       0.00000000 NULL      -0.00085000       0.00046000       0.00051000
P        0.30296841       4.44212614       6.25912171       0.00000000 NULL       0.00002700      -0.00096700       0.00051100
P        3.68912853       2.49001128       4.10945060       0.00000000 NULL      -0.00183600      -0.00082900       0.00299000
P        1.53651095       1.94987338       4.10945060       0.00000000 NULL       0.00163600      -0.00117500       0.00299000
P        3.08059288       0.35572083       4.10945060       0.00000000 NULL       0.00020000       0.00200500       0.00299000
P       -0.91858161       1.59645692       0.67871529       0.00000000 NULL       0.00312300      -0.00007700      -0.00019300
P        1.84546268       3.20186203       0.67871529       0.00000000 NULL      -0.00149400       0.00274100      -0.00019200
P       -0.92688108       4.79289204       0.67871529       0.00000000 NULL      -0.00162700      -0.00266700      -0.00019200
