64
Lattice="10.466155439657001 0.0 0.0 0.0 10.466155439657001 0.0 0.0 0.0 12.458993451842222" Properties=species:S:1:pos:R:3:initial_magmoms:R:1:castep_labels:S:1:forces:R:3 n_minim_iter=1 energy=-322.231180769426 stress="-0.00022575346876846201 -0.0 -0.0 -0.0 -0.00022575346876846201 -0.0 -0.0 -0.0 7.396155513628223e-05" free_energy=-322.231180769426 pbc="T T T"
P        7.96734547       7.98947770       5.09241209       0.00000000 NULL      -0.47458000      -0.33301100      -0.65090600
P        2.49880997       2.47667774      11.32190881       0.00000000 NULL       0.47457900       0.33301200      -0.65090700
P        2.47667774       7.96734547       8.20716045       0.00000000 NULL       0.33301100      -0.47458000      -0.65090600
P        7.98947770       2.49880997       1.97766372       0.00000000 NULL      -0.33301100       0.47458000      -0.65090700
P        2.84493859       4.03449715       8.79779170       0.00000000 NULL      -0.18096900      -0.45757600       0.21648200
P        7.62121685       6.43165829       2.56829497       0.00000000 NULL       0.18096900       0.45757600       0.21648100
P        6.43165829       2.84493859      11.91254006       0.00000000 NULL       0.45757800      -0.18096800       0.21648200
P        4.03449715       7.62121685       5.68304334       0.00000000 NULL      -0.45757600       0.18096900       0.21648200
P        5.99255583       8.98956393       4.17490231       0.00000000 NULL      -0.45001100       0.02670900      -0.24210500
P        4.47359961       1.47659151      10.40439903       0.00000000 NULL       0.45001100      -0.02671000      -0.24210700
P        1.47659151       5.99255583       7.28965067       0.00000000 NULL      -0.02670900      -0.45001100      -0.24210500
P        8.98956393       4.47359961       1.06015394       0.00000000 NULL       0.02670900       0.45001100      -0.24210400
P       10.16315108       3.19401274       3.67133762       0.00000000 NULL       0.18481000      -0.04371100       0.38656800
P        0.30300435       7.27214270       9.90083434       0.00000000 NULL      -0.18481000       0.04371100       0.38656800
P        7.27214270      10.16315108       6.78608598       0.00000000 NULL       0.04371100       0.18481000       0.38656800
P        3.19401274       0.30300435       0.55658925       0.00000000 NULL      -0.04371100      -0.18481000       0.38656800
P        7.83674647      10.38335270       1.81124290       0.00000000 NULL      -0.72459700      -0.12249200       0.30362400
P        2.62940897       0.08280274       8.04073962       0.00000000 NULL       0.72459700       0.12249200       0.30362400
P        0.08280274       7.83674647       4.92599126       0.00000000 NULL       0.12249200      -0.72459700       0.30362400
P       10.38335270       2.62940897      11.15548799       0.00000000 NULL      -0.12249200       0.72459700       0.30362200
P        8.81314275       6.03058305       5.80987995       0.00000000 NULL       0.05767700      -0.40909800      -0.55132200
P        1.65301269       4.43557239      12.03937667       0.00000000 NULL      -0.05767700       0.40909900      -0.55132400
P        4.43557239       8.81314275       8.92462831       0.00000000 NULL       0.40909800       0.05767700      -0.55132200
P        6.03058305       1.65301269       2.69513159       0.00000000 NULL      -0.40909800      -0.05767700      -0.55132200
P        5.98623071       4.68472918       4.61246063       0.00000000 NULL       0.60970600       0.14271000      -0.89695500
P        4.47992473       5.78142626      10.84195736       0.00000000 NULL      -0.60970500      -0.14271000      -0.89695700
P        5.78142626       5.98623071       7.72720900       0.00000000 NULL      -0.14271000       0.60970600      -0.89695500
P        4.68472918       4.47992473       1.49771227       0.00000000 NULL       0.14271000      -0.60970600      -0.89695500
P        6.35691231       2.24053618       9.09018998       0.00000000 NULL      -0.48411600      -0.13569800      -0.24062400
P        4.10924313       8.22561926       2.86069325       0.00000000 NULL       0.48411600       0.13569800      -0.24062400
P        8.22561926       6.35691231      12.20493834       0.00000000 NULL       0.13569800      -0.48411700      -0.24062500
P        2.24053618       4.10924313       5.97544162       0.00000000 NULL      -0.13569800       0.48411600      -0.24062400
P        3.21578470      10.06197665      10.30782725       0.00000000 NULL       0.21445800      -0.12486200      -0.31864300
P        7.25037074       0.40417879       4.07833052       0.00000000 NULL      -0.21445800       0.12486200      -0.31864300
P        0.40417879       3.21578470       0.96358216       0.00000000 NULL       0.12486100       0.21445700      -0.31864100
P       10.06197665       7.25037074       7.19307889       0.00000000 NULL      -0.12486200      -0.21445800      -0.31864300
P       10.51778854       8.48745333       1.02704164       0.00000000 NULL       0.24114900       0.00818900      -0.51132400
P       -0.05163310       1.97870211       7.25653837       0.00000000 NULL      -0.24114900      -0.00818700      -0.51132500
P        1.97870211      10.51778854       4.14179001       0.00000000 NULL      -0.00818700       0.24114900      -0.51132500
P        8.48745333      -0.05163310      10.37128673       0.00000000 NULL       0.00818800      -0.24114800      -0.51132500
P        8.14744252       8.43179520       0.83306065       0.00000000 NULL       0.01494900      -0.19561700       0.39507700
P        2.31871292       2.03436024       7.06255738       0.00000000 NULL      -0.01494800       0.19561800       0.39507400
P        2.03436024       8.14744252       3.94780902       0.00000000 NULL       0.19561800       0.01494800       0.39507400
P        8.43179520       2.31871292      10.17730574       0.00000000 NULL      -0.19561800      -0.01494800       0.39507400
P        4.42279484       2.26947924      12.57526411       0.00000000 NULL       0.05688700       0.03922200       0.70829100
P        6.04336060       8.19667620       6.34576738       0.00000000 NULL      -0.05688700      -0.03922300       0.70828900
P        8.19667620       4.42279484       3.23101902       0.00000000 NULL      -0.03922300       0.05688700       0.70828900
P        2.26947924       6.04336060       9.46051574       0.00000000 NULL       0.03922200      -0.05688700       0.70828900
P        0.97146396       0.75672800      10.90671972       0.00000000 NULL      -0.19699300       0.55884800       0.37678700
P        9.49469148       9.70942744       4.67722299       0.00000000 NULL       0.19699300      -0.55884800       0.37678800
P        9.70942744       0.97146396       1.56247463       0.00000000 NULL      -0.55884900      -0.19699300       0.37678800
P        0.75672800       9.49469148       7.79197136       0.00000000 NULL       0.55884900       0.19699300       0.37678800
P        6.85773185       0.10451906       8.84774339       0.00000000 NULL      -0.53449400      -0.36296100       0.23143800
P        3.60842359      10.36163638       2.61824666       0.00000000 NULL       0.53449400       0.36296100       0.23143800
P       10.36163638       6.85773185      11.96249175       0.00000000 NULL       0.36296200      -0.53449500       0.23143600
P        0.10451906       3.60842359       5.73299502       0.00000000 NULL      -0.36296100       0.53449400       0.23143800
P        3.32607379       5.74551671       0.23618276       0.00000000 NULL       0.11162000       0.30094500       0.37013400
P        7.14008165       4.72063873       6.46567949       0.00000000 NULL      -0.11162000      -0.30094500       0.37013100
P        4.72063873       3.32607379       3.35093112       0.00000000 NULL      -0.30094500       0.11162000       0.37013100
P        5.74551671       7.14008165       9.58042785       0.00000000 NULL       0.30094500      -0.11162000       0.37013100
P        1.61357670       7.25963078       1.99933572       0.00000000 NULL      -0.26474900      -0.01930900       0.42348900
P        8.85257874       3.20652466       8.22883245       0.00000000 NULL       0.26474900       0.01930900       0.42348800
P        3.20652466       1.61357670       5.11408409       0.00000000 NULL       0.01930900      -0.26474900       0.42348800
P        7.25963078       8.85257874      11.34358081       0.00000000 NULL      -0.01931100       0.26475000       0.42348500
64
Lattice="10.690022379388882 0.0 0.0 0.0 10.690022379388882 0.0 0.0 0.0 12.372904239078872" Properties=species:S:1:pos:R:3:initial_magmoms:R:1:castep_labels:S:1:forces:R:3 n_minim_iter=2 energy=-323.15632283834 stress="0.022122186296205614 -0.0 -0.0 -0.0 0.022122186296205614 -0.0 -0.0 -0.0 0.011339320610362845" free_energy=-323.15632283834 pbc="T T T"
P        8.10446664       8.13700492       5.01282129       0.00000000 NULL      -0.44577100      -0.28937400      -0.59170200
P        2.58555574       2.55301746      11.19927341       0.00000000 NULL       0.44577000       0.28937400      -0.59170300
P        2.55301746       8.10446664       8.10604735       0.00000000 NULL       0.28937400      -0.44577100      -0.59170200
P        8.13700492       2.58555574       1.91959523       0.00000000 NULL      -0.28937400       0.44577100      -0.59170300
P        2.89309367       4.08868922       8.75176852       0.00000000 NULL      -0.31527800      -0.20481400       0.23954900
P        7.79692871       6.60133316       2.56531640       0.00000000 NULL       0.31527800       0.20481400       0.23954900
P        6.60133316       2.89309367      11.84499458       0.00000000 NULL       0.20481500      -0.31527800       0.23955000
P        4.08868922       7.79692871       5.65854246       0.00000000 NULL      -0.20481400       0.31527800       0.23954900
P        6.08916080       9.18372112       4.12953873       0.00000000 NULL      -0.16751600       0.07728900       0.08506500
P        4.60086157       1.50630126      10.31599085       0.00000000 NULL       0.16751600      -0.07728900       0.08506400
P        1.50630126       6.08916080       7.22276479       0.00000000 NULL      -0.07728900      -0.16751600       0.08506500
P        9.18372112       4.60086157       1.03631267       0.00000000 NULL       0.07728900       0.16751600       0.08506500
P       10.39350342       3.25926458       3.67234010       0.00000000 NULL      -0.10034600      -0.11182500       0.28701300
P        0.29651896       7.43075780       9.85879222       0.00000000 NULL       0.10034600       0.11182500       0.28701300
P        7.43075780      10.39350342       6.76556616       0.00000000 NULL       0.11182500      -0.10034500       0.28701300
P        3.25926458       0.29651896       0.57911404       0.00000000 NULL      -0.11182500       0.10034500       0.28701300
P        7.95353260      10.59685431       1.81944000       0.00000000 NULL      -0.13257100       0.21347700       0.06282000
P        2.73648977       0.09316807       8.00589212       0.00000000 NULL       0.13257100      -0.21347700       0.06282000
P        0.09316807       7.95353260       4.91266606       0.00000000 NULL      -0.21347700      -0.13257100       0.06282000
P       10.59685431       2.73648977      11.09911818       0.00000000 NULL       0.21347700       0.13257100       0.06281900
P        9.00569910       6.13087191       5.73212496       0.00000000 NULL      -0.19142000      -0.11580700      -0.25855000
P        1.68432328       4.55915047      11.91857708       0.00000000 NULL       0.19142100       0.11580700      -0.25855200
P        4.55915047       9.00569910       8.82535102       0.00000000 NULL       0.11580700      -0.19142000      -0.25855100
P        6.13087191       1.68432328       2.63889890       0.00000000 NULL      -0.11580600       0.19142000      -0.25855000
P        6.15705167       4.79494643       4.51940135       0.00000000 NULL       0.61251800       0.02177600      -0.65451000
P        4.53297071       5.89507595      10.70585347       0.00000000 NULL      -0.61251800      -0.02177600      -0.65451100
P        5.89507595       6.15705167       7.61262741       0.00000000 NULL      -0.02177600       0.61251800      -0.65451000
P        4.79494643       4.53297071       1.42617529       0.00000000 NULL       0.02177600      -0.61251800      -0.65450900
P        6.45891786       2.27893959       9.01096375       0.00000000 NULL      -0.23573600      -0.53888400       0.04086500
P        4.23110452       8.41108279       2.82451163       0.00000000 NULL       0.23573600       0.53888400       0.04086500
P        8.41108279       6.45891786      12.10418981       0.00000000 NULL       0.53888400      -0.23573600       0.04086500
P        2.27893959       4.23110452       5.91773769       0.00000000 NULL      -0.53888400       0.23573600       0.04086500
P        3.29961574      10.26843788      10.21486517       0.00000000 NULL       0.35720600       0.08415400      -0.44749300
P        7.39040664       0.42158450       4.02841306       0.00000000 NULL      -0.35720600      -0.08415400      -0.44749300
P        0.42158450       3.29961574       0.93518700       0.00000000 NULL      -0.08415400       0.35720600      -0.44749200
P       10.26843788       7.39040664       7.12163912       0.00000000 NULL       0.08415400      -0.35720600      -0.44749300
P       10.75967924       8.66957108       0.98506368       0.00000000 NULL       0.10588400      -0.22754800      -0.32556900
P       -0.06965686       2.02045130       7.17151580       0.00000000 NULL      -0.10588400       0.22754900      -0.32557000
P        2.02045130      10.75967924       4.07828974       0.00000000 NULL       0.22754900       0.10588400      -0.32557000
P        8.66957108      -0.06965686      10.26474186       0.00000000 NULL      -0.22754900      -0.10588300      -0.32557000
P        8.32276189       8.59842315       0.85425538       0.00000000 NULL       0.21559500      -0.15487200       0.34327400
P        2.36726049       2.09159923       7.04070750       0.00000000 NULL      -0.21559400       0.15487200       0.34327200
P        2.09159923       8.32276189       3.94748144       0.00000000 NULL       0.15487200       0.21559400       0.34327200
P        8.59842315       2.36726049      10.13393356       0.00000000 NULL      -0.15487200      -0.21559400       0.34327200
P        4.52138795       2.32077442      12.53668924       0.00000000 NULL      -0.00906200       0.08187600       0.14308700
P        6.16863443       8.36924796       6.35023712       0.00000000 NULL       0.00906200      -0.08187700       0.14308600
P        8.36924796       4.52138795       3.25701106       0.00000000 NULL      -0.08187700      -0.00906200       0.14308600
P        2.32077442       6.16863443       9.44346318       0.00000000 NULL       0.08187700       0.00906200       0.14308600
P        0.97842187       0.81212375      10.85705994       0.00000000 NULL      -0.01034800       1.16700100       0.31178600
P        9.71160051       9.87789863       4.67060782       0.00000000 NULL       0.01034700      -1.16700200       0.31178600
P        9.87789863       0.97842187       1.57738176       0.00000000 NULL      -1.16700200      -0.01034800       0.31178600
P        0.81212375       9.71160051       7.76383388       0.00000000 NULL       1.16700200       0.01034700       0.31178600
P        6.96691513       0.08128879       8.80239530       0.00000000 NULL      -0.46787100       0.12680600       0.40374600
P        3.72310725      10.60873359       2.61594318       0.00000000 NULL       0.46787100      -0.12680600       0.40374700
P       10.60873359       6.96691513      11.89562136       0.00000000 NULL      -0.12680600      -0.46787200       0.40374600
P        0.08128879       3.72310725       5.70916924       0.00000000 NULL       0.12680600       0.46787100       0.40374600
P        3.40504862       5.88952579       0.25980025       0.00000000 NULL       0.13107400      -0.19031400       0.07154000
P        7.28497376       4.80049659       6.44625237       0.00000000 NULL      -0.13107400       0.19031400       0.07153900
P        4.80049659       3.40504862       3.35302631       0.00000000 NULL       0.19031400       0.13107400       0.07153900
P        5.88952579       7.28497376       9.53947843       0.00000000 NULL      -0.19031400      -0.13107400       0.07153900
P        1.62951528       7.41355664       2.01440997       0.00000000 NULL      -0.35308900       0.21255000       0.28908400
P        9.06050710       3.27646574       8.20086209       0.00000000 NULL       0.35308900      -0.21254900       0.28908300
P        3.27646574       1.62951528       5.10763603       0.00000000 NULL      -0.21254900      -0.35309000       0.28908300
P        7.41355664       9.06050710      11.29408815       0.00000000 NULL       0.21254900       0.35309000       0.28908200
64
Lattice="10.607136647190858 0.0 0.0 0.0 10.607136647190858 0.0 0.0 0.0 11.981912490530615" Properties=species:S:1:pos:R:3:initial_magmoms:R:1:castep_labels:S:1:forces:R:3 n_minim_iter=3 energy=-325.111342751149 stress="0.012687905421860737 -0.0 -0.0 -0.0 0.012687905421860737 -0.0 -0.0 -0.0 -0.013672616392166112" free_energy=-325.111342751149 pbc="T T T"
P        7.98877075       8.03685624       4.78566613       0.00000000 NULL      -0.41160400      -0.26695500      -0.78704200
P        2.61836589       2.57028041      10.77662237       0.00000000 NULL       0.41160300       0.26695500      -0.78704300
P        2.57028041       7.98877075       7.78114425       0.00000000 NULL       0.26695500      -0.41160400      -0.78704300
P        8.03685624       2.61836589       1.79018800       0.00000000 NULL      -0.26695500       0.41160400      -0.78704300
P        2.85030772       4.00633083       8.49812501       0.00000000 NULL      -0.10450200      -0.47643300       0.42622900
P        7.75682893       6.60080582       2.50716876       0.00000000 NULL       0.10450200       0.47643300       0.42622900
P        6.60080582       2.85030772      11.49360313       0.00000000 NULL       0.47643400      -0.10450200       0.42622900
P        4.00633083       7.75682893       5.50264688       0.00000000 NULL      -0.47643300       0.10450200       0.42622900
P        5.99217548       9.11556065       3.97385658       0.00000000 NULL       0.02939300       0.29184700       0.24197100
P        4.61496116       1.49157599       9.96481283       0.00000000 NULL      -0.02939300      -0.29184700       0.24197000
P        1.49157599       5.99217548       6.96933471       0.00000000 NULL      -0.29184600       0.02939300       0.24197100
P        9.11556065       4.61496116       0.97837846       0.00000000 NULL       0.29184700      -0.02939400       0.24197300
P       10.33312642       3.22902865       3.59703882       0.00000000 NULL      -0.36402300      -0.32804100      -0.59987100
P        0.27401022       7.37810800       9.58799507       0.00000000 NULL       0.36402300       0.32804100      -0.59987100
P        7.37810800      10.33312642       6.59251694       0.00000000 NULL       0.32804100      -0.36402300      -0.59987100
P        3.22902865       0.27401022       0.60156070       0.00000000 NULL      -0.32804100       0.36402300      -0.59987000
P        7.81190893      10.50149665       1.79374379       0.00000000 NULL       0.16568200       0.11028800      -0.73239800
P        2.79522771       0.10564000       7.78470004       0.00000000 NULL      -0.16568200      -0.11028700      -0.73239900
P        0.10564000       7.81190893       4.78922192       0.00000000 NULL      -0.11028700       0.16568200      -0.73239900
P       10.50149665       2.79522771      10.78017816       0.00000000 NULL       0.11028700      -0.16568300      -0.73240300
P        8.94196149       6.03813806       5.49306271       0.00000000 NULL      -0.32478700      -0.19408300      -0.03608400
P        1.66517516       4.56899858      11.48401896       0.00000000 NULL       0.32478700       0.19408400      -0.03608600
P        4.56899858       8.94196149       8.48854083       0.00000000 NULL       0.19408300      -0.32478700      -0.03608400
P        6.03813806       1.66517516       2.49758459       0.00000000 NULL      -0.19408300       0.32478600      -0.03608400
P        6.17727436       4.77350991       4.28205425       0.00000000 NULL       0.43916300       0.16094300      -0.19646300
P        4.42986229       5.83362674      10.27301049       0.00000000 NULL      -0.43916200      -0.16094400      -0.19646500
P        5.83362674       6.17727436       7.27753237       0.00000000 NULL      -0.16094300       0.43916300      -0.19646300
P        4.77350991       4.42986229       1.28657613       0.00000000 NULL       0.16094400      -0.43916200      -0.19646300
P        6.35521765       2.24559433       8.70112448       0.00000000 NULL      -0.26783000      -0.39627200      -0.14672100
P        4.25191900       8.36154231       2.71016823       0.00000000 NULL       0.26783100       0.39627200      -0.14672100
P        8.36154231       6.35521765      11.69660260       0.00000000 NULL       0.39627100      -0.26783100      -0.14672200
P        2.24559433       4.25191900       5.70564636       0.00000000 NULL      -0.39627200       0.26783100      -0.14672100
P        3.29813036      10.17518916       9.85821599       0.00000000 NULL       0.46070700       0.09808900       0.39573500
P        7.30900629       0.43194748       3.86725974       0.00000000 NULL      -0.46070700      -0.09809000       0.39573500
P        0.43194748       3.29813036       0.87178162       0.00000000 NULL      -0.09809000       0.46070700       0.39574000
P       10.17518916       7.30900629       6.86273786       0.00000000 NULL       0.09809000      -0.46070700       0.39573500
P       10.70294724       8.60294181       0.90010586       0.00000000 NULL       0.03354500       0.12104100       0.04256000
P       -0.09581060       2.00419484       6.89106210       0.00000000 NULL      -0.03354500      -0.12104000       0.04255800
P        2.00419484      10.70294724       3.89558398       0.00000000 NULL      -0.12104000       0.03354400       0.04255800
P        8.60294181      -0.09581060       9.88654022       0.00000000 NULL       0.12104000      -0.03354400       0.04255800
P        8.26017092       8.51000679       0.86896698       0.00000000 NULL       0.49946300      -0.37808800       0.70012500
P        2.34696573       2.09712985       6.85992322       0.00000000 NULL      -0.49946100       0.37808800       0.70012100
P        2.09712985       8.26017092       3.86444510       0.00000000 NULL       0.37808900       0.49946100       0.70012100
P        8.51000679       2.34696573       9.85540135       0.00000000 NULL      -0.37808900      -0.49946100       0.70012100
P        4.49258170       2.30721013      12.21469839       0.00000000 NULL      -0.20934200      -0.02226700      -0.21620000
P        6.11455495       8.29992652       6.22374215       0.00000000 NULL       0.20934200       0.02226700      -0.21620100
P        8.29992652       4.49258170       3.22826403       0.00000000 NULL       0.02226700      -0.20934100      -0.21620100
P        2.30721013       6.11455495       9.21922027       0.00000000 NULL      -0.02226700       0.20934200      -0.21620200
P        0.94913355       0.86894652      10.55372632       0.00000000 NULL       0.22846200       1.09737400       0.14230400
P        9.65800309       9.73819012       4.56277008       0.00000000 NULL      -0.22846200      -1.09737500       0.14230400
P        9.73819012       0.94913355       1.56729196       0.00000000 NULL      -1.09737500       0.22846200       0.14230400
P        0.86894652       9.65800309       7.55824820       0.00000000 NULL       1.09737500      -0.22846200       0.14230400
P        6.85341285       0.04087142       8.54892122       0.00000000 NULL      -0.73161500       0.37631500       0.94572800
P        3.75372379      10.56626522       2.55796497       0.00000000 NULL       0.73161500      -0.37631500       0.94572900
P       10.56626522       6.85341285      11.54439934       0.00000000 NULL      -0.37631500      -0.73161600       0.94572600
P        0.04087142       3.75372379       5.55344310       0.00000000 NULL       0.37631500       0.73161500       0.94572800
P        3.39111512       5.87673371       0.29034889       0.00000000 NULL       0.14084600      -0.24942100      -0.13291300
P        7.21602153       4.73040294       6.28130514       0.00000000 NULL      -0.14084500       0.24942100      -0.13291600
P        4.73040294       3.39111512       3.28582702       0.00000000 NULL       0.24942100       0.14084500      -0.13291600
P        5.87673371       7.21602153       9.27678326       0.00000000 NULL      -0.24942100      -0.14084500      -0.13291600
P        1.58725113       7.35423948       1.99536001       0.00000000 NULL      -0.45473400      -0.16594300      -0.04695000
P        9.01988552       3.25289716       7.98631625       0.00000000 NULL       0.45473400       0.16594300      -0.04695000
P        3.25289716       1.58725113       4.99083813       0.00000000 NULL       0.16594300      -0.45473400      -0.04695000
P        7.35423948       9.01988552      10.98179438       0.00000000 NULL      -0.16594500       0.45473500      -0.04695300
64
Lattice="10.416593265187117 0.0 0.0 0.0 10.416593265187117 0.0 0.0 0.0 12.357134462320067" Properties=species:S:1:pos:R:3:initial_magmoms:R:1:castep_labels:S:1:forces:R:3 n_minim_iter=4 energy=-326.541607180289 stress="0.008942264265904358 -0.0 -0.0 -0.0 0.008942256807758843 -0.0 -0.0 -0.0 -0.0038397665534216892" free_energy=-326.541607180289 pbc="T T T"
P        7.81021188       7.86793966       4.88723245       0.00000000 NULL      -0.58836900      -0.09690700      -0.79277600
P        2.60638139       2.54865361      11.06579969       0.00000000 NULL       0.58836900       0.09690800      -0.79277700
P        2.54865361       7.81021188       7.97651607       0.00000000 NULL       0.09690700      -0.58836900      -0.79277600
P        7.86793966       2.60638139       1.79794884       0.00000000 NULL      -0.09690800       0.58836900      -0.79277600
P        2.78583828       3.90041828       8.78065745       0.00000000 NULL      -0.14893800      -0.34617000       0.59753000
P        7.63075499       6.51617498       2.60209021       0.00000000 NULL       0.14893800       0.34617000       0.59753000
P        6.51617498       2.78583828      11.86994106       0.00000000 NULL       0.34617100      -0.14893700       0.59753000
P        3.90041828       7.63075499       5.69137383       0.00000000 NULL      -0.34617000       0.14893800       0.59753000
P        5.85224091       8.95437595       4.08147085       0.00000000 NULL      -0.00627900       0.32180300       0.51345000
P        4.56435235       1.46221732      10.26003808       0.00000000 NULL       0.00627800      -0.32180300       0.51344900
P        1.46221732       5.85224091       7.17075447       0.00000000 NULL      -0.32180300      -0.00627900       0.51345000
P        8.95437595       4.56435235       0.99218724       0.00000000 NULL       0.32180300       0.00627700       0.51345100
P       10.15998102       3.16715438       3.73615936       0.00000000 NULL      -0.24780100      -0.10777500      -0.15157900
P        0.25661224       7.24943889       9.91472659       0.00000000 NULL       0.24780100       0.10777400      -0.15157900
P        7.24943889      10.15998102       6.82544297       0.00000000 NULL       0.10777500      -0.24780100      -0.15157900
P        3.16715438       0.25661224       0.64687574       0.00000000 NULL      -0.10777500       0.24780100      -0.15157900
P        7.61985408      10.30431249       1.87015568       0.00000000 NULL       0.05797800      -0.18857300      -0.54368100
P        2.79673919       0.11228078       8.04872291       0.00000000 NULL      -0.05797800       0.18857300      -0.54368100
P        0.11228078       7.61985408       4.95943930       0.00000000 NULL       0.18857400       0.05797800      -0.54368100
P       10.30431249       2.79673919      11.13800653       0.00000000 NULL      -0.18857400      -0.05797900      -0.54368500
P        8.78474610       5.89983614       5.62549770       0.00000000 NULL      -0.32794300      -0.24314100       0.23235900
P        1.63184717       4.51675712      11.80406493       0.00000000 NULL       0.32794300       0.24314100       0.23235800
P        4.51675712       8.78474610       8.71478131       0.00000000 NULL       0.24314100      -0.32794300       0.23235900
P        5.89983614       1.63184717       2.53621408       0.00000000 NULL      -0.24314100       0.32794300       0.23236000
P        6.11114757       4.69836888       4.35144066       0.00000000 NULL       0.13105600       0.12422000       0.40781900
P        4.30544570       5.71822438      10.53000789       0.00000000 NULL      -0.13105600      -0.12422000       0.40781700
P        5.71822438       6.11114757       7.44072427       0.00000000 NULL      -0.12422000       0.13105600       0.40781900
P        4.69836888       4.30544570       1.26215704       0.00000000 NULL       0.12422100      -0.13105600       0.40781900
P        6.20565482       2.19458001       8.95607606       0.00000000 NULL      -0.15150400      -0.19932700      -0.39742200
P        4.21093844       8.22201325       2.77750883       0.00000000 NULL       0.15150400       0.19932700      -0.39742200
P        8.22201325       6.20565482      12.04535967       0.00000000 NULL       0.19932600      -0.15150400      -0.39742400
P        2.19458001       4.21093844       5.86679244       0.00000000 NULL      -0.19932700       0.15150400      -0.39742200