18
Lattice="5.475838271587999 2.3881150872059823e-17 0.8575317942041132 -7.576598298035634e-17 6.908817584232624 8.845274506975869e-17 -1.1609216788170726 -1.4004431471174709e-16 8.80594876097909" Properties=species:S:1:pos:R:3:initial_magmoms:R:1:castep_labels:S:1:forces:R:3 n_minim_iter=1 energy=-96.477668863095 stress="0.0020815786626002695 0.0 0.0007165150323113167 0.0 0.00030368732190808425 -0.0 0.0007165150323113167 -0.0 0.0017573925935132262" free_energy=-96.477668863095 pbc="T T T"
P        0.77603601       2.92631919       1.53652677       0.00000000 NULL       0.03022100      -0.00303400      -0.00829900
P        2.93349430       3.98249840       6.36826705       0.00000000 NULL       0.03021900       0.00303300      -0.00829800
P       -0.18043009       1.13326158       2.58402908       0.00000000 NULL       0.00859200       0.01466900      -0.04826000
P        1.97702820       5.77555600       7.41576936       0.00000000 NULL       0.00859000      -0.01466900      -0.04825900
P        4.11319116       0.77859218       6.51537667       0.00000000 NULL       0.04530000       0.00625000       0.07555800
P        1.95573286       6.13022541       1.68363639       0.00000000 NULL       0.04530400      -0.00624800       0.07555500
P        4.98064573       6.23643484       5.08471776       0.00000000 NULL      -0.04144200      -0.09598300      -0.03623400
P        1.66226575       0.67238275       9.05892624       0.00000000 NULL      -0.04144600       0.09598100      -0.03623000
P       -0.26448102       4.01451096       5.73859090       0.00000000 NULL      -0.04107900       0.05380200      -0.05213600
P        3.05389895       2.89430663       1.76438242       0.00000000 NULL      -0.04108000      -0.05380200      -0.05213600
P        3.08848845       5.25403946       4.41023742       0.00000000 NULL       0.11818900      -0.01559500       0.05850600
P       -0.22989153       1.65477813       8.38444590       0.00000000 NULL       0.11819000       0.01559500       0.05850700
P        3.32039234       2.09357193       3.80085475       0.00000000 NULL      -0.04965400      -0.04481700      -0.03542400
P        0.00201236       4.81524565       7.77506323       0.00000000 NULL      -0.04965200       0.04481700      -0.03542400
P        1.92231090       0.31837997       3.66792077       0.00000000 NULL       0.00906000       0.01044700       0.03455100
P        4.07976920       6.59043762       8.49966105       0.00000000 NULL       0.00905900      -0.01044600       0.03455100
P        0.46655182       1.91743181       6.18437763       0.00000000 NULL      -0.07918500      -0.00663100       0.01173600
P        3.78493179       4.99138578       2.21016915       0.00000000 NULL      -0.07918700       0.00663200       0.01173600
18
Lattice="5.465088549729541 -2.897237182772275e-18 0.8526742926878655 -1.0138041855853206e-16 6.906938305039309 2.5123253286384645e-17 -1.1644016856216755 -2.141660908071462e-16 8.792842110075126" Properties=species:S:1:pos:R:3:initial_magmoms:R:1:castep_labels:S:1:forces:R:3 n_minim_iter=2 energy=-96.479184743366 stress="-0.00020073132998145934 -0.0 0.00031907425673082266 -0.0 -0.0011927868897883569 0.0 0.00031907425673082266 0.0 -0.00012619506406922628" free_energy=-96.479184743366 pbc="T T T"
P        0.77368536       2.92551520       1.53359090       0.00000000 NULL       0.00700300       0.01028200      -0.00871700
P        2.92402879       3.98142310       6.35634910       0.00000000 NULL       0.00700500      -0.01028200      -0.00871700
P       -0.18172707       1.13299196       2.57995341       0.00000000 NULL       0.01940800       0.00601500      -0.05206900
P        1.96861636       5.77394635       7.40271162       0.00000000 NULL       0.01941100      -0.00601400      -0.05207000
P        4.10147339       0.77839685       6.50269198       0.00000000 NULL       0.01200500       0.00764600       0.05643000
P        1.95112996       6.12854145       1.67993378       0.00000000 NULL       0.01200100      -0.00764700       0.05643200
P        4.96800088       6.23448565       5.07343355       0.00000000 NULL      -0.01194800      -0.09100300      -0.03251500
P        1.65325576       0.67245266       9.04351746       0.00000000 NULL      -0.01194400       0.09100300      -0.03251700
P       -0.26777338       4.01356067       5.72959730       0.00000000 NULL      -0.02528900       0.04795000      -0.07695800
P        3.04697174       2.89337763       1.75951339       0.00000000 NULL      -0.02528700      -0.04795000      -0.07695800
P        3.08022007       5.25256922       4.40147544       0.00000000 NULL       0.09359200      -0.03366600       0.05626000
P       -0.23452505       1.65436908       8.37155934       0.00000000 NULL       0.09358900       0.03366700       0.05625900
P        3.31164123       2.09288441       3.79265585       0.00000000 NULL      -0.04875700      -0.03052400       0.00094200
P       -0.00310388       4.81405389       7.76273976       0.00000000 NULL      -0.04876200       0.03052400       0.00094200
P        1.91640356       0.31832088       3.66101076       0.00000000 NULL      -0.00190900       0.01685000       0.04618100
P        4.06674699       6.58861742       8.48376896       0.00000000 NULL      -0.00190600      -0.01685000       0.04618100
P        0.46151175       1.91689278       6.17438252       0.00000000 NULL      -0.04410700       0.00101900       0.01044700
P        3.77625687       4.99004553       2.20429861       0.00000000 NULL      -0.04410500      -0.00102100       0.01044800
18
Lattice="5.460522688082458 1.8925312591835184e-17 0.8459030412823444 -8.877321037473301e-17 6.925142243988321 1.4241111335555883e-16 -1.173625371648805 -7.431084381747446e-17 8.78838831345849" Properties=species:S:1:pos:R:3:initial_magmoms:R:1:castep_labels:S:1:forces:R:3 n_minim_iter=3 energy=-96.480155870197 stress="-0.0002269115360922326 -0.0 -0.00027576075206012 -0.0 0.0005599529318612272 0.0 -0.00027576075206012 0.0 0.00016175959445733146" free_energy=-96.480155870197 pbc="T T T"
P        0.77153027       2.93329216       1.53163047       0.00000000 NULL      -0.00263500      -0.01175800      -0.01089500
P        2.91497893       3.99185008       6.34877615       0.00000000 NULL      -0.00263200       0.01175900      -0.01089600
P       -0.18439026       1.13604326       2.57802859       0.00000000 NULL       0.02613800       0.01232600      -0.05193000
P        1.95905840       5.78909898       7.39517426       0.00000000 NULL       0.02614000      -0.01232500      -0.05193100
P        4.09153942       0.78051143       6.49426739       0.00000000 NULL       0.01345300      -0.02038400       0.02932900
P        1.94809076       6.14463081       1.67712171       0.00000000 NULL       0.01344800       0.02038300       0.02933100
P        4.95881907       6.25013247       5.06417247       0.00000000 NULL      -0.00846800      -0.06258800      -0.00490600
P        1.64174504       0.67500978       9.03541511       0.00000000 NULL      -0.00846400       0.06258900      -0.00490900
P       -0.27434513       4.02455750       5.72552395       0.00000000 NULL      -0.01759700       0.03002200      -0.07939700
P        3.04272890       2.90058474       1.75428131       0.00000000 NULL      -0.01759600      -0.03002200      -0.07939700
P        3.07402397       5.26615442       4.39556214       0.00000000 NULL       0.07728100      -0.04117800       0.04925400
P       -0.24305006       1.65898782       8.36680478       0.00000000 NULL       0.07727900       0.04117800       0.04925300
P        3.30473746       2.09811699       3.78635136       0.00000000 NULL      -0.04140800      -0.03804500       0.01408100
P       -0.01233657       4.82702526       7.75759399       0.00000000 NULL      -0.04141100       0.03804500       0.01408100
P        1.91098311       0.31929344       3.65680089       0.00000000 NULL       0.00066600       0.02686900       0.03389300
P        4.05443177       6.60584880       8.47394657       0.00000000 NULL       0.00066800      -0.02686900       0.03389200
P        0.45376264       1.92194141       6.16989298       0.00000000 NULL      -0.04743300       0.02317700       0.02057400
P        3.77083667       5.00320084       2.19865035       0.00000000 NULL      -0.04743100      -0.02317800       0.02057400
18
Lattice="5.476015152810019 1.9412580226682332e-17 0.8485878223365493 -8.700668802286178e-17 6.926477655218646 1.3389417855279745e-16 -1.1680713303795498 -8.455683890354548e-17 8.759518800194662" Properties=species:S:1:pos:R:3:initial_magmoms:R:1:castep_labels:S:1:forces:R:3 n_minim_iter=4 energy=-96.482854291673 stress="0.001025449710908168 0.0 6.51116627849898e-05 0.0 0.0004059747561417366 -0.0 6.51116627849898e-05 -0.0 -0.0014971848873445274" free_energy=-96.482854291673 pbc="T T T"
P        0.77524330       2.93356427       1.52688701       0.00000000 NULL       0.01889800       0.01986300       0.00891100
P        2.92921521       3.99291339       6.33094032       0.00000000 NULL       0.01889700      -0.01986300       0.00891100
P       -0.18077589       1.13696115       2.56627763       0.00000000 NULL      -0.01190000       0.01623100      -0.02790000
P        1.97319602       5.78951650       7.37033094       0.00000000 NULL      -0.01190100      -0.01623100      -0.02789900
P        4.10990471       0.77996962       6.48044284       0.00000000 NULL       0.03207400      -0.02442700       0.00996700
P        1.95593280       6.14650804       1.67638953       0.00000000 NULL       0.03207500       0.02442700       0.00996600
P        4.97641078       6.24643850       5.05206381       0.00000000 NULL       0.00984000      -0.03573300       0.00985200
P        1.65436754       0.68003915       9.00752930       0.00000000 NULL       0.00983900       0.03573200       0.00985300
P       -0.27080392       4.02779770       5.70206488       0.00000000 NULL      -0.03606200       0.01184000      -0.06050700
P        3.05123932       2.89867996       1.74659940       0.00000000 NULL      -0.03606300      -0.01184000      -0.06050700
P        3.09223539       5.26464297       4.38814034       0.00000000 NULL       0.02408400      -0.00129600       0.03551600
P       -0.22980785       1.66183469       8.34360583       0.00000000 NULL       0.02408400       0.00129600       0.03551600
P        3.31441506       2.09611106       3.77816842       0.00000000 NULL       0.01467900      -0.05284200      -0.00761200
P       -0.00762818       4.83036659       7.73363391       0.00000000 NULL       0.01468100       0.05284200      -0.00761200
P        1.91974222       0.32089561       3.64964889       0.00000000 NULL      -0.01464100       0.00794900       0.05773900
P        4.07371413       6.60558204       8.45370220       0.00000000 NULL      -0.01464200      -0.00794800       0.05774000
P        0.45790553       1.92330762       6.15200921       0.00000000 NULL      -0.03697200       0.03058600      -0.02596800
P        3.77994877       5.00317003       2.19654372       0.00000000 NULL      -0.03697300      -0.03058600      -0.02596800
18
Lattice="5.4714879999757935 1.9349353260862767e-17 0.852574177344108 -8.684654963878307e-17 6.921287063507707 1.3353403863209365e-16 -1.1633282855695357 -8.522488257640863e-17 8.776296209045173" Properties=species:S:1:pos:R:3:initial_magmoms:R:1:castep_labels:S:1:forces:R:3 n_minim_iter=5 energy=-96.484549352719 stress="-6.55915103006534e-05 -0.0 6.220138729634996e-06 -0.0 3.938438551086425e-05 0.0 6.220138729634996e-06 0.0 7.726532516764609e-05" free_energy=-96.484549352719 pbc="T T T"
P        0.77542006       2.93133931       1.52986929       0.00000000 NULL       0.00327000       0.02878300       0.00664700
P        2.92949992       3.98994775       6.34430449       0.00000000 NULL       0.00327000      -0.02878200       0.00664600
P       -0.17864000       1.13667282       2.56887226       0.00000000 NULL      -0.01336900       0.00909800      -0.01592400
P        1.97543986       5.78461424       7.38330746       0.00000000 NULL      -0.01336900      -0.00909800      -0.01592500
P        4.10981967       0.77876672       6.49671251       0.00000000 NULL       0.01574700      -0.04584800       0.01236900
P        1.95573982       6.14252034       1.68227732       0.00000000 NULL       0.01574600       0.04584600       0.01237100
P        4.97372014       6.23838360       5.06356433       0.00000000 NULL       0.04211700      -0.00593000       0.04072600
P        1.65631199       0.68290346       9.02542535       0.00000000 NULL       0.04211800       0.00593200       0.04072300
P       -0.26930927       4.02642968       5.70948330       0.00000000 NULL      -0.01582500       0.03052500       0.01015100
P        3.04809888       2.89485739       1.74762229       0.00000000 NULL      -0.01582600      -0.03052500       0.01015100
P        3.09505730       5.25909204       4.40054133       0.00000000 NULL      -0.03004000      -0.01298700      -0.00500600
P       -0.22235085       1.66219502       8.36240235       0.00000000 NULL      -0.03003900       0.01298700      -0.00500600
P        3.31130797       2.09261535       3.78728897       0.00000000 NULL       0.02671200      -0.01087700      -0.06185000
P       -0.00610017       4.82867171       7.74914998       0.00000000 NULL       0.02671200       0.01087600      -0.06185000
P        1.91946367       0.32168739       3.65968568       0.00000000 NULL      -0.02125500      -0.02365100       0.03398400
P        4.07354353       6.59959967       8.47412087       0.00000000 NULL      -0.02125500       0.02365100       0.03398300
P        0.45780716       1.92272571       6.16484910       0.00000000 NULL      -0.00735700       0.02379100      -0.02109500
P        3.77521530       4.99856135       2.20298809       0.00000000 NULL      -0.00735700      -0.02379100      -0.02109500
18
Lattice="5.483025795773646 1.8029230738974642e-17 0.8506769670245965 -8.666893170142353e-17 6.911350870630445 1.2040623601349874e-16 -1.1690869338945058 -1.0194524137903245e-16 8.777966366082207" Properties=species:S:1:pos:R:3:initial_magmoms:R:1:castep_labels:S:1:forces:R:3 n_minim_iter=6 energy=-96.487850479944 stress="0.0001981647401728882 -0.0 -0.0003622809607798045 -0.0 -0.00028411074371398326 0.0 -0.0003622809607798045 0.0 2.5536389674478904e-05" free_energy=-96.487850479944 pbc="T T T"
P        0.77760625       2.93241349       1.53032917       0.00000000 NULL      -0.02269500       0.02052200       0.01400500
P        2.93457568       3.97893738       6.34465084       0.00000000 NULL      -0.02269400      -0.02052100       0.01400400
P       -0.18071673       1.13775809       2.56183173       0.00000000 NULL      -0.00653600       0.00388100      -0.01607900
P        1.97625270       5.77359278       7.37615340       0.00000000 NULL      -0.00653400      -0.00388100      -0.01608000
P        4.12081018       0.76823985       6.50181554       0.00000000 NULL      -0.00258300       0.00949800      -0.00758600
P        1.96384075       6.14311102       1.68749388       0.00000000 NULL      -0.00258500      -0.00949900      -0.00758500
P        4.98950984       6.22174523       5.06857950       0.00000000 NULL      -0.02544000      -0.03954600       0.01329900
P        1.66345348       0.68960564       9.03222420       0.00000000 NULL      -0.02543700       0.03954700       0.01329700
P       -0.27714871       4.02942628       5.70504783       0.00000000 NULL      -0.02920500       0.00224600      -0.01564100
P        3.04890766       2.88192460       1.74140313       0.00000000 NULL      -0.02920300      -0.00224700      -0.01564000
P        3.10193979       5.24613750       4.40387248       0.00000000 NULL      -0.00586400       0.01126500      -0.04720900
P       -0.22411657       1.66521337       8.36751718       0.00000000 NULL      -0.00586500      -0.01126500      -0.04721000
P        3.31856376       2.08393566       3.77595227       0.00000000 NULL       0.03736600      -0.00625700       0.01240300
P       -0.00749260       4.82741521       7.73959697       0.00000000 NULL       0.03736500       0.00625700       0.01240300
P        1.91817833       0.31888156       3.66961106       0.00000000 NULL       0.03115600      -0.04599300       0.02688400
P        4.07514776       6.59246931       8.48393273       0.00000000 NULL       0.03115600       0.04599300       0.02688400
P        0.45078507       1.92586856       6.16268662       0.00000000 NULL       0.02379800      -0.01902700       0.01992600
P        3.77684144       4.98548231       2.19904192       0.00000000 NULL       0.02380000       0.01902600       0.01992600
18
Lattice="5.480733014817879 -2.1230403251192845e-18 0.8582377460122468 -1.1610404594920025e-16 6.916778735113618 1.3897464999377285e-16 -1.1557969809403812 -7.509042142922093e-17 8.77384749659771" Properties=species:S:1:pos:R:3:initial_magmoms:R:1:castep_labels:S:1:forces:R:3 n_minim_iter=7 energy=-96.488284999596 stress="-0.00017925052310482936 -0.0 0.00020172680069381615 -0.0 9.102450557007768e-05 -0.0 0.00020172680069381615 -0.0 -8.039025103583883e-05" free_energy=-96.488284999596 pbc="T T T"
P        0.77916574       2.93564882       1.53124167       0.00000000 NULL      -0.02702400       0.02104500       0.02110300
P        2.94163376       3.98112991       6.34728429       0.00000000 NULL      -0.02702400      -0.02104400       0.02110300
P       -0.17711736       1.13905683       2.55968779       0.00000000 NULL       0.00689400       0.00191700      -0.01856400
P        1.98535066       5.77772190       7.37573041       0.00000000 NULL       0.00689400      -0.00191700      -0.01856400
P        4.12802677       0.76771688       6.50651719       0.00000000 NULL      -0.00757200       0.02056100       0.00569200
P        1.96555876       6.14906186       1.69047457       0.00000000 NULL      -0.00757300      -0.02056100       0.00569300
P        4.99415345       6.22515284       5.07522526       0.00000000 NULL      -0.02011100      -0.04463500      -0.00322100
P        1.67588845       0.69162590       9.03303014       0.00000000 NULL      -0.02011100       0.04463600      -0.00322200
P       -0.26984607       4.03377039       5.70217771       0.00000000 NULL      -0.01208800      -0.00443000      -0.01832700
P        3.04841893       2.88300835       1.74437284       0.00000000 NULL      -0.01208800       0.00443000      -0.01832700
P        3.10641660       5.24968329       4.40699552       0.00000000 NULL      -0.01030600       0.01981800      -0.04301800
P       -0.21184840       1.66709544       8.36480040       0.00000000 NULL      -0.01030700      -0.01981900      -0.04302100
P        3.32247386       2.08475121       3.77835929       0.00000000 NULL       0.01076500      -0.00669700       0.02085100
P        0.00420887       4.83202753       7.73616417       0.00000000 NULL       0.01076600       0.00669800       0.02085000
P        1.92203555       0.31827323       3.67295114       0.00000000 NULL       0.03239200      -0.04461600       0.02977900
P        4.08450357       6.59850550       8.48899376       0.00000000 NULL       0.03239100       0.04461600       0.02977900
P        0.45882740       1.92792896       6.16146702       0.00000000 NULL       0.02705100      -0.01299700       0.00570600
P        3.77709240       4.98884977       2.20366214       0.00000000 NULL       0.02705100       0.01299700       0.00570700
18
Lattice="5.507240885612694 -1.1161562628671191e-18 0.8578771757309929 -1.1572548561031632e-16 6.881362756932859 1.409461508178597e-16 -1.1605000856175067 -7.21551314005741e-17 8.764290667620012" Properties=species:S:1:pos:R:3:initial_magmoms:R:1:castep_labels:S:1:forces:R:3 n_minim_iter=8 energy=-96.49548864217 stress="-0.00025168584648213485 0.0 -3.038401569111567e-06 0.0 -0.0006049664017411653 0.0 -3.038401569111567e-06 0.0 -0.0003869684639185003" free_energy=-96.49548864217 pbc="T T T"
P        0.77349548       2.93904290       1.53888202       0.00000000 NULL      -0.00748200      -0.01921400       0.00719000
P        2.94686588       3.94231986       6.34996594       0.00000000 NULL      -0.00748100       0.01921400       0.00719000
P       -0.17813417       1.13932775       2.53576898       0.00000000 NULL       0.00430900       0.01402100      -0.04562700
P        1.99523623       5.74203501       7.34685291       0.00000000 NULL       0.00430900      -0.01402100      -0.04562700
P        4.15423158       0.75432533       6.51044859       0.00000000 NULL       0.03561300       0.01211700      -0.05218800
P        1.98086118       6.12703742       1.69936467       0.00000000 NULL       0.03561200      -0.01211700      -0.05218800
P        5.02082829       6.16061939       5.08262356       0.00000000 NULL      -0.05022200      -0.02826300       0.04644300
P        1.68695780       0.72074337       9.03583030       0.00000000 NULL      -0.05022200       0.02826300       0.04644300
P       -0.28811197       4.02768530       5.67902492       0.00000000 NULL      -0.04659700       0.01929100       0.05499300
P        3.04575851       2.85367746       1.72581818       0.00000000 NULL      -0.04659700      -0.01929100       0.05499300
P        3.12112016       5.22081702       4.38937219       0.00000000 NULL      -0.00855300      -0.04928200       0.04492300
P       -0.21275033       1.66054574       8.34257894       0.00000000 NULL      -0.00855300       0.04928300       0.04492400
P        3.35074655       2.06097905       3.76344269       0.00000000 NULL      -0.03658800      -0.01261100       0.01216700
P        0.01687607       4.82038371       7.71664943       0.00000000 NULL      -0.03659000       0.01261100       0.01216800
P        1.93904668       0.29217853       3.69977188       0.00000000 NULL       0.08855100       0.00536200       0.01033000
P        4.11241708       6.58918423       8.51085580       0.00000000 NULL       0.08855200      -0.00536200       0.01033100
P        0.46286744       1.92178047       6.15478529       0.00000000 NULL       0.02097000      -0.05525900      -0.07823300
P        3.79673793       4.95958228       2.20157854       0.00000000 NULL       0.02097000       0.05525800      -0.07823300
18
Lattice="5.5645522385977575 8.243159835010246e-20 0.8557252980694687 -1.1490861061826498e-16 6.816364798756877 1.3716737100768961e-16 -1.1747491592719916 -7.648492448620484e-17 8.755593971184405" Properties=species:S:1:pos:R:3:initial_magmoms:R:1:castep_labels:S:1:forces:R:3 n_minim_iter=9 energy=-96.512862987845 stress="-0.001341871150578551 -0.0 -0.0006854361506802866 -0.0 -0.004064350492403807 -0.0 -0.0006854361506802866 -0.0 -0.0013494238409144591" free_energy=-96.512862987845 pbc="T T T"
P        0.76223227       2.94065772       1.55567435       0.00000000 NULL      -0.01926400       0.00610200      -0.00348100
P        2.95713381       3.87570707       6.36133398       0.00000000 NULL      -0.01926500      -0.00610200      -0.00348100
P       -0.18063526       1.14323544       2.48470812       0.00000000 NULL      -0.04389400      -0.01749300      -0.03272100
P        2.01426628       5.67312936       7.29036775       0.00000000 NULL      -0.04389600       0.01749200      -0.03272100
P        4.21542910       0.72962507       6.51192877       0.00000000 NULL      -0.01379500       0.01984700       0.00973300
P        2.02052756       6.08673973       1.70626913       0.00000000 NULL      -0.01379400      -0.01984900       0.00973500
P        5.06673303       6.03822410       5.11046881       0.00000000 NULL      -0.03270900      -0.12477600       0.02314300
P        1.69708233       0.77814070       9.06040314       0.00000000 NULL      -0.03271100       0.12477800       0.02314100
P       -0.33484416       4.02062370       5.65444241       0.00000000 NULL      -0.08629100       0.02266100       0.07559600
P        3.03480654       2.79574110       1.70450807       0.00000000 NULL      -0.08629200      -0.02266000       0.07559600
P        3.14834523       5.15769524       4.36889624       0.00000000 NULL       0.10729600      -0.13823800       0.05912300
P       -0.22130547       1.65866956       8.31883057       0.00000000 NULL       0.10729900       0.13823800       0.05912500
P        3.39965036       2.01421879       3.73777116       0.00000000 NULL       0.02545500      -0.00211700       0.05926300
P        0.02999966       4.80214601       7.68770549       0.00000000 NULL       0.02545700       0.00211600       0.05926400
P        1.98999459       0.24553283       3.75401704       0.00000000 NULL       0.02833200       0.05122100      -0.09242300
P        4.18489613       6.57083197       8.55967667       0.00000000 NULL       0.02833100      -0.05122100      -0.09242300
P        0.47134554       1.90109180       6.13170923       0.00000000 NULL       0.03487200      -0.03884200      -0.09823400
P        3.84099624       4.91527300       2.18177489       0.00000000 NULL       0.03487000       0.03884300      -0.09823500
18
Lattice="5.593219341011696 -6.597627597203718e-19 0.8550834961397751 -1.145183741478371e-16 6.784724028905459 1.2477700931502744e-16 -1.181438929101518 -9.217109415802327e-17 8.752912043909287" Properties=species:S:1:pos:R:3:initial_magmoms:R:1:castep_labels:S:1:forces:R:3 n_minim_iter=10 energy=-96.519296741135 stress="-0.0021580848975241967 -0.0 -0.0009724980315802634 -0.0 -0.006090759684881273 -0.0 -0.0009724980315802634 -0.0 -0.0019134928966183897" free_energy=-96.519296741135 pbc="T T T"
P        0.75549517       2.94189515       1.56510687       0.00000000 NULL      -0.02612200       0.02762300      -0.02065000
P        2.96138538       3.84282888       6.36910464       0.00000000 NULL      -0.02612400      -0.02762400      -0.02065000
P       -0.18458044       1.14374787       2.46137070       0.00000000 NULL      -0.01623200      -0.07279500      -0.02689100
P        2.02130976       5.64097616       7.26536847       0.00000000 NULL      -0.01623400       0.07279500      -0.02689100
P        4.24426279       0.71739284       6.51728854       0.00000000 NULL      -0.00485300       0.02534000      -0.02880800
P        2.03837259       6.06733119       1.71329077       0.00000000 NULL      -0.00485000      -0.02534200      -0.02880500
P        5.09072906       5.97448982       5.12500010       0.00000000 NULL      -0.03963000      -0.08929100       0.00846400
P        1.70339992       0.81023421       9.07391438       0.00000000 NULL      -0.03963300       0.08929300       0.00846200
P       -0.35952332       4.01497699       5.64741721       0.00000000 NULL      -0.09990200       0.00457800       0.10637000
P        3.02780582       2.76974704       1.69850293       0.00000000 NULL      -0.09990400      -0.00457700       0.10636900
P        3.16673011       5.12345421       4.35924831       0.00000000 NULL       0.15113900      -0.19332300       0.06477700
P       -0.22059903       1.66126982       8.30816258       0.00000000 NULL       0.15114400       0.19332300       0.06477900
P        3.42787636       1.99113281       3.72885617       0.00000000 NULL      -0.00721600       0.01959000       0.07925300
P        0.04054723       4.79359122       7.67777044       0.00000000 NULL      -0.00721300      -0.01959100       0.07925400
P        2.01314516       0.22492437       3.77396213       0.00000000 NULL       0.02105200       0.10009000      -0.09558600
P        4.21903536       6.55979966       8.57795990       0.00000000 NULL       0.02105000      -0.10009000      -0.09558700
P        0.47701777       1.89346018       6.11773299       0.00000000 NULL       0.02176500      -0.05975800      -0.08692900
P        3.86434690       4.89126385       2.16881871       0.00000000 NULL       0.02176300       0.05975900      -0.08693100
18
Lattice="5.621248138375677 -2.532944710536514e-19 0.8470108297057509 -1.1456020389595815e-16 6.7618877976765415 1.234094862334867e-16 -1.200131282766547 -9.39038542211565e-17 8.751430559610888" Properties=species:S:1:pos:R:3:initial_magmoms:R:1:castep_labels:S:1:forces:R:3 n_minim_iter=11 energy=-96.527000199087 stress="-0.002438576858757423 0.0 -0.001411325547033353 0.0 -0.005959247531243969 -0.0 -0.001411325547033353 -0.0 -0.0020599809829395144" free_energy=-96.527000199087 pbc="T T T"
P        0.73784571       2.96006652       1.57662317       0.00000000 NULL      -0.01823200      -0.09814500      -0.00794700
P        2.94840414       3.80182128       6.37584386       0.00000000 NULL      -0.01823300       0.09814400      -0.00794600
P       -0.18289089       1.12949953       2.43462992       0.00000000 NULL      -0.08898600       0.02683700      -0.02766600
P        2.02766753       5.63238826       7.23385061       0.00000000 NULL      -0.08898800      -0.02683700      -0.02766500
P        4.27287540       0.70159329       6.50787325       0.00000000 NULL      -0.12052300       0.03473100       0.05439300
P        2.06231698       6.06029451       1.70865255       0.00000000 NULL      -0.12052200      -0.03473000       0.05439100
P        5.10537021       5.92008125       5.13473533       0.00000000 NULL       0.02347300      -0.10764400      -0.08356400
P        1.69468050       0.84180655       9.08694519       0.00000000 NULL       0.02347200       0.10764300      -0.08356100
P       -0.40354406       4.00432598       5.65256878       0.00000000 NULL      -0.10650900       0.00109700       0.11160600
P        3.00714565       2.75756182       1.70035891       0.00000000 NULL      -0.10651000      -0.00109800       0.11160400
P        3.19102475       5.08195189       4.33395780       0.00000000 NULL       0.08426900      -0.14875600       0.14942000
P       -0.21966497       1.67993591       8.28616766       0.00000000 NULL       0.08427000       0.14875600       0.14942100
P        3.44814906       1.96866829       3.71957692       0.00000000 NULL       0.10544700      -0.01039500       0.10753800