33
Lattice="11.538029443835057 1.7413379190628027 1.2760578705049517 6.545239155134653 9.660135899523667 1.2760578705037955 6.545239155133887 4.126763502695452 8.827025109229686" Properties=species:S:1:pos:R:3:initial_magmoms:R:1:castep_labels:S:1:forces:R:3 n_minim_iter=1 energy=-177.088268205127 stress="0.00018750291774471958 -5.412142486831668e-06 -3.957945323313814e-06 -5.412142486831668e-06 0.00019267480156975265 -2.4911029670697168e-06 -3.957945323313814e-06 -2.4911029670697168e-06 0.00019425545066053293" free_energy=-177.088268205127 pbc="T T T"
P       17.51505604       7.66978822       9.82509437       0.00000000 NULL       0.00137200       0.00172800       0.00135500
P       18.08884434      10.76907550       4.35385373       0.00000000 NULL       0.00222700       0.00045700       0.00124000
P       14.47119427      13.13340860       8.95731176       0.00000000 NULL       0.00215100       0.00144000       0.00006200
P       17.67907437      10.87366569       9.47469437       0.00000000 NULL       0.00391100       0.01122400      -0.00413300
P       18.72890580      10.64504776       7.51446308       0.00000000 NULL       0.00118100       0.00377000       0.01194800
P       17.43277731      12.42780365       7.88695640       0.00000000 NULL       0.01181300      -0.00433500      -0.00000400
P       10.67011729       5.38308068       4.01508402       0.00000000 NULL      -0.00857100       0.01446800       0.01026100
P        9.51757206       7.27814918       3.92354772       0.00000000 NULL       0.00906700      -0.01383100       0.01070400
P        9.45704716       6.02973218       5.75816368       0.00000000 NULL       0.00935900       0.00557700      -0.01641300
P       22.70923621      15.73697651      10.30815983       0.00000000 NULL      -0.00621900      -0.00123400      -0.00872800
P       22.93638608      14.20961317      11.90080188       0.00000000 NULL      -0.01052600      -0.00186500       0.00145300
P       23.98946014      13.95822568       9.96462423       0.00000000 NULL      -0.00379500      -0.00985100      -0.00221500
P       16.19956971       9.22463531       8.97197624       0.00000000 NULL       0.00097400      -0.01064000       0.01074300
P       17.21034193       9.73088375       6.09346740       0.00000000 NULL       0.00677000      -0.00215400      -0.01338200
P       15.30703729      11.76044440       7.44331041       0.00000000 NULL      -0.00918200       0.01189100       0.00197600
P       13.18180625       5.45919019       6.24101135       0.00000000 NULL       0.00615700      -0.02083200      -0.00990100
P       12.53621490       8.61955592       3.32559288       0.00000000 NULL      -0.01152700       0.01233100      -0.01688200
P       10.60850517       8.82507442       7.21738706       0.00000000 NULL      -0.01614300      -0.00506200       0.01684400
P       13.11799742       4.91733494       9.80586761       0.00000000 NULL      -0.02008500      -0.00639000       0.02839400
P       15.42860371       7.16693005       1.73504459       0.00000000 NULL       0.01403500      -0.02896500      -0.01464600
P       10.09207854      12.27736476       6.31136625       0.00000000 NULL      -0.01442400       0.02244600      -0.02320800
P        7.78379187       3.20642492       4.49263361       0.00000000 NULL       0.00851200       0.00506800      -0.00050400
P        8.09253381       4.76016025       1.70414328       0.00000000 NULL       0.00461400       0.00722800       0.00498400
P        6.24875049       5.98324227       4.02570027       0.00000000 NULL       0.00824300       0.00117400       0.00539100
P        9.63351946       7.57332651       8.74868415       0.00000000 NULL       0.02334000       0.02650500      -0.00272000
P       13.73877546       4.11253488       4.58612601       0.00000000 NULL       0.01492600       0.01873600       0.02609300
P       10.98644199       9.97727086       2.54000088       0.00000000 NULL       0.03397700       0.00030800       0.01000600
P        3.28447812       4.26891988       3.59925918       0.00000000 NULL      -0.00970000      -0.03295100       0.00512100
P        5.67302907       0.92967090       2.98640138       0.00000000 NULL      -0.00873200      -0.00657800      -0.03296300
P        5.26780013       3.77044421      -0.01312367       0.00000000 NULL      -0.03391300       0.00652500       0.00365700
P        9.46446778       3.72759529       3.11234965       0.00000000 NULL      -0.00111200      -0.00272500      -0.00528200
P        7.77114100       6.77636036       2.61689608       0.00000000 NULL      -0.00576400       0.00152200      -0.00100700
P        7.44354115       5.05621148       5.67329339       0.00000000 NULL      -0.00293700      -0.00498600       0.00175500
33
Lattice="11.53611910047103 1.7410979605041257 1.2758820281230447 6.544199094158669 9.65851563255659 1.2758820281218872 6.544199094157902 4.126107745804904 8.825533074213885" Properties=species:S:1:pos:R:3:initial_magmoms:R:1:castep_labels:S:1:forces:R:3 n_minim_iter=2 energy=-177.08831761563 stress="-2.4265866571395637e-05 4.934143880523618e-07 3.6689787829534595e-07 4.934143880523618e-07 -2.47339776574966e-05 2.2772971756262853e-07 3.6689787829534595e-07 2.2772971756262853e-07 -2.4885797469205017e-05" free_energy=-177.08831761563 pbc="T T T"
P       17.51220958       7.66858251       9.82347801       0.00000000 NULL       0.00650700       0.00147600       0.00298600
P       18.08589881      10.76732813       4.35319092       0.00000000 NULL       0.00577500       0.00445300       0.00050800
P       14.46887924      13.13125021       8.95584521       0.00000000 NULL       0.00413700       0.00442400       0.00409300
P       17.67621759      10.87192191       9.47314005       0.00000000 NULL       0.00478700       0.01156400       0.00150600
P       18.72586295      10.64333546       7.51326852       0.00000000 NULL       0.00650200       0.00219900       0.01057300
P       17.42997234      12.42577149       7.88568348       0.00000000 NULL       0.01249700       0.00123500      -0.00108800
P       10.66836913       5.38223515       4.01445177       0.00000000 NULL      -0.00316900       0.01335300       0.00911500
P        9.51604463       7.27694152       3.92293192       0.00000000 NULL       0.01010600      -0.00834000       0.00998800
P        9.45553061       6.02876394       5.75719761       0.00000000 NULL       0.01068300       0.00609600      -0.01096100
P       22.70555589      15.73441179      10.30648495       0.00000000 NULL      -0.01068300       0.00116100      -0.01173800
P       22.93266133      14.20731396      11.89886082       0.00000000 NULL      -0.01438900      -0.00496600       0.00464400
P       23.98555940      13.95596132       9.96301654       0.00000000 NULL      -0.00355800      -0.01424500      -0.00613500
P       16.19694653       9.22314117       8.97051658       0.00000000 NULL      -0.00103700      -0.00931000       0.00680900
P       17.20754908       9.72931091       6.09248237       0.00000000 NULL       0.00288100      -0.00252500      -0.01092900
P       15.30455827      11.75853358       7.44210735       0.00000000 NULL      -0.00884900       0.00742200       0.00088300
P       13.17966420       5.45830896       6.23998107       0.00000000 NULL      -0.00159700      -0.01680700      -0.00442200
P       12.53416550       8.61816109       3.32506293       0.00000000 NULL      -0.00906200       0.00255900      -0.01469400
P       10.60678659       8.82362421       7.21621666       0.00000000 NULL      -0.01585400      -0.00246800       0.00686700
P       13.11584645       4.91657036       9.80426337       0.00000000 NULL      -0.01310100      -0.00255800       0.02167100
P       15.42608834       7.16574798       1.73479878       0.00000000 NULL       0.01230200      -0.02039700      -0.00896700
P       10.09046138      12.27534968       6.31031313       0.00000000 NULL      -0.00795600       0.01743500      -0.01674900
P        7.78253524       3.20592882       4.49189179       0.00000000 NULL       0.00479000       0.00292900      -0.00238100
P        8.09121898       4.75939575       1.70389368       0.00000000 NULL       0.00081200       0.00492000       0.00351100
P        6.24776112       5.98225777       4.02504647       0.00000000 NULL       0.00470900      -0.00135000       0.00363400
P        9.63200716       7.57212489       8.74722112       0.00000000 NULL       0.01591100       0.01966700      -0.00068400
P       13.73653812       4.11192777       4.58542093       0.00000000 NULL       0.01161600       0.01208300       0.01895900
P       10.98470581       9.97562078       2.53963437       0.00000000 NULL       0.02460500       0.00111900       0.00581100
P        3.28395294       4.26817545       3.59866446       0.00000000 NULL      -0.00543200      -0.02534400       0.00025600
P        5.67208864       0.92953818       2.98587069       0.00000000 NULL      -0.00901000      -0.00171600      -0.02424400
P        5.26690203       3.76983105      -0.01309037       0.00000000 NULL      -0.02521000       0.00205900       0.00566700
P        9.46291783       3.72700618       3.11184788       0.00000000 NULL       0.00099300      -0.00588500      -0.00541000
P        7.76988098       6.77524460       2.61648549       0.00000000 NULL      -0.00582600       0.00388400      -0.00398200
P        7.44234141       5.05538825       5.67235314       0.00000000 NULL      -0.00488200      -0.00412500       0.00490300
33
Lattice="11.538429140348105 1.74145280066492 1.276142056102103 6.545515121747021 9.660447022512066 1.276142056100946 6.545515121746252 4.126937499232002 8.827296420736896" Properties=species:S:1:pos:R:3:initial_magmoms:R:1:castep_labels:S:1:forces:R:3 n_minim_iter=3 energy=-177.088540168501 stress="3.2217109554770326e-05 3.206538062437109e-05 2.3505340134347736e-05 3.206538062437109e-05 1.5805096916586698e-06 1.4806214791458418e-05 2.3505340134347736e-05 1.4806214791458418e-05 -7.788751760493924e-06" free_energy=-177.088540168501 pbc="T T T"
P       17.51598547       7.67019095       9.82556942       0.00000000 NULL      -0.00365700      -0.00318000      -0.00042500
P       18.08976320      10.76966654       4.35409465       0.00000000 NULL      -0.00280600      -0.00271200      -0.00290400
P       14.47195833      13.13406190       8.95780277       0.00000000 NULL      -0.00444500      -0.00098600      -0.00171200
P       17.67996964      10.87460416       9.47508341       0.00000000 NULL       0.00006800       0.00670800      -0.00386200
P       18.72988156      10.64557377       7.51524076       0.00000000 NULL      -0.00147000       0.00077800       0.00755900
P       17.43401004      12.42829609       7.88722371       0.00000000 NULL       0.00608100      -0.00453500      -0.00153600
P       10.67035142       5.38389927       4.01565744       0.00000000 NULL      -0.00343800       0.00270700       0.00296000
P        9.51838886       7.27801843       3.92415555       0.00000000 NULL       0.00180000      -0.00467000       0.00169000
P        9.45788671       6.03023630       5.75785590       0.00000000 NULL       0.00096000       0.00153600      -0.00496200
P       22.70966771      15.73760920      10.30805706       0.00000000 NULL       0.00253600      -0.00680200      -0.00252600
P       22.93665564      14.20996260      11.90143614       0.00000000 NULL      -0.00292900       0.00421300      -0.00572400
P       23.99021703      13.95816280       9.96476637       0.00000000 NULL      -0.00504300      -0.00083700       0.00573700
P       16.20015995       9.22458555       8.97262440       0.00000000 NULL       0.00452600      -0.00355000       0.00851400
P       17.21114052       9.73115635       6.09322471       0.00000000 NULL       0.00831200       0.00104500      -0.00594900
P       15.30724684      11.76122934       7.44364345       0.00000000 NULL      -0.00125200       0.00981100       0.00278800
P       13.18226766       5.45866472       6.24102023       0.00000000 NULL      -0.00685800      -0.00637900       0.00164000
P       12.53627863       8.62003684       3.32508914       0.00000000 NULL      -0.00327900      -0.00603400      -0.00657700
P       10.60822994       8.82527654       7.21799738       0.00000000 NULL      -0.00871300       0.00052800      -0.00377200
P       13.11788464       4.91743692       9.80718894       0.00000000 NULL       0.00794000       0.00436500       0.00140300
P       15.42971968       7.16627189       1.73474380       0.00000000 NULL       0.00581700       0.00602100       0.00373900
P       10.09212194      12.27858082       6.31082926       0.00000000 NULL       0.00736100       0.00293000       0.00461500
P        7.78431801       3.20670946       4.49269553       0.00000000 NULL       0.00622600       0.00456400       0.00049300
P        8.09289124       4.76057259       1.70439596       0.00000000 NULL       0.00434800       0.00482300       0.00420400
P        6.24923405       5.98340737       4.02601734       0.00000000 NULL       0.00680200       0.00156700       0.00333200
P        9.63466029       7.57452165       8.74893395       0.00000000 NULL      -0.00923000      -0.00095400       0.00280300
P       13.73980704       4.11330636       4.58719039       0.00000000 NULL      -0.00182700      -0.00935700      -0.00175400
P       10.98801218       9.97766394       2.54041590       0.00000000 NULL      -0.00484000       0.00028800      -0.00839400
P        3.28436294       4.26790367       3.59941390       0.00000000 NULL      -0.00121400       0.00103000      -0.00684600
P        5.67283633       0.92963534       2.98538577       0.00000000 NULL      -0.00613400       0.00158500       0.00304400
P        5.26683355       3.77069241      -0.01285165       0.00000000 NULL       0.00040600      -0.00699200       0.00059400
P        9.46485015       3.72751348       3.11223966       0.00000000 NULL       0.00105300       0.00275800      -0.00144800
P        7.77118898       6.77676121       2.61685121       0.00000000 NULL      -0.00004300       0.00118700       0.00306600
P        7.44363218       5.05622116       5.67368914       0.00000000 NULL       0.00294200      -0.00145400       0.00020900
33
Lattice="11.53725303957712 1.7401795315276627 1.2752090004980856 6.543859229825362 9.659934724490215 1.2752090004969299 6.5438592298245934 4.125893461850821 8.827088988892477" Properties=species:S:1:pos:R:3:initial_magmoms:R:1:castep_labels:S:1:forces:R:3 n_minim_iter=4 energy=-177.088550847482 stress="-1.1025525050213433e-05 -2.3897066909292873e-05 -1.7511871782735782e-05 -2.3897066909292873e-05 1.1796806045698546e-05 -1.1050812951704746e-05 -1.7511871782735782e-05 -1.1050812951704746e-05 1.8788910808047202e-05" free_energy=-177.088550847482 pbc="T T T"
P       17.51302022       7.66798829       9.82437127       0.00000000 NULL      -0.00256600      -0.00067600       0.00013200
P       18.08685532      10.76776955       4.35235523       0.00000000 NULL      -0.00117700      -0.00228000      -0.00068400
P       14.46869255      13.13239948       8.95651787       0.00000000 NULL      -0.00171600      -0.00048500      -0.00196900
P       17.67668337      10.87255166       9.47367233       0.00000000 NULL       0.00146400       0.00811700      -0.00451800
P       18.72669289      10.64345515       7.51370867       0.00000000 NULL      -0.00104900       0.00212500       0.00910100
P       17.43074136      12.42632387       7.88566502       0.00000000 NULL       0.00795500      -0.00496400      -0.00071600
P       10.66860519       5.38272105       4.01480362       0.00000000 NULL      -0.00243900       0.00464900       0.00419900
P        9.51658120       7.27694677       3.92328925       0.00000000 NULL       0.00382500      -0.00453100       0.00316900
P        9.45607080       6.02910051       5.75709499       0.00000000 NULL       0.00314400       0.00273700      -0.00527500
P       22.70537929      15.73502155      10.30602849       0.00000000 NULL       0.00197300      -0.00978900      -0.00268400
P       22.93235820      14.20726306      11.89957977       0.00000000 NULL      -0.00412000       0.00415900      -0.00852500
P       23.98603346      13.95539888       9.96275144       0.00000000 NULL      -0.00798000      -0.00075500       0.00652800
P       16.19721438       9.22258840       8.97144864       0.00000000 NULL       0.00327400      -0.00564100       0.00874800
P       17.20831625       9.72924123       6.09167451       0.00000000 NULL       0.00740300       0.00009400      -0.00801200
P       15.30417498      11.75956693       7.44228426       0.00000000 NULL      -0.00367800       0.00996400       0.00250000
P       13.18013216       5.45700323       6.24006079       0.00000000 NULL      -0.00493900      -0.00736300      -0.00005300
P       12.53408092       8.61872013       3.32379384       0.00000000 NULL      -0.00417600      -0.00347800      -0.00700500
P       10.60581016       8.82399699       7.21713203       0.00000000 NULL      -0.00877300      -0.00043700      -0.00120700
P       13.11556785       4.91566271       9.80652503       0.00000000 NULL       0.00942600       0.00465000       0.00334700
P       15.42766745       7.16468475       1.73325200       0.00000000 NULL       0.00820700       0.00652500       0.00342600
P       10.08952229      12.27754844       6.30976524       0.00000000 NULL       0.00825900       0.00515000       0.00519100
P        7.78304974       3.20574888       4.49217622       0.00000000 NULL       0.00602200       0.00429500       0.00065100
P        8.09163659       4.75976644       1.70363642       0.00000000 NULL       0.00432400       0.00460800       0.00390000
P        6.24782056       5.98269221       4.02547743       0.00000000 NULL       0.00647300       0.00169500       0.00321800
P        9.63239120       7.57327539       8.74831232       0.00000000 NULL      -0.01334200      -0.00332700       0.00098000
P       13.73795526       4.11167633       4.58618927       0.00000000 NULL      -0.00581300      -0.01201000      -0.00346700
P       10.98590947       9.97661628       2.53916315       0.00000000 NULL      -0.00875300      -0.00226000      -0.01040700
P        3.28334270       4.26743489       3.59912157       0.00000000 NULL      -0.00018000       0.00225100      -0.00442100
P        5.67201757       0.92889582       2.98502683       0.00000000 NULL      -0.00327000       0.00136300       0.00347800
P        5.26597075       3.77019723      -0.01344869       0.00000000 NULL       0.00195300      -0.00455700       0.00025200
P        9.46347655       3.72642818       3.11146382       0.00000000 NULL      -0.00052100       0.00234800      -0.00176100
P        7.76963429       6.77598167       2.61605003       0.00000000 NULL      -0.00110100      -0.00005200       0.00276900
P        7.44206075       5.05524894       5.67318715       0.00000000 NULL       0.00189400      -0.00212700      -0.00088300
33
Lattice="11.53603465491405 1.738296028573907 1.2738287636457544 6.5416344923019505 9.659647344052587 1.273828763644594 6.5416344923011795 4.124490768168121 8.827230734146267" Properties=species:S:1:pos:R:3:initial_magmoms:R:1:castep_labels:S:1:forces:R:3 n_minim_iter=5 energy=-177.088682882197 stress="6.927687469471614e-06 2.0858913001146285e-06 1.5170118546288206e-06 2.0858913001146285e-06 4.905004996633187e-06 9.734159400534932e-07 1.5170118546288206e-06 9.734159400534932e-07 4.298200254781658e-06" free_energy=-177.088682882197 pbc="T T T"
P       17.50915872       7.66481615       9.82308477       0.00000000 NULL       0.00249500      -0.00195800       0.00251600
P       18.08322153      10.76522609       4.34971798       0.00000000 NULL       0.00270800       0.00147300      -0.00262600
P       14.46416562      13.13053510       8.95488699       0.00000000 NULL      -0.00069300       0.00333200       0.00219600
P       17.67271483      10.87101329       9.47155861       0.00000000 NULL      -0.00162700       0.00013400       0.00648900
P       18.72274529      10.64094299       7.51287849       0.00000000 NULL       0.00491800      -0.00415300      -0.00182600
P       17.42764246      12.42342943       7.88351963       0.00000000 NULL      -0.00058000       0.00572800      -0.00340900
P       10.66608331       5.38188285       4.01428807       0.00000000 NULL       0.00916300      -0.00635500      -0.00306300
P        9.51482262       7.27499205       3.92264529       0.00000000 NULL      -0.00041300       0.01035200      -0.00513700
P        9.45422731       6.02803230       5.75542504       0.00000000 NULL      -0.00178400       0.00039600       0.01141800
P       22.69992362      15.73093077      10.30287742       0.00000000 NULL      -0.00166800      -0.00046500      -0.00468400
P       22.92618322      14.20416695      11.89662821       0.00000000 NULL      -0.00487200       0.00047400       0.00096500
P       23.97999040      13.95144253       9.96068825       0.00000000 NULL      -0.00114400      -0.00485700       0.00016700
P       16.19388668       9.21925460       8.97118398       0.00000000 NULL       0.00026200       0.00366900      -0.00138200
P       17.20574782       9.72678036       6.08857529       0.00000000 NULL      -0.00008000       0.00033100       0.00391600
P       15.29973231      11.75884300       7.44087129       0.00000000 NULL       0.00342400      -0.00172600      -0.00086300
P       13.17683610       5.45359471       6.23888618       0.00000000 NULL       0.01055200      -0.00552100      -0.00909000
P       12.53072291       8.61667157       3.32089749       0.00000000 NULL      -0.00477300       0.01397400      -0.00252700
P       10.60131372       8.82242369       7.21605111       0.00000000 NULL      -0.00043300      -0.00508300       0.01408600
P       13.11335205       4.91361483       9.80674549       0.00000000 NULL       0.00101100      -0.00010000       0.00550500
P       15.42634527       7.16286074       1.73123283       0.00000000 NULL       0.00514500      -0.00133800      -0.00175300
P       10.08671925      12.27742233       6.30863420       0.00000000 NULL       0.00034600       0.00553700      -0.00074800
P        7.78225716       3.20496971       4.49161548       0.00000000 NULL       0.00022500       0.00021800      -0.00047200
P        8.09060067       4.75938298       1.70306236       0.00000000 NULL      -0.00024600       0.00036800       0.00034700
P        6.24677583       5.98204326       4.02528471       0.00000000 NULL       0.00029300      -0.00041600       0.00024500
P        9.62844175       7.57190206       8.74798794       0.00000000 NULL      -0.01077600       0.00296200       0.00207700
P       13.73560028       4.10842440       4.58497745       0.00000000 NULL      -0.00205300      -0.01096200       0.00219900
P       10.98296771       9.97541182       2.53642733       0.00000000 NULL      -0.00197300      -0.00133300      -0.01111500
P        3.28175432       4.26658408       3.59825870       0.00000000 NULL      -0.01094300      -0.00018100       0.00398900
P        5.67035916       0.92792781       2.98447547       0.00000000 NULL      -0.00133500      -0.01149100      -0.00137400
P        5.26451831       3.76905320      -0.01420565       0.00000000 NULL      -0.00488100       0.00085300      -0.01054300
P        9.46188380       3.72508376       3.11012799       0.00000000 NULL       0.00115300       0.00327900       0.00433700
P        7.76743291       6.77526824       2.61517046       0.00000000 NULL       0.00512100      -0.00116800       0.00181900
P        7.44016104       5.05371683       5.67277181       0.00000000 NULL       0.00345600       0.00402600      -0.00166200
33
Lattice="11.533668850863375 1.7350152048375413 1.2714245657559045 6.537654294907171 9.658927023364368 1.2714245657547445 6.537654294906402 4.121981259660795 8.827268103105192" Properties=species:S:1:pos:R:3:initial_magmoms:R:1:castep_labels:S:1:forces:R:3 n_minim_iter=6 energy=-177.088820051183 stress="5.283059536152274e-06 -1.0490285681833463e-06 -7.583339047108527e-07 -1.0490285681833463e-06 6.268893612276382e-06 -4.802781396502067e-07 -7.583339047108527e-07 -4.802781396502067e-07 6.546949377337028e-06" free_energy=-177.088820051183 pbc="T T T"
P       17.50253058       7.65907331       9.82089364       0.00000000 NULL       0.00080300       0.00148900       0.00078100
P       18.07691798      10.76089197       4.34490194       0.00000000 NULL       0.00142300       0.00021100       0.00118600
P       14.45612645      13.12738995       8.95220496       0.00000000 NULL       0.00169000       0.00076900      -0.00015400
P       17.66514050      10.86734249       9.46876349       0.00000000 NULL      -0.00042500      -0.00116000       0.00233000
P       18.71607736      10.63573433       7.51022019       0.00000000 NULL       0.00150600      -0.00119000      -0.00180800
P       17.42106499      12.41918208       7.87935369       0.00000000 NULL      -0.00123000       0.00225700      -0.00059000
P       10.66284992       5.37904983       4.01250713       0.00000000 NULL       0.00562600       0.00439500       0.00355500
P        9.51112637       7.27317455       3.92048035       0.00000000 NULL       0.00667800       0.00304400       0.00312000
P        9.45027715       6.02582313       5.75434412       0.00000000 NULL       0.00639100       0.00434800       0.00196300
P       22.68982140      15.72410726      10.29708112       0.00000000 NULL      -0.00083300       0.00452200      -0.00292400
P       22.91498640      14.19832048      11.89186771       0.00000000 NULL      -0.00164500      -0.00014000       0.00519600
P       23.96947846      13.94405573       9.95654738       0.00000000 NULL       0.00372000      -0.00359900      -0.00170000
P       16.18752504       9.21425761       8.96955573       0.00000000 NULL      -0.00046400       0.00437700      -0.00522800
P       17.20024618       9.72235847       6.08430089       0.00000000 NULL      -0.00350800       0.00116200       0.00575000
P       15.29248101      11.75621018       7.43794240       0.00000000 NULL       0.00375000      -0.00568100      -0.00062200
P       13.17254888       5.44780991       6.23569861       0.00000000 NULL      -0.01053900       0.00100500       0.00480700
P       12.52455979       8.61486474       3.31634160       0.00000000 NULL      -0.00013400      -0.01161600      -0.00049000
P       10.59424585       8.81897011       7.21570060       0.00000000 NULL      -0.00363700       0.00158900      -0.01092900
P       13.10891752       4.90966606       9.80694399       0.00000000 NULL      -0.00324600       0.00762200      -0.00179000
P       15.42353105       7.15929064       1.72740769       0.00000000 NULL      -0.00086800      -0.00318300       0.00780700
P       10.08124454      12.27691907       6.30638220       0.00000000 NULL       0.00547800      -0.00357900      -0.00538700
P        7.78016675       3.20317733       4.49048493       0.00000000 NULL      -0.00411200      -0.00308700       0.00120100
P        8.08823960       4.75819429       1.70169380       0.00000000 NULL      -0.00157600      -0.00380200      -0.00330800
P        6.24425739       5.98062981       4.02456349       0.00000000 NULL      -0.00455900       0.00043100      -0.00263100
P        9.62076450       7.56951192       8.74733757       0.00000000 NULL      -0.00320500       0.00745100       0.00830600
P       13.73108141       4.10207493       4.58289425       0.00000000 NULL       0.00779000      -0.00727400       0.00460300
P       10.97750143       9.97301533       2.53100032       0.00000000 NULL       0.00534200       0.00608100      -0.00832200
P        3.27783950       4.26533832       3.59757414       0.00000000 NULL      -0.00423700      -0.00035200      -0.00804900
P        5.66774389       0.92483863       2.98349378       0.00000000 NULL      -0.00884800      -0.00046900       0.00208900
P        5.26170658       3.76749813      -0.01685561       0.00000000 NULL      -0.00214500      -0.00878100      -0.00107600
P        9.45902312       3.72296242       3.10848040       0.00000000 NULL       0.00068400       0.00045400       0.00372400
P        7.76420550       6.77363980       2.61364398       0.00000000 NULL       0.00362300      -0.00097300      -0.00069000
P        7.43701371       5.05164370       5.67167885       0.00000000 NULL       0.00070500       0.00367900      -0.00072000
33
Lattice="11.528257062628347 1.7321907730536223 1.2693548133154815 6.5327727847260775 9.655261545884596 1.269354813314329 6.532772784725313 4.118903474789086 8.824396371815041" Properties=species:S:1:pos:R:3:initial_magmoms:R:1:castep_labels:S:1:forces:R:3 n_minim_iter=7 energy=-177.089086664359 stress="1.5811727615030361e-06 -5.69222194141093e-07 -4.047802269447773e-07 -5.69222194141093e-07 2.150394955644129e-06 -2.782864060245344e-07 -4.047802269447773e-07 -2.782864060245344e-07 2.276888776564372e-06" free_energy=-177.089086664359 pbc="T T T"
P       17.49259772       7.65252267       9.81683354       0.00000000 NULL      -0.00324100       0.00079900      -0.00546100
P       18.06736215      10.75444919       4.33987863       0.00000000 NULL      -0.00587800      -0.00078400       0.00241000
P       14.44593374      13.12166930       8.94757464       0.00000000 NULL      -0.00067400      -0.00619200      -0.00147300
P       17.65406270      10.86243049       9.46478099       0.00000000 NULL       0.00314800      -0.00123000      -0.00175300
P       18.70654012      10.62801375       7.50673603       0.00000000 NULL      -0.00048500       0.00372100      -0.00064500
P       17.41185725      12.41301144       7.87304129       0.00000000 NULL       0.00024700      -0.00065600       0.00374200
P       10.65955118       5.37660173       4.01132580       0.00000000 NULL       0.00316800       0.00400700       0.00162200