20
Lattice="6.794870000000002 2.1201271310952873e-16 0.0 -0.7059559907866454 7.127936113292011 0.0 0.0 0.0 9.10649" Properties=species:S:1:pos:R:3:initial_magmoms:R:1:castep_labels:S:1 n_minim_iter=1 pbc="T T T"
P        3.47927448       3.56751349       5.56176418       0.00000000 NULL
P        3.47927448       3.56751349       3.54472582       0.00000000 NULL
P        2.97927472       1.75096182       2.82131263       0.00000000 NULL
P        2.97927472       1.75096182       6.28517737       0.00000000 NULL
P        3.80748220       1.11612431       8.03934961       0.00000000 NULL
P        3.80748220       1.11612431       1.06714039       0.00000000 NULL
P        1.25461174       3.31564288       1.04735016       0.00000000 NULL
P        1.25461174       3.31564288       8.05913984       0.00000000 NULL
P        1.42154341       5.09658623       2.27054028       0.00000000 NULL
P        1.42154341       5.09658623       6.83594972       0.00000000 NULL
P        1.53503561       3.15368691       6.06942914       0.00000000 NULL
P        1.53503561       3.15368691       3.03706086       0.00000000 NULL
P        5.93088503       4.24652496       8.08374193       0.00000000 NULL
P        5.93088503       4.24652496       1.02274807       0.00000000 NULL
P        0.17315126       0.94146778       1.01743443       0.00000000 NULL
P        0.17315126       0.94146778       8.08905557       0.00000000 NULL
P        4.61566666       6.93156219       8.08923041       0.00000000 NULL
P        4.61566666       6.93156219       1.01725959       0.00000000 NULL
P        0.02841527       6.71385221       3.35548021       0.00000000 NULL
P        0.02841527       6.71385221       5.75100979       0.00000000 NULL
20
Lattice="6.819826668861554 -0.0024521267230923553 0.0 -0.7111211981440752 7.153635550040742 0.0 0.0 0.0 9.158878550720003" Properties=species:S:1:pos:R:3:initial_magmoms:R:1:castep_labels:S:1 n_minim_iter=2 pbc="T T T"
P        3.49112476       3.57927243       5.59392309       0.00000000 NULL
P        3.49112476       3.57927243       3.56495546       0.00000000 NULL
P        2.98970546       1.75564320       2.83771304       0.00000000 NULL
P        2.98970546       1.75564320       6.32116551       0.00000000 NULL
P        3.82085534       1.11893525       8.08565344       0.00000000 NULL
P        3.82085534       1.11893525       1.07322511       0.00000000 NULL
P        1.25789947       3.32700679       1.05322647       0.00000000 NULL
P        1.25789947       3.32700679       8.10565208       0.00000000 NULL
P        1.42491124       5.11464527       2.28358300       0.00000000 NULL
P        1.42491124       5.11464527       6.87529555       0.00000000 NULL
P        1.53911549       3.16435590       6.10391215       0.00000000 NULL
P        1.53911549       3.16435590       3.05496640       0.00000000 NULL
P        5.95112685       4.25953502       8.13010240       0.00000000 NULL
P        5.95112685       4.25953502       1.02877615       0.00000000 NULL
P        0.17380459       0.94492695       1.02356325       0.00000000 NULL
P        0.17380459       0.94492695       8.13531531       0.00000000 NULL
P        4.63002050       6.95421043       8.13535830       0.00000000 NULL
P        4.63002050       6.95421043       1.02352026       0.00000000 NULL
P        0.02613345       6.73777471       3.37486383       0.00000000 NULL
P        0.02613345       6.73777471       5.78401472       0.00000000 NULL
20
Lattice="7.138621605306731 -0.03232558760487937 0.0 -0.7755803144868793 7.479982718846137 0.0 0.0 0.0 9.825049172034447" Properties=species:S:1:pos:R:3:initial_magmoms:R:1:castep_labels:S:1 n_minim_iter=3 pbc="T T T"
P        3.64341674       3.72941561       6.00294200       0.00000000 NULL
P        3.64341674       3.72941561       3.82210717       0.00000000 NULL
P        3.12348151       1.81534821       3.04643529       0.00000000 NULL
P        3.12348151       1.81534821       6.77861388       0.00000000 NULL
P        3.99180769       1.15554683       8.67452398       0.00000000 NULL
P        3.99180769       1.15554683       1.15052519       0.00000000 NULL
P        1.30048368       3.47168302       1.12787602       0.00000000 NULL
P        1.30048368       3.47168302       8.69717316       0.00000000 NULL
P        1.46890184       5.34454339       2.44941863       0.00000000 NULL
P        1.46890184       5.34454339       7.37563054       0.00000000 NULL
P        1.59162510       3.30021555       6.54200529       0.00000000 NULL
P        1.59162510       3.30021555       3.28304389       0.00000000 NULL
P        6.21072815       4.42589554       8.71969672       0.00000000 NULL
P        6.21072815       4.42589554       1.10535245       0.00000000 NULL
P        0.18254058       0.98897832       1.10161546       0.00000000 NULL
P        0.18254058       0.98897832       8.72343371       0.00000000 NULL
P        4.81477632       7.24255007       8.72159446       0.00000000 NULL
P        4.81477632       7.24255007       1.10345471       0.00000000 NULL
P       -0.00150641       7.04160160       3.62146057       0.00000000 NULL
P       -0.00150641       7.04160160       6.20358860       0.00000000 NULL
20
Lattice="7.208027515490367 -0.016526079906040887 0.0 -0.7662173151346271 7.523302627475807 0.0 0.0 0.0 9.91586281103182" Properties=species:S:1:pos:R:3:initial_magmoms:R:1:castep_labels:S:1 n_minim_iter=4 pbc="T T T"
P        3.68962487       3.76150561       6.05931047       0.00000000 NULL
P        3.68962487       3.76150561       3.85655234       0.00000000 NULL
P        3.15952372       1.82952171       3.07624862       0.00000000 NULL
P        3.15952372       1.82952171       6.83961420       0.00000000 NULL
P        4.03190603       1.17343335       8.75529125       0.00000000 NULL
P        4.03190603       1.17343335       1.16057156       0.00000000 NULL
P        1.31889648       3.49649630       1.13805838       0.00000000 NULL
P        1.31889648       3.49649630       8.77780443       0.00000000 NULL
P        1.49409087       5.38256274       2.47167528       0.00000000 NULL
P        1.49409087       5.38256274       7.44418754       0.00000000 NULL
P        1.61121395       3.32391292       6.59938824       0.00000000 NULL
P        1.61121395       3.32391292       3.31647457       0.00000000 NULL
P        6.28283662       4.46590442       8.80141900       0.00000000 NULL
P        6.28283662       4.46590442       1.11444381       0.00000000 NULL
P        0.18917669       0.99638636       1.11286615       0.00000000 NULL
P        0.18917669       0.99638636       8.80299666       0.00000000 NULL
P        4.87691719       7.29390387       8.80003487       0.00000000 NULL
P        4.87691719       7.29390387       1.11582794       0.00000000 NULL
P        0.01537859       7.08314514       3.65655747       0.00000000 NULL
P        0.01537859       7.08314514       6.25930534       0.00000000 NULL
20
Lattice="7.233699890447532 0.0063927238270405275 0.0 -0.7448423363780421 7.516392901896575 0.0 0.0 0.0 9.933058399693888" Properties=species:S:1:pos:R:3:initial_magmoms:R:1:castep_labels:S:1 n_minim_iter=5 pbc="T T T"
P        3.71711785       3.77230678       6.07086128       0.00000000 NULL
P        3.71711785       3.77230678       3.86219712       0.00000000 NULL
P        3.17854773       1.83442248       3.08364078       0.00000000 NULL
P        3.17854773       1.83442248       6.84941762       0.00000000 NULL
P        4.04865792       1.18786753       8.77118276       0.00000000 NULL
P        4.04865792       1.18786753       1.16187564       0.00000000 NULL
P        1.33197542       3.50001004       1.14009892       0.00000000 NULL
P        1.33197542       3.50001004       8.79295948       0.00000000 NULL
P        1.51507512       5.38680597       2.47549622       0.00000000 NULL
P        1.51507512       5.38680597       7.45756218       0.00000000 NULL
P        1.62401761       3.32752347       6.60740956       0.00000000 NULL
P        1.62401761       3.32752347       3.32564884       0.00000000 NULL
P        6.32194202       4.48244631       8.81848399       0.00000000 NULL
P        6.32194202       4.48244631       1.11457441       0.00000000 NULL
P        0.19565530       0.99735654       1.11565938       0.00000000 NULL
P        0.19565530       0.99735654       8.81739902       0.00000000 NULL
P        4.91666053       7.30192030       8.81317515       0.00000000 NULL
P        4.91666053       7.30192030       1.11988325       0.00000000 NULL
P        0.03946114       7.07779543       3.66497334       0.00000000 NULL
P        0.03946114       7.07779543       6.26808506       0.00000000 NULL
20
Lattice="7.246118401601289 0.037909246915069465 0.0 -0.7130711853863501 7.482729934886376 0.0 0.0 0.0 9.927634458256527" Properties=species:S:1:pos:R:3:initial_magmoms:R:1:castep_labels:S:1 n_minim_iter=6 pbc="T T T"
P        3.74342607       3.77515499       6.06927333       0.00000000 NULL
P        3.74342607       3.77515499       3.85836113       0.00000000 NULL
P        3.19524054       1.83442027       3.08548810       0.00000000 NULL
P        3.19524054       1.83442027       6.84214636       0.00000000 NULL
P        4.05856519       1.20457982       8.76757329       0.00000000 NULL
P        4.05856519       1.20457982       1.16006117       0.00000000 NULL
P        1.34483051       3.49393919       1.13976395       0.00000000 NULL
P        1.34483051       3.49393919       8.78787051       0.00000000 NULL
P        1.53876667       5.37600371       2.47345297       0.00000000 NULL
P        1.53876667       5.37600371       7.45418149       0.00000000 NULL
P        1.63575712       3.32199441       6.59819830       0.00000000 NULL
P        1.63575712       3.32199441       3.32943616       0.00000000 NULL
P        6.35647198       4.49064291       8.81676611       0.00000000 NULL
P        6.35647198       4.49064291       1.11086835       0.00000000 NULL
P        0.20415729       0.99542428       1.11625569       0.00000000 NULL
P        0.20415729       0.99542428       8.81137877       0.00000000 NULL
P        4.95594426       7.28896204       8.80513707       0.00000000 NULL
P        4.95594426       7.28896204       1.12249738       0.00000000 NULL
P        0.07289971       7.04730135       3.66638643       0.00000000 NULL
P        0.07289971       7.04730135       6.26124802       0.00000000 NULL
20
Lattice="7.256569474803708 0.10135305720279292 0.0 -0.6476033502729044 7.382350346074937 0.0 0.0 0.0 9.927493142167595" Properties=species:S:1:pos:R:3:initial_magmoms:R:1:castep_labels:S:1 n_minim_iter=7 pbc="T T T"
P        3.79281991       3.76690039       6.07518928       0.00000000 NULL
P        3.79281991       3.76690039       3.85230386       0.00000000 NULL
P        3.22724816       1.81769756       3.09842744       0.00000000 NULL
P        3.22724816       1.81769756       6.82906571       0.00000000 NULL
P        4.06690049       1.23896462       8.77160965       0.00000000 NULL
P        4.06690049       1.23896462       1.15588350       0.00000000 NULL
P        1.36109311       3.46892144       1.14096347       0.00000000 NULL
P        1.36109311       3.46892144       8.78652967       0.00000000 NULL
P        1.58049512       5.33769725       2.47150636       0.00000000 NULL
P        1.58049512       5.33769725       7.45598678       0.00000000 NULL
P        1.64835678       3.29752602       6.57829685       0.00000000 NULL
P        1.64835678       3.29752602       3.34919629       0.00000000 NULL
P        6.41856441       4.48647841       8.82693100       0.00000000 NULL
P        6.41856441       4.48647841       1.10056214       0.00000000 NULL
P        0.22472645       0.98777346       1.12005656       0.00000000 NULL
P        0.22472645       0.98777346       8.80743658       0.00000000 NULL
P        5.02520163       7.22498201       8.79434433       0.00000000 NULL
P        5.02520163       7.22498201       1.13314881       0.00000000 NULL
P        0.14337090       6.95235728       3.67778175       0.00000000 NULL
P        0.14337090       6.95235728       6.24971140       0.00000000 NULL
20
Lattice="7.166193671710005 0.05698044870016092 0.0 -0.6847613502008959 7.308850504272481 0.0 0.0 0.0 9.947254833107952" Properties=species:S:1:pos:R:3:initial_magmoms:R:1:castep_labels:S:1 n_minim_iter=8 pbc="T T T"
P        3.73597309       3.71336781       6.09617293       0.00000000 NULL
P        3.73597309       3.71336781       3.85108191       0.00000000 NULL
P        3.19483616       1.74494684       3.12928393       0.00000000 NULL
P        3.19483616       1.74494684       6.81797091       0.00000000 NULL
P        3.99536833       1.22563437       8.79586246       0.00000000 NULL
P        3.99536833       1.22563437       1.15139237       0.00000000 NULL
P        1.29735813       3.43264647       1.14681405       0.00000000 NULL
P        1.29735813       3.43264647       8.80044078       0.00000000 NULL
P        1.51799664       5.30130445       2.47612321       0.00000000 NULL
P        1.51799664       5.30130445       7.47113162       0.00000000 NULL
P        1.57938370       3.25772015       6.55893592       0.00000000 NULL
P        1.57938370       3.25772015       3.38831891       0.00000000 NULL
P        6.33035924       4.39624510       8.85803485       0.00000000 NULL
P        6.33035924       4.39624510       1.08921998       0.00000000 NULL
P        0.22888503       0.97623722       1.12614754       0.00000000 NULL
P        0.22888503       0.97623722       8.82110729       0.00000000 NULL
P        4.92080651       7.09576861       8.79779234       0.00000000 NULL
P        4.92080651       7.09576861       1.14946250       0.00000000 NULL
P        0.11176120       6.86706154       3.70219519       0.00000000 NULL
P        0.11176120       6.86706154       6.24505965       0.00000000 NULL
20
Lattice="6.966222402979764 0.20506227853796458 0.0 -0.5086448479324831 7.1041296280882715 0.0 0.0 0.0 9.810315683760095" Properties=species:S:1:pos:R:3:initial_magmoms:R:1:castep_labels:S:1 n_minim_iter=9 pbc="T T T"
P        3.72813396       3.70663645       6.02201924       0.00000000 NULL
P        3.72813396       3.70663645       3.78829644       0.00000000 NULL
P        3.15830827       1.72341012       3.12428476       0.00000000 NULL
P        3.15830827       1.72341012       6.68603092       0.00000000 NULL
P        3.89797950       1.30542196       8.68059858       0.00000000 NULL
P        3.89797950       1.30542196       1.12971711       0.00000000 NULL
P        1.30776673       3.37529922       1.14012141       0.00000000 NULL
P        1.30776673       3.37529922       8.67019428       0.00000000 NULL
P        1.57719742       5.23490603       2.44749497       0.00000000 NULL
P        1.57719742       5.23490603       7.36282072       0.00000000 NULL
P        1.57390636       3.21038009       6.43016899       0.00000000 NULL
P        1.57390636       3.21038009       3.38014669       0.00000000 NULL
P        6.26614806       4.40916173       8.74390582       0.00000000 NULL
P        6.26614806       4.40916173       1.06640986       0.00000000 NULL
P        0.26561351       0.95652989       1.11127149       0.00000000 NULL
P        0.26561351       0.95652989       8.69904419       0.00000000 NULL
P        4.92435659       6.98552330       8.66409849       0.00000000 NULL
P        4.92435659       6.98552330       1.14621720       0.00000000 NULL
P        0.27367070       6.67500285       3.67515331       0.00000000 NULL
P        0.27367070       6.67500285       6.13516238       0.00000000 NULL
20
Lattice="7.130179257167021 0.11554147659472856 0.0 -0.6195880860674419 7.263571230461138 0.0 0.0 0.0 10.052837353864481" Properties=species:S:1:pos:R:3:initial_magmoms:R:1:castep_labels:S:1 n_minim_iter=10 pbc="T T T"
P        3.76809786       3.73736021       6.17189372       0.00000000 NULL
P        3.76809786       3.73736021       3.88094364       0.00000000 NULL
P        3.21206231       1.71279491       3.20672326       0.00000000 NULL
P        3.21206231       1.71279491       6.84611409       0.00000000 NULL
P        3.96989118       1.28545460       8.89576992       0.00000000 NULL
P        3.96989118       1.28545460       1.15706744       0.00000000 NULL
P        1.29253007       3.42884191       1.16866085       0.00000000 NULL
P        1.29253007       3.42884191       8.88417651       0.00000000 NULL
P        1.54259728       5.33099713       2.50916421       0.00000000 NULL
P        1.54259728       5.33099713       7.54367314       0.00000000 NULL
P        1.56275964       3.25863814       6.58465576       0.00000000 NULL
P        1.56275964       3.25863814       3.46818160       0.00000000 NULL
P        6.35318305       4.41973624       8.95847311       0.00000000 NULL
P        6.35318305       4.41973624       1.09436425       0.00000000 NULL
P        0.26061932       0.97296910       1.13920207       0.00000000 NULL
P        0.26061932       0.97296910       8.91363528       0.00000000 NULL
P        4.94625769       7.06535788       8.87647617       0.00000000 NULL
P        4.94625769       7.06535788       1.17636118       0.00000000 NULL
P        0.18847950       6.81364282       3.76787346       0.00000000 NULL
P        0.18847950       6.81364282       6.28496390       0.00000000 NULL
20
Lattice="7.065960947996695 0.1094363901348458 0.0 -0.6193204379998819 7.1838403869960015 0.0 0.0 0.0 9.93499356040352" Properties=species:S:1:pos:R:3:initial_magmoms:R:1:castep_labels:S:1 n_minim_iter=11 pbc="T T T"
P        3.73162261       3.69344676       6.09978596       0.00000000 NULL
P        3.73162261       3.69344676       3.83520760       0.00000000 NULL
P        3.18271656       1.69013256       3.17159404       0.00000000 NULL
P        3.18271656       1.69013256       6.76339952       0.00000000 NULL
P        3.93276051       1.27019746       8.79135645       0.00000000 NULL
P        3.93276051       1.27019746       1.14363711       0.00000000 NULL
P        1.27742319       3.39003219       1.15585546       0.00000000 NULL
P        1.27742319       3.39003219       8.77913810       0.00000000 NULL
P        1.52421806       5.27286922       2.48062030       0.00000000 NULL
P        1.52421806       5.27286922       7.45437326       0.00000000 NULL
P        1.54540414       3.22232362       6.50607297       0.00000000 NULL
P        1.54540414       3.22232362       3.42892059       0.00000000 NULL
P        6.29340363       4.36661733       8.85391359       0.00000000 NULL
P        6.29340363       4.36661733       1.08107997       0.00000000 NULL
P        0.25814531       0.96160911       1.12514730       0.00000000 NULL
P        0.25814531       0.96160911       8.80984626       0.00000000 NULL
P        4.89635498       6.98326892       8.77260392       0.00000000 NULL
P        4.89635498       6.98326892       1.16238965       0.00000000 NULL
P        0.18292954       6.73734081       3.72499871       0.00000000 NULL
P        0.18292954       6.73734081       6.20999485       0.00000000 NULL
20
Lattice="7.05727796761381 0.09570801069845632 0.0 -0.6328196233474226 7.177279383284813 0.0 0.0 0.0 9.934131881027541" Properties=species:S:1:pos:R:3:initial_magmoms:R:1:castep_labels:S:1 n_minim_iter=12 pbc="T T T"
P        3.72054240       3.68270129       6.09965516       0.00000000 NULL
P        3.72054240       3.68270129       3.83447672       0.00000000 NULL
P        3.17632341       1.67989969       3.17405434       0.00000000 NULL
P        3.17632341       1.67989969       6.76007754       0.00000000 NULL
P        3.92475666       1.26312116       8.79060205       0.00000000 NULL
P        3.92475666       1.26312116       1.14352983       0.00000000 NULL
P        1.26850854       3.38354734       1.15642687       0.00000000 NULL
P        1.26850854       3.38354734       8.77770502       0.00000000 NULL
P        1.51160830       5.26655201       2.48127388       0.00000000 NULL
P        1.51160830       5.26655201       7.45285800       0.00000000 NULL
P        1.53569169       3.21635561       6.50359397       0.00000000 NULL
P        1.53569169       3.21635561       3.43053791       0.00000000 NULL
P        6.27732995       4.34979571       8.85295236       0.00000000 NULL
P        6.27732995       4.34979571       1.08117952       0.00000000 NULL
P        0.25693166       0.95975881       1.12481694       0.00000000 NULL
P        0.25693166       0.95975881       8.80931494       0.00000000 NULL
P        4.87628425       6.96499227       8.77149480       0.00000000 NULL
P        4.87628425       6.96499227       1.16263709       0.00000000 NULL
P        0.17034749       6.72887391       3.72596047       0.00000000 NULL
P        0.17034749       6.72887391       6.20817141       0.00000000 NULL
20
Lattice="7.020253168848066 0.051398691031104164 0.0 -0.675454158123801 7.157708229087299 0.0 0.0 0.0 9.9340201437507" Properties=species:S:1:pos:R:3:initial_magmoms:R:1:castep_labels:S:1 n_minim_iter=13 pbc="T T T"
P        3.68085318       3.64934677       6.10116465       0.00000000 NULL
P        3.68085318       3.64934677       3.83285550       0.00000000 NULL
P        3.15207582       1.64518606       3.18509622       0.00000000 NULL
P        3.15207582       1.64518606       6.74892392       0.00000000 NULL
P        3.89349603       1.24194582       8.79042404       0.00000000 NULL
P        3.89349603       1.24194582       1.14359610       0.00000000 NULL
P        1.23768076       3.36297776       1.15913807       0.00000000 NULL
P        1.23768076       3.36297776       8.77488207       0.00000000 NULL
P        1.46867299       5.24929772       2.48485112       0.00000000 NULL
P        1.46867299       5.24929772       7.44916903       0.00000000 NULL
P        1.50128486       3.19819718       6.49582848       0.00000000 NULL
P        1.50128486       3.19819718       3.43819167       0.00000000 NULL
P        6.21762927       4.29648710       8.85199116       0.00000000 NULL
P        6.21762927       4.29648710       1.08202898       0.00000000 NULL
P        0.25387848       0.95385229       1.12385460       0.00000000 NULL
P        0.25387848       0.95385229       8.81016555       0.00000000 NULL
P        4.80458051       6.90649867       8.76998917       0.00000000 NULL
P        4.80458051       6.90649867       1.16403097       0.00000000 NULL
P        0.13052738       6.70239033       3.73119276       0.00000000 NULL
P        0.13052738       6.70239033       6.20282738       0.00000000 NULL
20
Lattice="6.97293423999782 0.038221980456901145 0.0 -0.6843605345308279 7.1546388197085005 0.0 0.0 0.0 9.933934009590047" Properties=species:S:1:pos:R:3:initial_magmoms:R:1:castep_labels:S:1 n_minim_iter=14 pbc="T T T"
P        3.65362042       3.64312422       6.10280291       0.00000000 NULL
P        3.65362042       3.64312422       3.83113110       0.00000000 NULL
P        3.13009929       1.62637133       3.19835743       0.00000000 NULL
P        3.13009929       1.62637133       6.73557658       0.00000000 NULL
P        3.86226573       1.24226225       8.78970247       0.00000000 NULL
P        3.86226573       1.24226225       1.14423154       0.00000000 NULL
P        1.22019461       3.35615666       1.16239952       0.00000000 NULL
P        1.22019461       3.35615666       8.77153449       0.00000000 NULL
P        1.44691376       5.25483054       2.48955208       0.00000000 NULL
P        1.44691376       5.25483054       7.44438193       0.00000000 NULL
P        1.47825559       3.19571095       6.48700533       0.00000000 NULL
P        1.47825559       3.19571095       3.44692868       0.00000000 NULL
P        6.16825452       4.28252070       8.85058901       0.00000000 NULL
P        6.16825452       4.28252070       1.08334500       0.00000000 NULL
P        0.25715017       0.95197243       1.12258969       0.00000000 NULL
P        0.25715017       0.95197243       8.81134431       0.00000000 NULL
P        4.75460141       6.88705165       8.76832552       0.00000000 NULL
P        4.75460141       6.88705165       1.16560849       0.00000000 NULL
P        0.12222767       6.69432592       3.73770246       0.00000000 NULL
P        0.12222767       6.69432592       6.19623155       0.00000000 NULL
20
Lattice="6.900234551088251 -0.00680166232530733 0.0 -0.7240379482893295 7.105267358887053 0.0 0.0 0.0 9.899795764468054" Properties=species:S:1:pos:R:3:initial_magmoms:R:1:castep_labels:S:1 n_minim_iter=15 pbc="T T T"
P        3.59998651       3.59660020       6.08463392       0.00000000 NULL
P        3.59998651       3.59660020       3.81516185       0.00000000 NULL
P        3.09021824       1.57340377       3.21180851       0.00000000 NULL
P        3.09021824       1.57340377       6.68798725       0.00000000 NULL
P        3.80909030       1.22305597       8.75725834       0.00000000 NULL
P        3.80909030       1.22305597       1.14253742       0.00000000 NULL
P        1.18231463       3.31733566       1.16437164       0.00000000 NULL
P        1.18231463       3.31733566       8.73542412       0.00000000 NULL
P        1.39367650       5.22562792       2.49012893       0.00000000 NULL
P        1.39367650       5.22562792       7.40966683       0.00000000 NULL
P        1.42987205       3.16675092       6.45025831       0.00000000 NULL
P        1.42987205       3.16675092       3.44953745       0.00000000 NULL
P        6.07590997       4.21203170       8.81736296       0.00000000 NULL
P        6.07590997       4.21203170       1.08243281       0.00000000 NULL
P        0.26126314       0.94187212       1.11612649       0.00000000 NULL
P        0.26126314       0.94187212       8.78366927       0.00000000 NULL
P        4.65070499       6.79418137       8.73582515       0.00000000 NULL
P        4.65070499       6.79418137       1.16397062       0.00000000 NULL
P        0.08658970       6.63701912       3.73652591       0.00000000 NULL
P        0.08658970       6.63701912       6.16326985       0.00000000 NULL
20
Lattice="6.905395673374431 -0.018564864254780926 0.0 -0.7369139675565344 7.135276336451738 0.0 0.0 0.0 9.949976292822951" Properties=species:S:1:pos:R:3:initial_magmoms:R:1:castep_labels:S:1 n_minim_iter=16 pbc="T T T"
P        3.59861880       3.60628679       6.11598522       0.00000000 NULL
P        3.59861880       3.60628679       3.83399108       0.00000000 NULL
P        3.08995036       1.56959019       3.23358256       0.00000000 NULL
P        3.08995036       1.56959019       6.71639373       0.00000000 NULL
P        3.80878043       1.22464123       8.80083890       0.00000000 NULL
P        3.80878043       1.22464123       1.14913740       0.00000000 NULL
P        1.17730425       3.32699401       1.17145088       0.00000000 NULL
P        1.17730425       3.32699401       8.77852541       0.00000000 NULL
P        1.38491365       5.24875728       2.50495117       0.00000000 NULL
P        1.38491365       5.24875728       7.44502512       0.00000000 NULL
P        1.42276354       3.17811027       6.47999631       0.00000000 NULL
P        1.42276354       3.17811027       3.46997999       0.00000000 NULL
P        6.07275025       4.21925873       8.86104154       0.00000000 NULL
P        6.07275025       4.21925873       1.08893475       0.00000000 NULL
P        0.26330192       0.94511596       1.12135818       0.00000000 NULL
P        0.26330192       0.94511596       8.82861811       0.00000000 NULL
P        4.63946778       6.81142043       8.77949194       0.00000000 NULL
P        4.63946778       6.81142043       1.17048436       0.00000000 NULL
P        0.07716877       6.66279130       3.75797395       0.00000000 NULL
P        0.07716877       6.66279130       6.19200235       0.00000000 NULL
20
Lattice="6.883575106339815 -0.02074063098187293 0.0 -0.7369293271156846 7.1159369484295 0.0 0.0 0.0 9.921629142417391" Properties=species:S:1:pos:R:3:initial_magmoms:R:1:castep_labels:S:1 n_minim_iter=17 pbc="T T T"
P        3.58686464       3.59555607       6.09871317       0.00000000 NULL
P        3.58686464       3.59555607       3.82291597       0.00000000 NULL
P        3.07969698       1.56233869       3.22674438       0.00000000 NULL
P        3.07969698       1.56233869       6.69488476       0.00000000 NULL
P        3.79600803       1.22133964       8.77529489       0.00000000 NULL
P        3.79600803       1.22133964       1.14633425       0.00000000 NULL
P        1.17231410       3.31675870       1.16872373       0.00000000 NULL
P        1.17231410       3.31675870       8.75290542       0.00000000 NULL
P        1.37835549       5.23562790       2.49884679       0.00000000 NULL
P        1.37835549       5.23562790       7.42278236       0.00000000 NULL
P        1.41620916       3.16947233       6.46044106       0.00000000 NULL
P        1.41620916       3.16947233       3.46118809       0.00000000 NULL
P        6.05219185       4.20593086       8.83558895       0.00000000 NULL
P        6.05219185       4.20593086       1.08604019       0.00000000 NULL
P        0.26359498       0.94234140       1.11776574       0.00000000 NULL
P        0.26359498       0.94234140       8.80386340       0.00000000 NULL
P        4.62124024       6.79040904       8.75444177       0.00000000 NULL
P        4.62124024       6.79040904       1.16718737       0.00000000 NULL
P        0.07574293       6.64400895       3.74840243       0.00000000 NULL
P        0.07574293       6.64400895       6.17322671       0.00000000 NULL
20
Lattice="6.875699216726235 -0.025745441056306 0.0 -0.7413611904205394 7.114265185006904 0.0 0.0 0.0 9.921282166654368" Properties=species:S:1:pos:R:3:initial_magmoms:R:1:castep_labels:S:1 n_minim_iter=18 pbc="T T T"
P        3.58100636       3.59225637       6.09867750       0.00000000 NULL
P        3.58100636       3.59225637       3.82260467       0.00000000 NULL