9
Lattice="3.501116197660742 -4.874912885942752e-16 -3.336360696670322e-39 -1.7505580988303704 3.0320555687753825 -6.302977387857155e-39 1.3404212125764786e-38 3.697933245886156e-38 14.066136265551666" Properties=species:S:1:pos:R:3:initial_magmoms:R:1:castep_labels:S:1:forces:R:3 n_minim_iter=1 energy=-47.237029823604 stress="-0.0012582357514815898 0.0 0.0 0.0 -0.0012581687813010768 -0.0 0.0 -0.0 -0.004127372225027165" free_energy=-47.237029823604 pbc="T T T"
P        2.03855710       1.56856094       6.16536516       0.00000000 NULL       0.53123500       0.29001900      -0.59650300
P        2.08969317       0.48233286      10.85407724       0.00000000 NULL      -0.01445300      -0.60507300      -0.59650400
P        1.12342403       0.98116176       1.47665307       0.00000000 NULL      -0.51678300       0.31505200      -0.59650300
P        0.37909037       1.30494065      12.12912505       0.00000000 NULL       0.25316200       0.32710900       0.05913800
P       -0.80999152       2.05128335       2.75170088       0.00000000 NULL       0.15670500      -0.38279900       0.05913900
P        0.43090116       2.70788713       7.44041296       0.00000000 NULL      -0.40986600       0.05569100       0.05913800
P       -0.84940490       2.44662023       9.22317515       0.00000000 NULL      -0.95597100       0.10101200       0.53736600
P        0.79297963       2.54435167      13.91188724       0.00000000 NULL       0.56546500       0.77739000       0.53736400
P        0.05642528       1.07313923       4.53446306       0.00000000 NULL       0.39050700      -0.87840200       0.53736500
9
Lattice="3.52508880088994 -6.304589792759044e-16 -2.6420260653991686e-38 -1.7625444004449693 3.0528164521667125 -5.24682456166492e-38 -7.894279438917644e-38 -2.296423420404416e-37 14.384551527807648" Properties=species:S:1:pos:R:3:initial_magmoms:R:1:castep_labels:S:1:forces:R:3 n_minim_iter=2 energy=-47.388952988574 stress="0.014485013805456264 6.460006335329652e-08 -0.0 6.460006335329652e-08 0.014484884605329556 0.0 -0.0 0.0 0.026432924722775163" free_energy=-47.388952988574 pbc="T T T"
P        2.07194243       1.58990701       6.28277458       0.00000000 NULL       0.53919100       0.22097300      -0.29187900
P        2.10347305       0.46350816      11.07762509       0.00000000 NULL      -0.07822900      -0.57743900      -0.29187800
P        1.11221773       0.99940127       1.48792407       0.00000000 NULL      -0.46096200       0.35646800      -0.29188000
P        0.39094409       1.32583802      12.40588876       0.00000000 NULL       0.35310800       0.49625600      -0.09846500
P       -0.80980703       2.05132992       2.81618774       0.00000000 NULL       0.25321600      -0.55392800      -0.09846600
P        0.41886294       2.72846495       7.61103825       0.00000000 NULL      -0.60632300       0.05767100      -0.09846600
P       -0.89018042       2.46706653       9.45191968       0.00000000 NULL      -0.72682100       0.12798700       0.39034400
P        0.81908810       2.59020204      14.24677019       0.00000000 NULL       0.47425000       0.56545100       0.39034600
P        0.07109232       1.04836432       4.65706917       0.00000000 NULL       0.25257000      -0.69343900       0.39034400
9
Lattice="3.460459226452929 -1.6398344942327782e-16 -1.2221097052055074e-37 -1.730229613226464 2.996845598868483 -2.4364893558185143e-37 -4.702892729769479e-37 -1.3593459055463048e-36 14.278688985258672" Properties=species:S:1:pos:R:3:initial_magmoms:R:1:castep_labels:S:1:forces:R:3 n_minim_iter=3 energy=-47.869726935722 stress="-0.00543137764920169 -6.753260946959553e-08 -0.0 -6.753260946959553e-08 -0.00543124258398275 -0.0 -0.0 -0.0 0.009761838698830034" free_energy=-47.869726935722 pbc="T T T"
P        2.09337518       1.59200381       6.17317108       0.00000000 NULL      -0.00310900       0.35624500       0.24221500
P        2.06225777       0.38792761      10.93273407       0.00000000 NULL       0.31007300      -0.17543100       0.24221400
P        1.03505590       1.01691417       1.41360808       0.00000000 NULL      -0.30696400      -0.18081500       0.24221500
P        0.41365647       1.34078809      12.31870977       0.00000000 NULL       0.22875100       0.49794800      -0.05994100
P       -0.77590130       1.96821454       2.79958378       0.00000000 NULL       0.31686100      -0.44707800      -0.05994200
P        0.36224483       2.68468856       7.55914677       0.00000000 NULL      -0.54561200      -0.05086900      -0.05994100
P       -0.97682976       2.43354732       9.44160265       0.00000000 NULL      -0.75861900      -0.07712200      -0.18227300
P        0.86569908       2.62603132      14.20116565       0.00000000 NULL       0.31252000       0.69554400      -0.18227300
P        0.11113069       0.93411254       4.68203966       0.00000000 NULL       0.44609900      -0.61842200      -0.18227400
9
Lattice="3.52250363552177 -7.991371143564726e-16 -1.0329800206418792e-36 -1.7612518177608838 3.0505776332848926 -2.065472584228518e-36 -4.2486498284757656e-36 -1.2266446587357346e-35 13.942419492827057" Properties=species:S:1:pos:R:3:initial_magmoms:R:1:castep_labels:S:1:forces:R:3 n_minim_iter=4 energy=-47.983703360536 stress="0.007776630123901849 -0.0 0.0 -0.0 0.007776563377441255 0.0 0.0 0.0 -0.006956649855494552" free_energy=-47.983703360536 pbc="T T T"
P        2.14388034       1.63513812       6.01910681       0.00000000 NULL       0.02766300       0.21541800       0.27189600
P        2.10538281       0.37635373      10.66657998       0.00000000 NULL       0.17272800      -0.13166500       0.27189600
P        1.03449231       1.03908577       1.37163365       0.00000000 NULL      -0.20038900      -0.08375600       0.27189900
P        0.43232665       1.38375136      12.02846911       0.00000000 NULL       0.20990700       0.57927800      -0.02439100
P       -0.77905130       1.98429609       2.73352278       0.00000000 NULL       0.39671500      -0.47142500      -0.02438900
P        0.34672466       2.73310781       7.38099594       0.00000000 NULL      -0.60662400      -0.10785300      -0.02439000
P       -1.03357162       2.47805734       9.22806158       0.00000000 NULL      -0.55414500       0.05819600      -0.24750600
P        0.90159461       2.70664824      13.87553475       0.00000000 NULL       0.32747100       0.45080700      -0.24750900
P        0.13197702       0.91644967       4.58058842       0.00000000 NULL       0.22667200      -0.50900100      -0.24750500
9
Lattice="3.498870129427827 -1.3231290942270418e-15 -9.11745578060881e-39 -1.7494350647139116 3.030110416627043 7.155963258181685e-40 -1.610791620529405e-37 -4.668150486639893e-37 14.02003800282618" Properties=species:S:1:pos:R:3:initial_magmoms:R:1:castep_labels:S:1:forces:R:3 n_minim_iter=5 energy=-48.201022332994 stress="0.006932122730403911 -0.0 -0.0 -0.0 0.006932055453715179 0.0 -0.0 0.0 0.0017286072403167548" free_energy=-48.201022332994 pbc="T T T"
P        2.14204260       1.65601947       6.06211489       0.00000000 NULL       0.08289300       0.03211800      -0.07009000
P        2.11256870       0.34703737      10.73546089       0.00000000 NULL      -0.01363300      -0.08784600      -0.07009000
P        0.99369390       1.02705357       1.38876889       0.00000000 NULL      -0.06926100       0.05572900      -0.07009100
P        0.45422401       1.42922818      12.09326157       0.00000000 NULL       0.08993800       0.44591300      -0.01554400
P       -0.73879915       1.92212680       2.74656957       0.00000000 NULL       0.34120300      -0.30084500      -0.01554400
P        0.28457515       2.70886585       7.41991557       0.00000000 NULL      -0.43114100      -0.14506900      -0.01554400
P       -1.10623636       2.46275767       9.27210661       0.00000000 NULL      -0.15165200       0.15907700       0.08563400
P        0.93649383       2.75676037      13.94545261       0.00000000 NULL       0.21359100       0.05179500       0.08563500
P        0.16974254       0.84070279       4.59876061       0.00000000 NULL      -0.06193900      -0.21087300       0.08563400
9
Lattice="3.52184857048184 -1.8692057381641505e-15 -2.8974084740531125e-38 -1.7609242852409177 3.050010330319183 -4.371713814494454e-38 -2.4172088910936204e-37 -6.994837422654298e-37 13.999854622207929" Properties=species:S:1:pos:R:3:initial_magmoms:R:1:castep_labels:S:1:forces:R:3 n_minim_iter=6 energy=-48.338675185738 stress="0.0029124518009495583 6.649736976459105e-08 0.0 6.649736976459105e-08 0.0029122523088402647 0.0 0.0 0.0 0.00031945336434909536" free_energy=-48.338675185738 pbc="T T T"
P        2.14899037       1.67543672       6.03212186       0.00000000 NULL      -0.08301900      -0.11502300       0.05243700
P        2.13739987       0.35121171      10.69874007       0.00000000 NULL      -0.05810300       0.12941000       0.05243700
P        0.99638262       1.02336189       1.36550366       0.00000000 NULL       0.14112300      -0.01438600       0.05243500
P        0.46459091       1.55909751      12.07644925       0.00000000 NULL       0.08449700       0.16166400      -0.04795100
P       -0.64300168       1.86811404       2.74321283       0.00000000 NULL       0.09775600      -0.15400900      -0.04795300
P        0.17841078       2.67280910       7.40983104       0.00000000 NULL      -0.18225400      -0.00765700      -0.04795200
P       -1.13782679       2.51860664       9.27942706       0.00000000 NULL      -0.14719300       0.14032500      -0.00448500
P        0.98916645       2.77609391      13.94604526       0.00000000 NULL       0.19512300       0.05731000      -0.00448300
P        0.14866034       0.80532010       4.61280885       0.00000000 NULL      -0.04792900      -0.19763500      -0.00448400
9
Lattice="3.5484428834398365 -2.306377286685835e-15 -1.101468429204131e-37 -1.7742214417199156 3.0730416809370023 -2.060420693622241e-37 -5.661948412125411e-37 -1.6359370719273643e-36 13.952088863383503" Properties=species:S:1:pos:R:3:initial_magmoms:R:1:castep_labels:S:1:forces:R:3 n_minim_iter=7 energy=-48.443703505886 stress="0.005052295157771073 6.572860767792098e-08 0.0 6.572860767792098e-08 0.005052360886378751 -0.0 0.0 -0.0 0.004990181623515438" free_energy=-48.443703505886 pbc="T T T"
P        2.10493172       1.61265944       6.00227509       0.00000000 NULL      -0.16785400      -0.10793200       0.08650900
P        2.11835963       0.44378762      10.65297137       0.00000000 NULL      -0.00954600       0.19933100       0.08650900
P        1.09937298       1.01659462       1.35157880       0.00000000 NULL       0.17739900      -0.09140000       0.08650900
P        0.50228304       1.66915518      12.01407560       0.00000000 NULL      -0.17204200       0.09190800       0.20483900
P       -0.57983217       1.80347421       2.71268303       0.00000000 NULL       0.16561500       0.10303900       0.20483900
P        0.07754913       2.67345396       7.36337932       0.00000000 NULL       0.00642700      -0.19494600       0.20483900
P       -1.21890957       2.63019854       9.27820318       0.00000000 NULL       0.00044800       0.12308900      -0.29134700
P        1.11305211       2.81354906      13.92889947       0.00000000 NULL       0.10637400      -0.06193100      -0.29134800
P        0.10585747       0.70233575       4.62750689       0.00000000 NULL      -0.10682100      -0.06115700      -0.29134800
9
Lattice="3.5689061445991634 -1.995824734087334e-15 -8.057244219787153e-36 -1.7844530722995795 3.0907633849452547 -1.6100314745694336e-35 -3.1391452186046125e-35 -9.061941147231983e-35 13.653309063747924" Properties=species:S:1:pos:R:3:initial_magmoms:R:1:castep_labels:S:1:forces:R:3 n_minim_iter=8 energy=-48.635707401644 stress="0.007525591548223846 -0.0 -0.0 -0.0 0.007525591548223846 0.0 -0.0 0.0 0.006286586984129784" free_energy=-48.635707401644 pbc="T T T"
P        1.98417076       1.47635702       5.82513398       0.00000000 NULL      -0.15307300      -0.42036400       0.56136600
P        2.07093039       0.63424258      10.37623700       0.00000000 NULL      -0.28751000       0.34274800       0.56136600
P        1.29825808       0.98016377       1.27403096       0.00000000 NULL       0.44058300       0.07761700       0.56136600
P        0.48828491       1.84902768      11.81162834       0.00000000 NULL      -0.44796900       0.02577500      -0.24138500
P       -0.42729057       1.74338240       2.70942230       0.00000000 NULL       0.24630700       0.37506500      -0.24138500
P       -0.06099433       2.58911667       7.26052532       0.00000000 NULL       0.20166200      -0.40084100      -0.24138500
P       -1.37887481       2.83620662       9.07328717       0.00000000 NULL       0.12458600       0.00699800      -0.31998100
P        1.36121132       2.86680068      13.62439019       0.00000000 NULL      -0.05623200      -0.11139300      -0.31998100
P        0.01766349       0.47851946       4.52218415       0.00000000 NULL      -0.06835300       0.10439500      -0.31998100
9
Lattice="3.609652252064825 -2.242697414921474e-16 -4.0313953169398075e-33 -1.8048261260324114 3.1260505491158486 -8.062808276727873e-33 -1.4945366184520445e-32 -4.314355929531798e-32 13.158793730288094" Properties=species:S:1:pos:R:3:initial_magmoms:R:1:castep_labels:S:1:forces:R:3 n_minim_iter=9 energy=-49.090770056335 stress="0.03197943079086493 -0.0 0.0 -0.0 0.031979632833848526 -6.734766119788504e-08 0.0 -6.734766119788504e-08 0.022193613575828643" free_energy=-49.090770056335 pbc="T T T"
P        1.78964627       1.16617572       5.56957179       0.00000000 NULL      -0.04016900      -0.64259100       0.88781400
P        1.91994080       0.99308356       9.95583637       0.00000000 NULL      -0.53641700       0.35608200       0.88781400
P        1.70489132       0.96679127       1.18330721       0.00000000 NULL       0.57658500       0.28650900       0.88781300
P        0.36504462       2.20039669      11.42545954       0.00000000 NULL      -0.64821800      -0.20307700       0.31585400
P       -0.08174900       1.70971429       2.65293039       0.00000000 NULL       0.14823800       0.66291200       0.31585200
P       -0.28329561       2.34199011       7.03919496       0.00000000 NULL       0.49998100      -0.45983300       0.31585300
P       -1.69496946       3.20853982       8.74759532       0.00000000 NULL       0.43893200      -0.13918400      -1.20366700
P        1.82133560       2.98966725      13.13385989       0.00000000 NULL      -0.34000300      -0.31053400      -1.20366500
P       -0.12636613       0.05389402       4.36133074       0.00000000 NULL      -0.09892900       0.44971800      -1.20366600
9
Lattice="3.6120652433053593 4.1687493490738685e-16 -1.268766715723283e-32 -1.806032621652679 3.1281402608292597 -2.533179610470027e-32 -4.6588453172374715e-32 -1.3448949000325851e-31 13.057339483400307" Properties=species:S:1:pos:R:3:initial_magmoms:R:1:castep_labels:S:1:forces:R:3 n_minim_iter=10 energy=-49.166888349794 stress="0.03277293448814389 -6.778031483514312e-08 -0.0 -6.778031483514312e-08 0.03277293448814389 0.0 -0.0 0.0 0.018256560020530964" free_energy=-49.166888349794 pbc="T T T"
P        1.75921564       1.09162077       5.51870984       0.00000000 NULL       0.05016700      -0.47949300       0.93677000
P        1.87179613       1.05880444       9.87115633       0.00000000 NULL      -0.44033600       0.19630100       0.93677000
P        1.78708610       0.97771504       1.16626334       0.00000000 NULL       0.39017000       0.28319200       0.93677200
P        0.33989045       2.25900419      11.35449542       0.00000000 NULL      -0.64160500      -0.24668400       0.31923800
P       -0.01962282       1.70428440       2.64960243       0.00000000 NULL       0.10716800       0.67898700       0.31924000
P       -0.32026762       2.29299192       7.00204892       0.00000000 NULL       0.53443600      -0.43230300       0.31923900
P       -1.75592702       3.26661687       8.67094593       0.00000000 NULL       0.46793200      -0.19895000      -1.25600900
P        1.90090409       3.01550923      13.02339243       0.00000000 NULL      -0.40626100      -0.30576500      -1.25601100
P       -0.14497706      -0.02584559       4.31849944       0.00000000 NULL      -0.06167100       0.50471500      -1.25600900
9
Lattice="3.5533541196010434 5.850822150936479e-15 -4.246990993848594e-32 -1.7766770598005257 3.077294936216589 -8.474259676778619e-32 -1.5400598152667436e-31 -4.445730090470535e-31 12.964678370053159" Properties=species:S:1:pos:R:3:initial_magmoms:R:1:castep_labels:S:1:forces:R:3 n_minim_iter=11 energy=-49.804726853886 stress="0.01064260494164622 -0.0 -0.0 -0.0 0.010642675480867041 -0.0 -0.0 -0.0 0.005691104335986855" free_energy=-49.804726853886 pbc="T T T"
P        1.78273176       0.98304867       5.52133378       0.00000000 NULL       0.04085400       0.05919100       0.54751100
P        1.73665631       1.04187961       9.84289324       0.00000000 NULL       0.03083400      -0.06497700       0.54751100
P        1.81064312       1.05236665       1.19977432       0.00000000 NULL      -0.07168800       0.00578500       0.54751300
P        0.17642205       2.22806182      11.30777696       0.00000000 NULL      -0.36240700      -0.07786900       0.25867500
P        0.06467005       1.81047804       2.66465804       0.00000000 NULL       0.11376700       0.35278800       0.25867700
P       -0.24109210       2.11605000       6.98621750       0.00000000 NULL       0.24864100      -0.27491900       0.25867600
P       -1.81390605       3.27851037       8.53376626       0.00000000 NULL       0.30091300      -0.26689500      -0.80618700
P        1.96954924       3.00892847      12.85532572       0.00000000 NULL      -0.38159400      -0.12715000      -0.80618800
P       -0.15564318      -0.13284898       4.21220681       0.00000000 NULL       0.08068100       0.39404600      -0.80618700
9
Lattice="3.551278552716135 8.513396727749647e-15 -3.880345776876488e-32 -1.7756392763580737 3.075497442567003 -7.7431561268606e-32 -1.40469542190303e-31 -4.054971567339096e-31 12.970477318844758" Properties=species:S:1:pos:R:3:initial_magmoms:R:1:castep_labels:S:1:forces:R:3 n_minim_iter=12 energy=-50.045410928952 stress="0.00344924527940939 7.059012503140188e-08 0.0 7.059012503140188e-08 0.0034490335090342954 7.059012503140188e-08 0.0 7.059012503140188e-08 0.00484107077465354" free_energy=-50.045410928952 pbc="T T T"
P        1.84898053       0.99263415       5.55538710       0.00000000 NULL      -0.10070900       0.06753200       0.17890000
P        1.71079541       0.97791625       9.87887954       0.00000000 NULL       0.10883800       0.05345300       0.17890000
P        1.76714189       1.10494703       1.23189466       0.00000000 NULL      -0.00812900      -0.12098300       0.17890100
P        0.10553945       2.21960979      11.32937460       0.00000000 NULL      -0.21244500      -0.13396800       0.16503400
P        0.09382947       1.87429270       2.68238972       0.00000000 NULL      -0.00979600       0.25096800       0.16503600
P       -0.19936891       2.05709239       7.00588216       0.00000000 NULL       0.22224100      -0.11699900       0.16503500
P       -1.77643261       3.22703210       8.48946019       0.00000000 NULL       0.15244500      -0.14789500      -0.34393500
P        1.90726881       3.00041716      12.81295262       0.00000000 NULL      -0.20430400      -0.05807400      -0.34393600
P       -0.13083619      -0.07645439       4.16596775       0.00000000 NULL       0.05185900       0.20596800      -0.34393600
9
Lattice="3.5265979307491904 9.546859906982094e-15 -4.0649960678473493e-32 -1.7632989653746023 3.0541233969624284 -8.114290156675138e-32 -1.4626635815375234e-31 -4.222309523565207e-31 12.967823953137877" Properties=species:S:1:pos:R:3:initial_magmoms:R:1:castep_labels:S:1:forces:R:3 n_minim_iter=13 energy=-50.09344051567 stress="-0.004671585179872298 0.0 -0.0 0.0 -0.004671728372417161 0.0 -0.0 0.0 0.0006237467254218066" free_energy=-50.09344051567 pbc="T T T"
P        1.82007436       1.01087694       5.55493709       0.00000000 NULL      -0.02952900       0.00853100       0.15700600
P        1.72870690       0.97245429       9.87754507       0.00000000 NULL       0.02215300       0.02130900       0.15700600
P        1.74111564       1.07079216       1.23232910       0.00000000 NULL       0.00737700      -0.02983900       0.15700600
P        0.07253787       2.18005839      11.32734753       0.00000000 NULL      -0.11994600      -0.11112000       0.13207800
P        0.08841806       1.90127456       2.68213156       0.00000000 NULL      -0.03625900       0.15943600       0.13207800
P       -0.16095592       2.02691383       7.00473955       0.00000000 NULL       0.15620500      -0.04831600       0.13207800
P       -1.75308294       3.16599143       8.48674641       0.00000000 NULL       0.09357000      -0.06963500      -0.28908400
P        1.85507152       2.98934204      12.80935439       0.00000000 NULL      -0.10709000      -0.04621600      -0.28908400
P       -0.10198857      -0.04708669       4.16413843       0.00000000 NULL       0.01352100       0.11585000      -0.28908400
9
Lattice="3.559065528172045 1.2511236741016962e-14 -8.377255138981904e-32 -1.7795327640860323 3.082241161130465 -1.6741211997407403e-31 -3.066493464884144e-31 -8.852138234871779e-31 12.91113879495758" Properties=species:S:1:pos:R:3:initial_magmoms:R:1:castep_labels:S:1:forces:R:3 n_minim_iter=14 energy=-50.151432540248 stress="-0.0007433955107183719 -0.0 0.0 -0.0 -0.0007436073244264311 7.060456935306031e-08 0.0 7.060456935306031e-08 -0.003958303971640619" free_energy=-50.151432540248 pbc="T T T"
P        1.88334276       1.04150138       5.55593093       0.00000000 NULL      -0.05611000      -0.02561600      -0.06944700
P        1.73982805       0.93046779       9.85964386       0.00000000 NULL       0.00587100       0.06140300      -0.06944700
P        1.71542749       1.11027197       1.25221799       0.00000000 NULL       0.05024000      -0.03578600      -0.06944800
P        0.02871596       2.14725605      11.29461242       0.00000000 NULL      -0.03203200       0.03009600       0.01040800
P        0.06568755       1.98374438       2.68718655       0.00000000 NULL       0.04208000       0.01269200       0.01040700
P       -0.09440350       2.03348188       6.99089949       0.00000000 NULL      -0.01005000      -0.04278900       0.01040700
P       -1.70932744       3.16586619       8.40759406       0.00000000 NULL       0.02776400      -0.01699700       0.05903900
P        1.81685151       2.97962905      12.71130699       0.00000000 NULL      -0.02860100      -0.01554600       0.05904100
P       -0.10752406       0.01898707       4.10388112       0.00000000 NULL       0.00083800       0.03254300       0.05904000
9
Lattice="3.5593750193602784 1.2638379755838203e-14 -3.3657621429366374e-32 -1.779687509680149 3.0825091883617217 -6.716302101819565e-32 -1.240602841849929e-31 -3.5812573282361107e-31 12.936613666590622" Properties=species:S:1:pos:R:3:initial_magmoms:R:1:castep_labels:S:1:forces:R:3 n_minim_iter=15 energy=-50.154929716465 stress="-8.362805572612724e-05 -7.045329041796736e-08 -0.0 -7.045329041796736e-08 -8.36985090165452e-05 0.0 -0.0 0.0 -0.0019193589908566844" free_energy=-50.154929716465 pbc="T T T"
P        1.87413227       1.03442125       5.56166674       0.00000000 NULL       0.00367600      -0.02093200      -0.01924800
P        1.73845647       0.94225240       9.87387129       0.00000000 NULL      -0.01996400       0.00728300      -0.01924900
P        1.72647380       1.10583552       1.24946218       0.00000000 NULL       0.01628900       0.01364900      -0.01925000
P        0.02843982       2.15762569      11.31925944       0.00000000 NULL      -0.00737500      -0.01606000      -0.01964300
P        0.07465125       1.97906673       2.69485033       0.00000000 NULL      -0.01022100       0.01441600      -0.01964500
P       -0.10309106       2.02832594       7.00705489       0.00000000 NULL       0.01759500       0.00164300      -0.01964400
P       -1.70335245       3.15138729       8.42704786       0.00000000 NULL      -0.00335000       0.02087400       0.03889300
P        1.80117017       2.98196203      12.73925242       0.00000000 NULL       0.01975300      -0.00753600       0.03889400
P       -0.09781771       0.03166904       4.11484331       0.00000000 NULL      -0.01640200      -0.01333800       0.03889200
9
Lattice="3.5560654999703027 1.2604349670671743e-14 -2.0688761595619375e-32 -1.7780327499851611 3.0796430604956853 -4.1239696388972964e-32 -7.65722545632702e-32 -2.2104083581259203e-31 12.961689623743087" Properties=species:S:1:pos:R:3:initial_magmoms:R:1:castep_labels:S:1:forces:R:3 n_minim_iter=16 energy=-50.155759201619 stress="-0.0005266688064824339 -7.044794094200561e-08 -7.044794094200561e-08 -7.044794094200561e-08 -0.0005265279106005499 -0.0 -7.044794094200561e-08 -0.0 -0.00024452480300970146" free_energy=-50.155759201619 pbc="T T T"
P        1.86881456       1.03154474       5.57074238       0.00000000 NULL       0.00267600      -0.00248200       0.00462600
P        1.73696943       0.94542980       9.89130558       0.00000000 NULL      -0.00348700      -0.00107800       0.00462500
P        1.72831427       1.10266850       1.25017917       0.00000000 NULL       0.00081100       0.00356000       0.00462500
P        0.02730107       2.15462574      11.33878109       0.00000000 NULL      -0.00639300      -0.00468100       0.00367500
P        0.07427735       1.97868677       2.69765468       0.00000000 NULL      -0.00085700       0.00787700       0.00367300
P       -0.10157841       2.02597360       7.01821788       0.00000000 NULL       0.00725100      -0.00319600       0.00367400
P       -1.70597840       3.15704653       8.44750683       0.00000000 NULL      -0.00366400      -0.00585400      -0.00830000
P        1.80903895       2.97854043      12.76807004       0.00000000 NULL      -0.00323800       0.00610000      -0.00829900
P       -0.10306054       0.02369916       4.12694363       0.00000000 NULL       0.00690100      -0.00024700      -0.00830000
9
Lattice="3.557453305593395 1.2607226337903789e-14 -2.045702470924656e-32 -1.7787266527967072 3.0808449354207976 -4.0777767188806874e-32 -7.575343563766598e-32 -2.1867713919073347e-31 12.962382731540592" Properties=species:S:1:pos:R:3:initial_magmoms:R:1:castep_labels:S:1:forces:R:3 n_minim_iter=17 energy=-50.155879421909 stress="-8.728262832078834e-05 -7.038921638773253e-08 -7.038921638773253e-08 -7.038921638773253e-08 -8.714184988801287e-05 -0.0 -7.038921638773253e-08 -0.0 -4.0192242557395275e-05" free_energy=-50.155879421909 pbc="T T T"
P        1.87199029       1.03070157       5.57120385       0.00000000 NULL      -0.00043400      -0.00030800       0.00481900
P        1.73534526       0.94430300       9.89199809       0.00000000 NULL      -0.00004900       0.00052900       0.00481900
P        1.72884442       1.10584035       1.25040961       0.00000000 NULL       0.00048300      -0.00022100       0.00481800
P        0.02490120       2.15460453      11.34018324       0.00000000 NULL      -0.00165300      -0.00022500      -0.00607400
P        0.07476501       1.98197759       2.69859475       0.00000000 NULL       0.00063100       0.00154300      -0.00607600
P       -0.09966621       2.02510774       7.01938900       0.00000000 NULL       0.00102200      -0.00131800      -0.00607500
P       -1.70648941       3.15600437       8.44699889       0.00000000 NULL      -0.00155600      -0.00234800       0.00125700
P        1.80769802       2.98070593      12.76779314       0.00000000 NULL      -0.00125500       0.00252200       0.00125700
P       -0.10120860       0.02497956       4.12620465       0.00000000 NULL       0.00281100      -0.00017400       0.00125600
