12
Lattice="4.01299 0.0 0.0 0.0 7.293119999999999 0.0 0.0 0.0 9.368429999999998" Properties=species:S:1:pos:R:3:initial_magmoms:R:1:castep_labels:S:1 n_minim_iter=1 pbc="T T T"
P        2.93937352       2.15034653       6.71064576       0.00000000 NULL
P        1.07361648       2.15034653       2.65778424       0.00000000 NULL
P        0.93287852       2.15034653       7.34199924       0.00000000 NULL
P        3.08011148       2.15034653       2.02643076       0.00000000 NULL
P        3.01181882       2.72651760       4.78613790       0.00000000 NULL
P        1.00117118       2.72651760       4.58229210       0.00000000 NULL
P        1.00532382       2.72651760       9.26650710       0.00000000 NULL
P        3.00766618       2.72651760       0.10192290       0.00000000 NULL
P        2.21951374       5.80872430       8.19296840       0.00000000 NULL
P        1.79347626       5.80872430       1.17546160       0.00000000 NULL
P        0.21301874       5.80872430       5.85967660       0.00000000 NULL
P        3.79997126       5.80872430       3.50875340       0.00000000 NULL
12
Lattice="4.0235748932259785 0.0 0.0 0.0 7.287199916578803 0.0 0.0 0.0 9.374620379482044" Properties=species:S:1:pos:R:3:initial_magmoms:R:1:castep_labels:S:1 n_minim_iter=2 pbc="T T T"
P        2.94714020       2.14854295       6.71526360       0.00000000 NULL
P        1.07643470       2.14854295       2.65935678       0.00000000 NULL
P        0.93535275       2.14854295       7.34666697       0.00000000 NULL
P        3.08822214       2.14854295       2.02795341       0.00000000 NULL
P        3.01973769       2.72433404       4.78924564       0.00000000 NULL
P        1.00383720       2.72433404       4.58537474       0.00000000 NULL
P        1.00795025       2.72433404       9.27268493       0.00000000 NULL
P        3.01562465       2.72433404       0.10193545       0.00000000 NULL
P        2.22533550       5.80403757       8.19848845       0.00000000 NULL
P        1.79823940       5.80403757       1.17613193       0.00000000 NULL
P        0.21354805       5.80403757       5.86344212       0.00000000 NULL
P        3.81002684       5.80403757       3.51117826       0.00000000 NULL
12
Lattice="4.244166406738866 0.0 0.0 0.0 7.162136408834526 0.0 0.0 0.0 9.497119513352162" Properties=species:S:1:pos:R:3:initial_magmoms:R:1:castep_labels:S:1 n_minim_iter=3 pbc="T T T"
P        3.10900729       2.11048381       6.80696373       0.00000000 NULL
P        1.13515912       2.11048381       2.69015579       0.00000000 NULL
P        0.98692408       2.11048381       7.43871554       0.00000000 NULL
P        3.25724232       2.11048381       2.05840397       0.00000000 NULL
P        3.18472655       2.67817676       4.85062934       0.00000000 NULL
P        1.05943986       2.67817676       4.64649017       0.00000000 NULL
P        1.06264335       2.67817676       9.39504993       0.00000000 NULL
P        3.18152306       2.67817676       0.10206959       0.00000000 NULL
P        2.34660372       5.70501594       8.30794856       0.00000000 NULL
P        1.89756269       5.70501594       1.18917095       0.00000000 NULL
P        0.22452052       5.70501594       5.93773071       0.00000000 NULL
P        4.01964589       5.70501594       3.55938881       0.00000000 NULL
12
Lattice="4.341159178067222 0.0 0.0 0.0 6.988029420960328 0.0 0.0 0.0 9.437345733234627" Properties=species:S:1:pos:R:3:initial_magmoms:R:1:castep_labels:S:1 n_minim_iter=4 pbc="T T T"
P        3.18065761       2.05820331       6.76911533       0.00000000 NULL
P        1.16050157       2.05820331       2.66823040       0.00000000 NULL
P        1.01007802       2.05820331       7.38690327       0.00000000 NULL
P        3.33108115       2.05820331       2.05044246       0.00000000 NULL
P        3.25718710       2.61337678       4.81823954       0.00000000 NULL
P        1.08397208       2.61337678       4.61910619       0.00000000 NULL
P        1.08660751       2.61337678       9.33777906       0.00000000 NULL
P        3.25455167       2.61337678       0.09956667       0.00000000 NULL
P        2.39905235       5.56700179       8.25991733       0.00000000 NULL
P        1.94210683       5.56700179       1.17742841       0.00000000 NULL
P        0.22847276       5.56700179       5.89610127       0.00000000 NULL
P        4.11268642       5.56700179       3.54124446       0.00000000 NULL
12
Lattice="4.444223086432153 0.0 0.0 0.0 6.672431854244105 0.0 0.0 0.0 9.40178485890373" Properties=species:S:1:pos:R:3:initial_magmoms:R:1:castep_labels:S:1 n_minim_iter=5 pbc="T T T"
P        3.25730359       1.96319846       6.75456914       0.00000000 NULL
P        1.18691950       1.96319846       2.64721572       0.00000000 NULL
P        1.03519205       1.96319846       7.34810815       0.00000000 NULL
P        3.40903104       1.96319846       2.05367671       0.00000000 NULL
P        3.33420007       2.49641144       4.79470289       0.00000000 NULL
P        1.11002301       2.49641144       4.60708197       0.00000000 NULL
P        1.11208853       2.49641144       9.30797440       0.00000000 NULL
P        3.33213456       2.49641144       0.09381046       0.00000000 NULL
P        2.45372119       5.31657102       8.23737562       0.00000000 NULL
P        1.99050189       5.31657102       1.16440924       0.00000000 NULL
P        0.23160965       5.31657102       5.86530166       0.00000000 NULL
P        4.21261344       5.31657102       3.53648319       0.00000000 NULL
12
Lattice="4.541198292104538 0.0 0.0 0.0 6.072705614692234 0.0 0.0 0.0 9.360122387195428" Properties=species:S:1:pos:R:3:initial_magmoms:R:1:castep_labels:S:1 n_minim_iter=6 pbc="T T T"
P        3.33054696       1.78275711       6.74843573       0.00000000 NULL
P        1.21065134       1.78275711       2.61168666       0.00000000 NULL
P        1.05994781       1.78275711       7.29174785       0.00000000 NULL
P        3.48125048       1.78275711       2.06837453       0.00000000 NULL
P        3.40726121       2.27549411       4.75996295       0.00000000 NULL
P        1.13393708       2.27549411       4.60015944       0.00000000 NULL
P        1.13666206       2.27549411       9.28022063       0.00000000 NULL
P        3.40453623       2.27549411       0.07990175       0.00000000 NULL
P        2.50286229       4.83923476       8.22117364       0.00000000 NULL
P        2.03833600       4.83923476       1.13894875       0.00000000 NULL
P        0.23226314       4.83923476       5.81900994       0.00000000 NULL
P        4.30893515       4.83923476       3.54111245       0.00000000 NULL
12
Lattice="4.581629842116384 0.0 0.0 0.0 5.166896181338915 0.0 0.0 0.0 9.491565879007387" Properties=species:S:1:pos:R:3:initial_magmoms:R:1:castep_labels:S:1 n_minim_iter=7 pbc="T T T"
P        3.36393190       1.50844135       6.89183291       0.00000000 NULL
P        1.21769794       1.50844135       2.59973297       0.00000000 NULL
P        1.07311698       1.50844135       7.34551591       0.00000000 NULL
P        3.50851286       1.50844135       2.14604997       0.00000000 NULL
P        3.44011973       1.95000724       4.79490183       0.00000000 NULL
P        1.14151011       1.95000724       4.69666405       0.00000000 NULL
P        1.14930481       1.95000724       9.44244699       0.00000000 NULL
P        3.43232503       1.95000724       0.04911889       0.00000000 NULL
P        2.52066090       4.11188154       8.38832179       0.00000000 NULL
P        2.06096894       4.11188154       1.10324409       0.00000000 NULL
P        0.22984598       4.11188154       5.84902703       0.00000000 NULL
P        4.35178386       4.11188154       3.64253885       0.00000000 NULL
12
Lattice="4.593275778634809 0.0 0.0 0.0 4.898808614358005 0.0 0.0 0.0 9.130628938553558" Properties=species:S:1:pos:R:3:initial_magmoms:R:1:castep_labels:S:1 n_minim_iter=8 pbc="T T T"
P        3.37416801       1.42832762       6.63637346       0.00000000 NULL
P        1.21910777       1.42832762       2.49425548       0.00000000 NULL
P        1.07753012       1.42832762       7.05956995       0.00000000 NULL
P        3.51574566       1.42832762       2.07105899       0.00000000 NULL
P        3.44611777       1.85272130       4.60963029       0.00000000 NULL
P        1.14715801       1.85272130       4.52099865       0.00000000 NULL
P        1.14947988       1.85272130       9.08631312       0.00000000 NULL
P        3.44379589       1.85272130       0.04431582       0.00000000 NULL
P        2.52771876       3.89649000       8.08114243       0.00000000 NULL
P        2.06555702       3.89649000       1.04948651       0.00000000 NULL
P        0.23108087       3.89649000       5.61480098       0.00000000 NULL
P        4.36219491       3.89649000       3.51582796       0.00000000 NULL
12
Lattice="4.621405837995835 0.0 0.0 0.0 4.881205789358957 0.0 0.0 0.0 9.466598772921486" Properties=species:S:1:pos:R:3:initial_magmoms:R:1:castep_labels:S:1 n_minim_iter=9 pbc="T T T"
P        3.39511089       1.42238168       6.88496393       0.00000000 NULL
P        1.22629495       1.42238168       2.58163484       0.00000000 NULL
P        1.08440797       1.42238168       7.31493423       0.00000000 NULL
P        3.53699787       1.42238168       2.15166455       0.00000000 NULL
P        3.46570120       1.84702071       4.77594041       0.00000000 NULL
P        1.15570464       1.84702071       4.69065836       0.00000000 NULL
P        1.15499828       1.84702071       9.42395775       0.00000000 NULL
P        3.46640756       1.84702071       0.04264102       0.00000000 NULL
P        2.54389159       3.88234557       8.37912952       0.00000000 NULL
P        2.07751425       3.88234557       1.08746925       0.00000000 NULL
P        0.23318867       3.88234557       5.82076864       0.00000000 NULL
P        4.38821717       3.88234557       3.64583013       0.00000000 NULL
12
Lattice="4.623612503781194 0.0 0.0 0.0 4.830575342008124 0.0 0.0 0.0 9.455242146687258" Properties=species:S:1:pos:R:3:initial_magmoms:R:1:castep_labels:S:1 n_minim_iter=10 pbc="T T T"
P        3.39712019       1.40721343       6.87846169       0.00000000 NULL
P        1.22649232       1.40721343       2.57678046       0.00000000 NULL
P        1.08531394       1.40721343       7.30440153       0.00000000 NULL
P        3.53829857       1.40721343       2.15084062       0.00000000 NULL
P        3.46634741       1.82864804       4.76933464       0.00000000 NULL
P        1.15726510       1.82864804       4.68590751       0.00000000 NULL
P        1.15454116       1.82864804       9.41352858       0.00000000 NULL
P        3.46907135       1.82864804       0.04171356       0.00000000 NULL
P        2.54540816       3.84170479       8.37123902       0.00000000 NULL
P        2.07820435       3.84170479       1.08400313       0.00000000 NULL
P        0.23360190       3.84170479       5.81162420       0.00000000 NULL
P        4.39001060       3.84170479       3.64361794       0.00000000 NULL
12
Lattice="4.629484498830815 0.0 0.0 0.0 4.773965884725762 0.0 0.0 0.0 9.470490991576368" Properties=species:S:1:pos:R:3:initial_magmoms:R:1:castep_labels:S:1 n_minim_iter=11 pbc="T T T"
P        3.40187567       1.39023384       6.89164577       0.00000000 NULL
P        1.22760883       1.39023384       2.57884522       0.00000000 NULL
P        1.08713342       1.39023384       7.31409071       0.00000000 NULL
P        3.54235108       1.39023384       2.15640028       0.00000000 NULL
P        3.46947870       1.80807732       4.77596182       0.00000000 NULL
P        1.16000580       1.80807732       4.69452917       0.00000000 NULL
P        1.15473645       1.80807732       9.42977466       0.00000000 NULL
P        3.47474805       1.80807732       0.04071633       0.00000000 NULL
P        2.54904376       3.79631318       8.38698487       0.00000000 NULL
P        2.08044074       3.79631318       1.08350612       0.00000000 NULL
P        0.23430151       3.79631318       5.81875161       0.00000000 NULL
P        4.39518299       3.79631318       3.65173938       0.00000000 NULL
12
Lattice="4.6822078209797535 0.0 0.0 0.0 4.407990110668854 0.0 0.0 0.0 9.633195825907318" Properties=species:S:1:pos:R:3:initial_magmoms:R:1:castep_labels:S:1 n_minim_iter=12 pbc="T T T"
P        3.44379486       1.28042646       7.02481200       0.00000000 NULL
P        1.23841296       1.28042646       2.60838382       0.00000000 NULL
P        1.10269095       1.28042646       7.42498174       0.00000000 NULL
P        3.57951687       1.28042646       2.20821409       0.00000000 NULL
P        3.49904637       1.67491668       4.85094378       0.00000000 NULL
P        1.18316145       1.67491668       4.78225205       0.00000000 NULL
P        1.15794246       1.67491668       9.59884996       0.00000000 NULL
P        3.52426536       1.67491668       0.03434586       0.00000000 NULL
P        2.58134442       3.50306810       8.54658289       0.00000000 NULL
P        2.10086340       3.50306810       1.08661293       0.00000000 NULL
P        0.24024051       3.50306810       5.90321085       0.00000000 NULL
P        4.44196731       3.50306810       3.72998498       0.00000000 NULL
12
Lattice="4.750371584926776 0.0 0.0 0.0 4.5405877472508624 0.0 0.0 0.0 9.855784968015913" Properties=species:S:1:pos:R:3:initial_magmoms:R:1:castep_labels:S:1 n_minim_iter=13 pbc="T T T"
P        3.49481817       1.31716803       7.19179332       0.00000000 NULL
P        1.25555342       1.31716803       2.66399165       0.00000000 NULL
P        1.11963237       1.31716803       7.59188413       0.00000000 NULL
P        3.63073921       1.31716803       2.26390084       0.00000000 NULL
P        3.54155387       1.72670999       4.96370561       0.00000000 NULL
P        1.20881772       1.72670999       4.89207936       0.00000000 NULL
P        1.16636808       1.72670999       9.81997185       0.00000000 NULL
P        3.58400351       1.72670999       0.03581312       0.00000000 NULL
P        2.62259513       3.60880999       8.74651474       0.00000000 NULL
P        2.12777645       3.60880999       1.10927023       0.00000000 NULL
P        0.24740934       3.60880999       6.03716271       0.00000000 NULL
P        4.50296224       3.60880999       3.81862226       0.00000000 NULL
12
Lattice="4.692983405758807 0.0 0.0 0.0 4.485995290775962 0.0 0.0 0.0 9.63651202900913" Properties=species:S:1:pos:R:3:initial_magmoms:R:1:castep_labels:S:1 n_minim_iter=14 pbc="T T T"
P        3.45298442       1.30107922       7.03169892       0.00000000 NULL
P        1.23999898       1.30107922       2.60481311       0.00000000 NULL
P        1.10649272       1.30107922       7.42306912       0.00000000 NULL
P        3.58649069       1.30107922       2.21344291       0.00000000 NULL
P        3.49777836       1.70664859       4.85453563       0.00000000 NULL
P        1.19520504       1.70664859       4.78197639       0.00000000 NULL
P        1.15128666       1.70664859       9.60023241       0.00000000 NULL
P        3.54169675       1.70664859       0.03627962       0.00000000 NULL
P        2.59139907       3.56497351       8.55477237       0.00000000 NULL
P        2.10158433       3.56497351       1.08173966       0.00000000 NULL
P        0.24490737       3.56497351       5.89999568       0.00000000 NULL
P        4.44807604       3.56497351       3.73651635       0.00000000 NULL
