8
Lattice="2.4762555878802366 -0.2930805054348065 -0.32554223636412716 -1.6006441957748156 7.3358956191850355 0.6453956306695032 -1.6006441957748239 -0.12592519994182594 7.363154412321189" Properties=species:S:1:pos:R:3:initial_magmoms:R:1:castep_labels:S:1:forces:R:3 n_minim_iter=1 energy=-44.563437991077 stress="0.0011800585324412008 -9.194954312338128e-05 -0.00010203484005550879 -9.194954312338128e-05 -0.0005275083043796381 0.0008600079376107169 -0.00010203484005550879 0.0008600079376107169 -0.00034652449927731867" free_energy=-44.563437991077 pbc="T T T"
P        0.22814627       1.52374961       0.36332021       0.00000000 NULL       0.00127500      -0.00194400       0.01145500
P       -0.95309981       6.71506249       6.12962528       0.00000000 NULL      -0.00127500      -0.01159400       0.00073400
P       -1.39222498       3.09148582       6.05164316       0.00000000 NULL       0.00163600       0.01295800       0.00077900
P        0.66727144       1.22205918       3.97515797       0.00000000 NULL      -0.00163600       0.00057900      -0.01296900
P        0.64754438       3.11007728       2.12535026       0.00000000 NULL      -0.00127600      -0.01159600       0.00073400
P       -1.37249793       5.12873482       4.36759523       0.00000000 NULL       0.00127500      -0.00194200       0.01145400
P        0.66727144       4.95296958       0.61627858       0.00000000 NULL      -0.00163500       0.00058000      -0.01296600
P       -1.39222498       6.82239623       2.69276377       0.00000000 NULL       0.00163600       0.01295800       0.00078100
8
Lattice="2.4743786188045105 -0.29285835427719104 -0.32529547964261224 -1.5989896169619715 7.337891452594233 0.6414604334480599 -1.5989896169619806 -0.1300476695519228 7.364727426142729" Properties=species:S:1:pos:R:3:initial_magmoms:R:1:castep_labels:S:1:forces:R:3 n_minim_iter=2 energy=-44.563530850878 stress="-0.0003744100120252195 2.9631270158173554e-05 3.294114608009719e-05 2.9631270158173554e-05 0.00020403020861572163 -0.00030293245342558284 3.294114608009719e-05 -0.00030293245342558284 0.0001402756938339067" free_energy=-44.563530850878 pbc="T T T"
P        0.22809463       1.52406275       0.36264574       0.00000000 NULL       0.00095000      -0.00238200       0.00936500
P       -0.95161605       6.71386154       6.12726903       0.00000000 NULL      -0.00095000      -0.00956300       0.00138900
P       -1.39061524       3.08921930       6.05120444       0.00000000 NULL       0.00194700       0.01334100       0.00280700
P        0.66709383       1.22035379       3.97534253       0.00000000 NULL      -0.00194700      -0.00139500      -0.01356100
P        0.64737357       3.10993965       2.12417510       0.00000000 NULL      -0.00094900      -0.00956000       0.00139200
P       -1.37089498       5.12798464       4.36573967       0.00000000 NULL       0.00094900      -0.00238500       0.00936200
P        0.66709383       4.95432335       0.61370903       0.00000000 NULL      -0.00194700      -0.00139600      -0.01356100
P       -1.39061524       6.82318887       2.68957094       0.00000000 NULL       0.00194700       0.01334000       0.00280800
8
Lattice="2.472863333227904 -0.292679010648511 -0.32509627183153117 -1.5977216190608412 7.333949930181359 0.642767247641596 -1.59772161906085 -0.12833551178384353 7.360944321855926" Properties=species:S:1:pos:R:3:initial_magmoms:R:1:castep_labels:S:1:forces:R:3 n_minim_iter=3 energy=-44.563671237735 stress="-0.0013419276779891994 0.00011272192495109274 0.0001252728955864035 0.00011272192495109274 -0.0005895798721706665 0.00015353231374641132 0.0001252728955864035 0.00015353231374641132 -0.0005572946709766909" free_energy=-44.563671237735 pbc="T T T"
P        0.22827336       1.52278096       0.36515938       0.00000000 NULL      -0.00006400      -0.00542300       0.00438900
P       -0.95077411       6.70917753       6.12600362       0.00000000 NULL       0.00006300      -0.00493200       0.00493400
P       -1.38896572       3.09199111       6.04936963       0.00000000 NULL       0.00142800       0.01057800       0.00133700
P        0.66646497       1.22041859       3.97050089       0.00000000 NULL      -0.00142800      -0.00022400      -0.01066000
P        0.64694751       3.10637032       2.12414783       0.00000000 NULL       0.00006500      -0.00493100       0.00493600
P       -1.36944826       5.12558816       4.36701517       0.00000000 NULL      -0.00006500      -0.00542400       0.00438700
P        0.66646497       4.95156131       0.61141235       0.00000000 NULL      -0.00142800      -0.00022300      -0.01066000
P       -1.38896572       6.82313383       2.69028110       0.00000000 NULL       0.00142800       0.01057900       0.00133800
8
Lattice="2.4740585375226614 -0.2928204706337079 -0.3252533999894368 -1.598929613425253 7.3350345284754015 0.6419779949638141 -1.598929613425262 -0.1292339441978028 7.361940360231877" Properties=species:S:1:pos:R:3:initial_magmoms:R:1:castep_labels:S:1:forces:R:3 n_minim_iter=4 energy=-44.563839584894 stress="-6.475961416195734e-05 -7.099105084745628e-06 -7.887894538606253e-06 -7.099105084745628e-06 8.921208723163672e-05 -0.00019167583728813193 -7.887894538606253e-06 -0.00019167583728813193 4.874718824858664e-05" free_energy=-44.563839584894 pbc="T T T"
P        0.22857301       1.52222494       0.36793913       0.00000000 NULL      -0.00069200      -0.00301400      -0.00255900
P       -0.95229451       6.70639956       6.12631531       0.00000000 NULL       0.00069200       0.00223200       0.00326400
P       -1.38961551       3.09571447       6.05045060       0.00000000 NULL       0.00018300       0.00108800       0.00042200
P        0.66589401       1.21977796       3.96673449       0.00000000 NULL      -0.00018300      -0.00030800      -0.00112800
P        0.64663510       3.10349926       2.12435613       0.00000000 NULL       0.00069300       0.00223000       0.00326500
P       -1.37035660       5.12512523       4.36989831       0.00000000 NULL      -0.00069300      -0.00301200      -0.00256100
P        0.66589401       4.95191219       0.60675331       0.00000000 NULL      -0.00018300      -0.00030600      -0.00112700
P       -1.38961551       6.82784871       2.69046941       0.00000000 NULL       0.00018300       0.00108900       0.00042400
