16
Lattice="9.364289037745635 -0.5593095580574111 0.7325575731197046 -0.8109400271454009 9.508547354315601 -0.5282358972208385 -3.283013958733741 -5.053482770484714 3.627113789748641" Properties=species:S:1:pos:R:3:initial_magmoms:R:1:castep_labels:S:1:forces:R:3 n_minim_iter=1 energy=-86.615164509519 stress="0.0006640334590387149 0.0013566767047092432 0.0004900087503642463 0.0013566767047092432 -0.0017049751735196109 -0.00047727599439861877 0.0004900087503642463 -0.00047727599439861877 -0.0021616732909175455" free_energy=-86.615164509519 pbc="T T T"
P        5.06220201       1.63294157       2.61800242       0.00000000 NULL       0.03698500       0.04537200       0.09569600
P        0.70366368      -5.44443308       3.60417672       0.00000000 NULL      -0.02459100      -0.05271800       0.02555100
P       -1.12278307      -1.53232594       4.14298414       0.00000000 NULL      -0.10022900       0.11859300       0.02717400
P        6.57897639       4.66520609       2.08783391       0.00000000 NULL      -0.15978500       0.09332000      -0.01548600
P        1.38593283       1.69607451       1.45056191       0.00000000 NULL       0.05826000       0.05366100       0.12864600
P       -1.09788124      -2.09294776       1.97184947       0.00000000 NULL       0.00702800      -0.00424600      -0.11118800
P        4.04090470       6.19792847       0.78940973       0.00000000 NULL      -0.00731900      -0.17589600       0.02736900
P        0.80722952      -1.81812963       3.22710296       0.00000000 NULL       0.06462700      -0.02327800      -0.06450900
P        4.04777746      -1.41878922       1.95377331       0.00000000 NULL      -0.02051000       0.13271600      -0.03827500
P        5.57370825      -0.42149567       3.25846578       0.00000000 NULL      -0.01749700      -0.05886800      -0.09205400
P        2.77796794       1.58469021       3.17220768       0.00000000 NULL       0.08774500      -0.10176600       0.04764900
P        1.84163027      -0.03507572       0.21083969       0.00000000 NULL       0.00243500      -0.06007800      -0.00245400
P        5.48651415      -3.93566848       3.30939396       0.00000000 NULL       0.07749300      -0.08658000       0.02663600
P        5.13155532       1.44461320       0.42436004       0.00000000 NULL       0.03086500       0.02325100      -0.10669500
P        3.04468936       3.90239179       3.23963926       0.00000000 NULL       0.06849400       0.08779600       0.02066100
P        7.59410679      -0.45289167       2.31241986       0.00000000 NULL      -0.10400400       0.00872000       0.03127700
16
Lattice="9.355751617383246 -0.5789131667096488 0.7277307171430866 -0.8287700139298364 9.533705784170143 -0.522628538106088 -3.272336743995411 -5.05707191255293 3.6374821850771686" Properties=species:S:1:pos:R:3:initial_magmoms:R:1:castep_labels:S:1:forces:R:3 n_minim_iter=2 energy=-86.61861357631 stress="0.001674648885829172 0.0004096533187697279 0.0005289767383735569 0.0004096533187697279 0.0010902089116491093 -0.0003888003815083992 0.0005289767383735569 -0.0003888003815083992 0.0016269628970547517" free_energy=-86.61861357631 pbc="T T T"
P        5.05228213       1.62898582       2.62427889       0.00000000 NULL       0.05517400      -0.01183200       0.02409900
P        0.71114146      -5.45723034       3.61143274       0.00000000 NULL      -0.02239200      -0.04649100       0.06836400
P       -1.12208052      -1.53046830       4.15604398       0.00000000 NULL      -0.06994900       0.07242300      -0.00936100
P        6.56100105       4.66569201       2.09295263       0.00000000 NULL      -0.16298000       0.09822600       0.06246600
P        1.38041025       1.69883901       1.45597041       0.00000000 NULL       0.08879100      -0.00586600       0.07796500
P       -1.09402113      -2.09464621       1.97694008       0.00000000 NULL       0.00166500       0.01970200      -0.05279400
P        4.02397826       6.20518734       0.79350098       0.00000000 NULL      -0.04221300      -0.09346300       0.09466000
P        0.80804041      -1.82214688       3.23522532       0.00000000 NULL       0.04536800      -0.04886100      -0.04281200
P        4.04516126      -1.42845874       1.95589885       0.00000000 NULL       0.01476300       0.04649800      -0.09975300
P        5.56668487      -0.43166701       3.26410198       0.00000000 NULL      -0.03120400      -0.01748600      -0.13021200
P        2.77020388       1.58489232       3.18164556       0.00000000 NULL       0.09233600      -0.06518400       0.03556800
P        1.83976498      -0.03897157       0.21014456       0.00000000 NULL      -0.03730700       0.03061800      -0.00065600
P        5.48699636      -3.95459422       3.31332264       0.00000000 NULL       0.08605000      -0.09340400      -0.03103200
P        5.12350229       1.43839628       0.42253236       0.00000000 NULL       0.01407700       0.05208600      -0.04298900
P        3.03189516       3.90880732       3.25061020       0.00000000 NULL       0.06685000       0.07698700       0.06118300
P        7.58546388      -0.46753501       2.31412627       0.00000000 NULL      -0.09902500      -0.01395300      -0.01469700
16
Lattice="9.32629328166306 -0.5964670907073578 0.7149071505278651 -0.8441148898787788 9.535213603909606 -0.5113151804543109 -3.256725253076548 -5.047055563175232 3.6351885376577395" Properties=species:S:1:pos:R:3:initial_magmoms:R:1:castep_labels:S:1:forces:R:3 n_minim_iter=3 energy=-86.620841113223 stress="-0.0008208611046391671 -0.00024497422989477657 -0.0001243059996343847 -0.00024497422989477657 0.00011392125629324299 0.00016354416160001584 -0.0001243059996343847 0.00016354416160001584 4.9094340525936314e-05" free_energy=-86.620841113223 pbc="T T T"
P        5.03009363       1.62204094       2.61912076       0.00000000 NULL       0.09064600      -0.01329700       0.00145600
P        0.71476171      -5.45542950       3.60402053       0.00000000 NULL      -0.00936900      -0.06536400       0.03397200
P       -1.12147937      -1.52323694       4.15460924       0.00000000 NULL      -0.06203800       0.09064400      -0.01059800
P        6.52715234       4.65604662       2.08908357       0.00000000 NULL      -0.15260300       0.08051400       0.04392000
P        1.37143952       1.69789520       1.45630786       0.00000000 NULL       0.04541900      -0.06157900       0.03350300
P       -1.08895457      -2.09043292       1.97491785       0.00000000 NULL      -0.00471500       0.03092700      -0.05766300
P        3.99785943       6.19746535       0.79519305       0.00000000 NULL      -0.10038200      -0.04191300       0.07726000
P        0.80531668      -1.82069096       3.23085194       0.00000000 NULL       0.07516000      -0.02956200      -0.03837900
P        4.03263393      -1.43373986       1.94801084       0.00000000 NULL      -0.00660200      -0.04252600      -0.11512300
P        5.54551328      -0.43938372       3.25460192       0.00000000 NULL      -0.03323300      -0.00917900      -0.07875200
P        2.75495523       1.58229258       3.17909359       0.00000000 NULL       0.11757800      -0.06617600       0.06563200
P        1.83357424      -0.04238983       0.20767103       0.00000000 NULL      -0.09290500       0.04991700       0.03901800
P        5.47373836      -3.96270973       3.30100996       0.00000000 NULL       0.08773300      -0.08638100      -0.00444800
P        5.10406647       1.42920379       0.41682925       0.00000000 NULL       0.04659400       0.09448700      -0.02819800
P        3.01100127       3.90712866       3.25020084       0.00000000 NULL       0.04734800       0.07436900       0.04819500
P        7.55859383      -0.47997702       2.30322306       0.00000000 NULL      -0.04863200      -0.00488100      -0.00979600
16
Lattice="9.350986439023732 -0.6141789356524977 0.6990554325234289 -0.8642458738032541 9.529607334683288 -0.5040644568202973 -3.2612395781885284 -5.034736501252898 3.635333443997753" Properties=species:S:1:pos:R:3:initial_magmoms:R:1:castep_labels:S:1:forces:R:3 n_minim_iter=4 energy=-86.626206543317 stress="0.0015347200197957105 -0.0005761293929648885 -0.0012198268337411168 -0.0005761293929648885 0.00018804783894553007 0.00033619450995099967 -0.0012198268337411168 0.00033619450995099967 -0.0009290296059133609" free_energy=-86.626206543317 pbc="T T T"
P        5.04044929       1.61206386       2.61146815       0.00000000 NULL       0.04295800       0.00386400      -0.02611700
P        0.72081208      -5.45422883       3.59980881       0.00000000 NULL      -0.10104800       0.01980600      -0.05721100
P       -1.13213339      -1.51208508       4.15280218       0.00000000 NULL       0.09041800       0.01505900      -0.07531800
P        6.52286968       4.64596057       2.08235544       0.00000000 NULL      -0.08178200       0.03020300       0.01332200
P        1.37262281       1.69272727       1.45742740       0.00000000 NULL       0.06101800      -0.03733000       0.01864700
P       -1.09098825      -2.08419198       1.97052281       0.00000000 NULL       0.00165500       0.03452200      -0.01303800
P        3.99059525       6.18136714       0.79618903       0.00000000 NULL      -0.06302400       0.00229400       0.00892400
P        0.80983002      -1.82099246       3.22402320       0.00000000 NULL      -0.08242700       0.02075100       0.02963400
P        4.04277282      -1.43965050       1.93356608       0.00000000 NULL      -0.00327700      -0.12739300      -0.05080700
P        5.55410307      -0.44923172       3.23816854       0.00000000 NULL       0.00102000      -0.01638100      -0.03898200
P        2.76036463       1.57332185       3.17698298       0.00000000 NULL       0.11010100      -0.03434900       0.04313600
P        1.83415830      -0.04404938       0.20609052       0.00000000 NULL       0.00799500       0.02573200       0.04308900
P        5.49574486      -3.97393548       3.28753696       0.00000000 NULL       0.02012500      -0.04028800       0.04761700
P        5.11627822       1.42267527       0.40671043       0.00000000 NULL       0.02165800       0.05916200       0.00085800
P        3.00917844       3.90464878       3.24841672       0.00000000 NULL       0.01709800       0.01831900       0.01279900
P        7.57202773      -0.49356184       2.28908252       0.00000000 NULL      -0.04248700       0.02603000       0.04344700
16
Lattice="9.334574431746923 -0.6127510933554797 0.7147318207671944 -0.8622579387278945 9.522814577604528 -0.5092651728053651 -3.2502127706341826 -5.032751736274197 3.637213434700457" Properties=species:S:1:pos:R:3:initial_magmoms:R:1:castep_labels:S:1:forces:R:3 n_minim_iter=5 energy=-86.628759921794 stress="-8.499131693831945e-05 -9.65556073191003e-05 -6.7769228575543675e-06 -9.65556073191003e-05 -0.00044289366950264715 -9.957102712269101e-05 -6.7769228575543675e-06 -9.957102712269101e-05 0.00020371181415391638" free_energy=-86.628759921794 pbc="T T T"
P        5.03753707       1.61057330       2.62287557       0.00000000 NULL       0.04764500       0.01721300      -0.06141500
P        0.72336177      -5.45289383       3.60865674       0.00000000 NULL      -0.06033100       0.03763400      -0.06357100
P       -1.12518124      -1.50997741       4.15699694       0.00000000 NULL       0.07495600      -0.01184000      -0.07020800
P        6.50981815       4.64531433       2.09508979       0.00000000 NULL       0.03382700      -0.04364100       0.01794400
P        1.37435278       1.69005125       1.46271026       0.00000000 NULL       0.06341300      -0.00005900       0.05656200
P       -1.08623306      -2.08265431       1.97056388       0.00000000 NULL       0.00696600       0.03980300       0.01123400
P        3.98275139       6.17531035       0.80352178       0.00000000 NULL      -0.03250600      -0.02959400       0.01659700
P        0.81436918      -1.82141181       3.22955615       0.00000000 NULL      -0.07589000       0.03137600       0.01673000
P        4.03791699      -1.43949919       1.94005894       0.00000000 NULL      -0.03028200      -0.09426000      -0.02093700
P        5.54787092      -0.44984230       3.24892145       0.00000000 NULL      -0.04395200      -0.03411200      -0.02072100
P        2.76382596       1.56935120       3.18711785       0.00000000 NULL       0.08475200      -0.02072600       0.00466800
P        1.82926503      -0.04285679       0.21019228       0.00000000 NULL      -0.02011300       0.01364100       0.00281900
P        5.49249656      -3.97407788       3.30223400       0.00000000 NULL      -0.08848200       0.04104400       0.05665500
P        5.10866899       1.42456743       0.41361089       0.00000000 NULL       0.02892600       0.02541000       0.02781000
P        3.01053999       3.90332236       3.25783336       0.00000000 NULL       0.00355200      -0.00359300       0.01888300
P        7.55935395      -0.49293423       2.30440748       0.00000000 NULL       0.00751800       0.03170400       0.00695300
16
Lattice="9.32950767124048 -0.6110817379557748 0.7160607871603195 -0.8595426737671318 9.541903212723438 -0.5030814865686404 -3.2487871178100263 -5.041761110021667 3.629881922324621" Properties=species:S:1:pos:R:3:initial_magmoms:R:1:castep_labels:S:1:forces:R:3 n_minim_iter=6 energy=-86.629734506255 stress="-0.0002838425709587277 0.0003261890490910335 0.00012501997652560423 0.0003261890490910335 0.0010197019506826184 0.00021533634624725718 0.00012501997652560423 0.00021533634624725718 -0.0006590578434487183" free_energy=-86.629734506255 pbc="T T T"
P        5.03749994       1.61708950       2.62186503       0.00000000 NULL       0.04802000      -0.01601000      -0.04474400
P        0.72115698      -5.46166867       3.60136400       0.00000000 NULL      -0.02510600       0.07193500      -0.06768400
P       -1.12323305      -1.51005663       4.15053916       0.00000000 NULL       0.03782700      -0.04473200      -0.03759000
P        6.50670927       4.65817388       2.09845211       0.00000000 NULL       0.05144300      -0.02291600      -0.00106500
P        1.37618143       1.69440647       1.46438861       0.00000000 NULL       0.06870100       0.01629900       0.03365300
P       -1.08557045      -2.08504893       1.96663992       0.00000000 NULL      -0.00312800       0.03151800       0.00493700
P        3.98091312       6.18830012       0.80872850       0.00000000 NULL      -0.03565100       0.00313000      -0.00285800
P        0.81355174      -1.82274362       3.22550946       0.00000000 NULL      -0.04552400       0.02366900       0.00485700
P        4.03531326      -1.44194668       1.93687120       0.00000000 NULL      -0.01923700      -0.09517100      -0.00259500
P        5.54449502      -0.44810210       3.24561013       0.00000000 NULL      -0.06162500      -0.02264700      -0.01372600
P        2.76626220       1.57407447       3.18657843       0.00000000 NULL       0.07471900       0.00428600       0.01055700
P        1.82729811      -0.04173975       0.21080819       0.00000000 NULL      -0.02537800       0.03305400       0.03497300
P        5.48878490      -3.97908106       3.29908106       0.00000000 NULL      -0.09864800       0.03659200       0.07793900
P        5.10723300       1.43043194       0.41541613       0.00000000 NULL       0.00179700      -0.01297200      -0.00516700
P        3.01135230       3.91497287       3.25886309       0.00000000 NULL       0.00530800      -0.01628100      -0.00513900
P        7.55498267      -0.48997756       2.30403726       0.00000000 NULL       0.02648200       0.01024700       0.01365100
16
Lattice="9.329388772174905 -0.6455504562446611 0.7047544066515716 -0.8960228238673618 9.522259404420838 -0.4908706839801455 -3.2332898339466527 -5.012375713344575 3.6365467642994487" Properties=species:S:1:pos:R:3:initial_magmoms:R:1:castep_labels:S:1:forces:R:3 n_minim_iter=7 energy=-86.635908051798 stress="-0.0003341097319645289 3.225201355707068e-05 -0.0003165544452017689 3.225201355707068e-05 -1.20556659538954e-05 -0.00024008796604574678 -0.0003165544452017689 -0.00024008796604574678 -0.00013037519160449766" free_energy=-86.635908051798 pbc="T T T"
P        5.03930589       1.59750840       2.61637237       0.00000000 NULL      -0.00193700      -0.03221700      -0.03594400
P        0.72818027      -5.44336369       3.59468800       0.00000000 NULL      -0.01533700       0.04672700      -0.00753100
P       -1.11678976      -1.49393240       4.14998301       0.00000000 NULL      -0.03237300      -0.06039300       0.07746300
P        6.47933439       4.62485309       2.10574168       0.00000000 NULL      -0.03534100       0.02284900       0.05620700
P        1.38168794       1.68530396       1.48018161       0.00000000 NULL       0.03869600       0.01312800      -0.02159500
P       -1.07937078      -2.06585001       1.96716402       0.00000000 NULL      -0.02794000      -0.01222300       0.00886700
P        3.94486682       6.15108298       0.82021137       0.00000000 NULL       0.05761200      -0.03353400      -0.03591400
P        0.80979599      -1.81503907       3.22938307       0.00000000 NULL       0.07829500       0.03037000      -0.00538300
P        4.03373900      -1.46680128       1.92488042       0.00000000 NULL      -0.07903500       0.00445200      -0.05126000
P        5.53180488      -0.47074737       3.23605125       0.00000000 NULL       0.00584300      -0.02806200       0.00826200
P        2.77589750       1.55620235       3.19769698       0.00000000 NULL       0.07045900       0.05742400      -0.02252100
P        1.81947718      -0.04345538       0.21267246       0.00000000 NULL       0.01622400       0.00979000       0.05056600
P        5.49116395      -3.98721283       3.30446655       0.00000000 NULL      -0.00304200       0.03448700      -0.01320700
P        5.10579508       1.41483174       0.41129326       0.00000000 NULL      -0.03649600      -0.02020900      -0.03868300
P        2.99572803       3.90236442       3.27305573       0.00000000 NULL      -0.04314600      -0.06491600       0.00993800
P        7.54935520      -0.51188036       2.30061751       0.00000000 NULL       0.00751800       0.03232800       0.02073700
16
Lattice="9.336522116126293 -0.6528134348064549 0.7137299999776254 -0.9060337352093337 9.516258286602886 -0.47612472426335894 -3.226768855307992 -5.000186262164821 3.625070963688149" Properties=species:S:1:pos:R:3:initial_magmoms:R:1:castep_labels:S:1:forces:R:3 n_minim_iter=8 energy=-86.636738630664 stress="-3.187739598929535e-05 -0.0002049039245120885 0.0003053829680105107 -0.0002049039245120885 -0.00035490788926483506 0.0006384178682144647 0.0003053829680105107 0.0006384178682144647 -0.00021894737771594965" free_energy=-86.636738630664 pbc="T T T"
P        5.04530729       1.59559713       2.62306605       0.00000000 NULL       0.00112500      -0.02425900      -0.04392900
P        0.73596852      -5.43349027       3.58567515       0.00000000 NULL      -0.01678500       0.05739100      -0.01490400
P       -1.11144253      -1.48569329       4.14644203       0.00000000 NULL      -0.01616200      -0.03268400       0.04662400
P        6.47991853       4.61970825       2.12204483       0.00000000 NULL      -0.04134800       0.03782300       0.05519000
P        1.38510611       1.68538368       1.48589278       0.00000000 NULL       0.03471800      -0.03404700       0.00631200
P       -1.07639078      -2.05948016       1.96247571       0.00000000 NULL      -0.01506600      -0.00469000       0.02157700
P        3.94199578       6.14307799       0.83505198       0.00000000 NULL       0.06007900      -0.01007500      -0.02692700
P        0.81567638      -1.80862775       3.22731084       0.00000000 NULL       0.07185100       0.03197200      -0.01874900
P        4.03791529      -1.46833600       1.92482686       0.00000000 NULL      -0.05296200      -0.01008100      -0.02236900
P        5.53791808      -0.47165324       3.24017119       0.00000000 NULL      -0.02037700      -0.06019000       0.00886200
P        2.78332733       1.55766930       3.20376106       0.00000000 NULL       0.05634700       0.06010900      -0.02433400
P        1.82016558      -0.04397244       0.21580711       0.00000000 NULL       0.01649000       0.00510900       0.07260200
P        5.50066379      -3.98396316       3.30505707       0.00000000 NULL       0.00904300       0.02681600      -0.02380300
P        5.10823455       1.41042762       0.41848078       0.00000000 NULL      -0.03961700      -0.00379000      -0.05162900
P        2.99735293       3.90200305       3.28383766       0.00000000 NULL      -0.04472300      -0.06288500       0.01703700
P        7.55652410      -0.51393333       2.30853990       0.00000000 NULL      -0.00261500       0.02348000      -0.00156100
16
Lattice="9.33396751305449 -0.6940777685993558 0.712300131217252 -0.9462365196973442 9.530233879985584 -0.4832910647505049 -3.2043578543081246 -4.994158162864215 3.6322206860625315" Properties=species:S:1:pos:R:3:initial_magmoms:R:1:castep_labels:S:1:forces:R:3 n_minim_iter=9 energy=-86.641044185836 stress="-0.0003369919513767896 -0.0009563259944402935 0.0004338162343029875 -0.0009563259944402935 0.00019212792807567032 -0.0008505330519738163 0.0004338162343029875 -0.0008505330519738163 -0.0010063518739521625" free_energy=-86.641044185836 pbc="T T T"
P        5.04989872       1.56762508       2.60457217       0.00000000 NULL       0.04041400      -0.08930700       0.06298900
P        0.74206448      -5.42848119       3.58150347       0.00000000 NULL       0.03249000      -0.13126500      -0.01925100
P       -1.10429447      -1.49353173       4.15321361       0.00000000 NULL       0.10599800       0.05811200      -0.01508200
P        6.44005432       4.60312001       2.13802110       0.00000000 NULL      -0.01365200       0.00980600       0.04906000
P        1.40396761       1.67764922       1.49842827       0.00000000 NULL      -0.08806300      -0.01904500       0.09076400
P       -1.07198038      -2.05132807       1.96519697       0.00000000 NULL       0.01245200       0.00133600       0.08146600
P        3.91529032       6.11460652       0.83149135       0.00000000 NULL       0.01232200       0.11744100      -0.07567600
P        0.83076757      -1.80717413       3.22741436       0.00000000 NULL      -0.02483900       0.02657100       0.04530100
P        4.02137299      -1.50506511       1.90500408       0.00000000 NULL       0.08525400      -0.05227600      -0.02935200
P        5.52398264      -0.51508391       3.22995729       0.00000000 NULL      -0.07716800       0.05795100      -0.04508500
P        2.81393323       1.54848426       3.20438243       0.00000000 NULL       0.01795700       0.07664300      -0.01673200
P        1.81459029      -0.04396998       0.23292783       0.00000000 NULL      -0.05847500      -0.04292000      -0.06052300
P        5.50450284      -4.00725436       3.31619251       0.00000000 NULL      -0.00557000       0.00991800      -0.00208500
P        5.09713331       1.39508304       0.40584776       0.00000000 NULL      -0.00307600       0.05007400      -0.08720100
P        2.97458330       3.88166626       3.29225152       0.00000000 NULL      -0.02569600      -0.02301200      -0.00595100
P        7.54940905      -0.53741150       2.31312402       0.00000000 NULL      -0.01034800      -0.05002800       0.02735900
16
Lattice="9.328514526886732 -0.682464249791507 0.6998032839351765 -0.9347221945323959 9.524194501283636 -0.46929944027437437 -3.2135668500881622 -4.990194812303424 3.635412876776528" Properties=species:S:1:pos:R:3:initial_magmoms:R:1:castep_labels:S:1:forces:R:3 n_minim_iter=10 energy=-86.642370881033 stress="-0.0004871587167651072 -8.053158417816573e-05 -0.00012989865464856995 -8.053158417816573e-05 -8.915221583066094e-05 -0.00017920370618622247 -0.00012989865464856995 -0.00017920370618622247 -0.00035068605524485026" free_energy=-86.642370881033 pbc="T T T"
P        5.04875421       1.57458484       2.60149146       0.00000000 NULL       0.02734300      -0.08092200       0.03376000
P        0.72837897      -5.41799662       3.57676720       0.00000000 NULL       0.05096800      -0.13378300      -0.00166300
P       -1.11044768      -1.48917657       4.15980729       0.00000000 NULL       0.11652800       0.06628500      -0.04471900
P        6.43669205       4.61277716       2.14305921       0.00000000 NULL      -0.00570300       0.01412400       0.05534300
P        1.40734192       1.68009697       1.50416898       0.00000000 NULL      -0.10327100      -0.01177700       0.06117700
P       -1.07723780      -2.04757699       1.96743521       0.00000000 NULL       0.01614300      -0.00206500       0.11439100
P        3.91992399       6.11509612       0.83590369       0.00000000 NULL       0.00275400       0.13715900      -0.07852600
P        0.82545120      -1.79903149       3.22865560       0.00000000 NULL      -0.05802100       0.04617800       0.05384500
P        4.01255685      -1.50022124       1.89668482       0.00000000 NULL       0.11049300      -0.03133700      -0.03002000
P        5.51421897      -0.50669798       3.22471862       0.00000000 NULL      -0.05959500       0.02862300      -0.06560700
P        2.81696066       1.55672978       3.20780164       0.00000000 NULL       0.02876400       0.07137500       0.00594400
P        1.81245470      -0.04053862       0.23344827       0.00000000 NULL      -0.05927000      -0.04595000      -0.05274600
P        5.49177856      -3.99335620       3.30954436       0.00000000 NULL      -0.01313300      -0.00231400      -0.00574200
P        5.09556841       1.40181100       0.39908009       0.00000000 NULL       0.00199700       0.01653600      -0.05299600
P        2.97229736       3.88614148       3.30072586       0.00000000 NULL      -0.02925200       0.00140800      -0.00277800
P        7.54172985      -0.52391567       2.30680691       0.00000000 NULL      -0.02674700      -0.07354100       0.01033800
16
Lattice="9.333479165920672 -0.7213927901773651 0.6906211826657157 -0.9751276591797646 9.536285849329362 -0.44772887971973785 -3.19688473793355 -4.972978661183768 3.6361421582091786" Properties=species:S:1:pos:R:3:initial_magmoms:R:1:castep_labels:S:1:forces:R:3 n_minim_iter=11 energy=-86.649496131425 stress="-0.0006250138327666546 -0.00034476170834617394 9.503423379091595e-05 -0.00034476170834617394 -0.0002465761443060144 -0.0001690904946481414 9.503423379091595e-05 -0.0001690904946481414 -0.0004543476729938914" free_energy=-86.649496131425 pbc="T T T"
P        5.05545773       1.54470810       2.59438436       0.00000000 NULL       0.04689900       0.00316500      -0.07442400
P        0.74082015      -5.41833687       3.56419957       0.00000000 NULL      -0.04285400      -0.08813900      -0.05485900
P       -1.09550422      -1.47736456       4.16677852       0.00000000 NULL       0.01717700       0.04987100       0.05000300
P        6.40050425       4.60545322       2.17819316       0.00000000 NULL       0.01187500       0.00648500      -0.04197600
P        1.41118375       1.67627922       1.52885873       0.00000000 NULL      -0.05311600      -0.03955500      -0.04608600
P       -1.07337781      -2.03547957       1.98316336       0.00000000 NULL       0.02312000       0.01440100       0.08325900
P        3.89977960       6.10656072       0.83902159       0.00000000 NULL       0.01389600       0.08628400       0.01237000
P        0.83271022      -1.78290412       3.23471576       0.00000000 NULL      -0.00372500       0.02370300       0.04640800
P        4.01327853      -1.52970885       1.87180268       0.00000000 NULL       0.07518000      -0.05351300      -0.01296200
P        5.49784624      -0.53609041       3.20783651       0.00000000 NULL       0.00039100       0.00161300       0.00518700
P        2.84485063       1.56726516       3.21574337       0.00000000 NULL      -0.02024300       0.02067200       0.00799800
P        1.80437733      -0.04674759       0.24211808       0.00000000 NULL      -0.01008600      -0.00516100       0.05499600
P        5.49878318      -4.00712394       3.30622216       0.00000000 NULL      -0.05921100      -0.00991900      -0.04265300
P        5.08674234       1.38712335       0.38084061       0.00000000 NULL       0.01610100       0.01499600       0.03927100
P        2.94548743       3.87524845       3.32337995       0.00000000 NULL       0.02407000       0.07007000      -0.01214500
P        7.53577577      -0.55023336       2.30843128       0.00000000 NULL      -0.03947400      -0.09497200      -0.01438700
16
Lattice="9.33087726609752 -0.7511941812504099 0.6711442466753477 -1.0060846450031253 9.548653403166306 -0.4124580447230431 -3.186344268702555 -4.954500011331876 3.636318406007786" Properties=species:S:1:pos:R:3:initial_magmoms:R:1:castep_labels:S:1:forces:R:3 n_minim_iter=12 energy=-86.654731972242 stress="-0.00045739625972573164 -0.0004885089300199329 4.1822076092798844e-05 -0.0004885089300199329 -0.0003179585652618084 0.00010780186354162939 4.1822076092798844e-05 0.00010780186354162939 -0.00030457180801356156" free_energy=-86.654731972242 pbc="T T T"
P        5.05697771       1.52974184       2.57778527       0.00000000 NULL       0.02555500       0.02420300      -0.01486100
P        0.73915937      -5.41872780       3.54273602       0.00000000 NULL      -0.01251600       0.00783100      -0.00351100
P       -1.09223120      -1.45804145       4.18553408       0.00000000 NULL       0.02699100       0.03933300      -0.00337200
P        6.36624533       4.60689279       2.20181352       0.00000000 NULL       0.02379400      -0.01677900       0.05712800
P        1.40921153       1.67387228       1.54162434       0.00000000 NULL      -0.00990300      -0.02221300       0.02094000
P       -1.07027537      -2.02202403       2.00245770       0.00000000 NULL       0.00771400       0.00752500       0.04973700
P        3.88349570       6.10849546       0.85348317       0.00000000 NULL      -0.00890900       0.03685500      -0.04415400