44
Lattice="9.952194987271403 5.351348340991518e-07 5.048590640905994e-17 -4.976097881593967 7.215071633523471 -2.169716831562732 2.532838313064327e-07 -4.710457837666966 15.777764878513622" Properties=species:S:1:pos:R:3:initial_magmoms:R:1:castep_labels:S:1:forces:R:3 n_minim_iter=1 energy=-232.404522627447 stress="0.00015614512607817376 9.697250408531473e-09 -0.0 9.697250408531473e-09 2.154729040775693e-05 -9.803920163025317e-06 -0.0 -9.803920163025317e-06 -0.00015034617033387194" free_energy=-232.404522627447 pbc="T T T"
P       -1.93462710       0.46372045      12.78694259       0.00000000 NULL      -0.00690200       0.00310000       0.00650200
P        3.04147031       2.04089368       0.82110544       0.00000000 NULL      -0.00690000      -0.00310200      -0.00650200
P        6.91072447       2.04089388       0.82110544       0.00000000 NULL       0.00690200      -0.00310000      -0.00650200
P        1.93462706       0.46372066      12.78694259       0.00000000 NULL       0.00690000       0.00310200       0.00650200
P        3.32430921      -0.44663358      14.33306140       0.00000000 NULL      -0.00221500       0.00623600       0.00332500
P       -1.65178846       2.95124774      -0.72501337       0.00000000 NULL      -0.00221200      -0.00624000      -0.00332300
P        1.65178815       2.95124792      -0.72501337       0.00000000 NULL       0.00221500      -0.00623600      -0.00332500
P        6.62788583      -0.44663341      14.33306140       0.00000000 NULL       0.00221200       0.00624000       0.00332300
P        1.09058676       4.54002702       0.75870464       0.00000000 NULL       0.00028900       0.00488800       0.00534600
P        6.06668461      -2.03541257      12.84934339       0.00000000 NULL       0.00028900      -0.00488800      -0.00534700
P        3.88551061      -2.03541268      12.84934339       0.00000000 NULL      -0.00028900      -0.00488800      -0.00534600
P       -1.09058724       4.54002690       0.75870464       0.00000000 NULL      -0.00028900       0.00488800       0.00534700
P        3.87907922       0.91183528      10.43336187       0.00000000 NULL       0.01107700       0.00256800      -0.00401600
P       -1.09701831       1.59277893       3.17468616       0.00000000 NULL       0.01107600      -0.00256900       0.00401500
P        1.09701815       1.59277905       3.17468616       0.00000000 NULL      -0.01107700      -0.00256800       0.00401600
P        6.07311568       0.91183540      10.43336187       0.00000000 NULL      -0.01107600       0.00256900      -0.00401500
P       -1.12520829       2.86724997       8.38177688       0.00000000 NULL       0.00792100       0.00235500       0.00212700
P        3.85088938      -0.36263575       5.22627115       0.00000000 NULL       0.00792100      -0.00235500      -0.00212800
P        6.10130565      -0.36263563       5.22627115       0.00000000 NULL      -0.00792100      -0.00235500      -0.00212700
P        1.12520799       2.86725009       8.38177688       0.00000000 NULL      -0.00792100       0.00235500       0.00212800
P        3.81050230       3.16671413       7.75938173       0.00000000 NULL      -0.00199100      -0.00672000      -0.01124600
P        8.78660000      -0.66209938       5.84866631       0.00000000 NULL      -0.00199200       0.00672100       0.01124600
P        1.16559507      -0.66209979       5.84866631       0.00000000 NULL       0.00199100       0.00672000       0.01124600
P       -3.81050263       3.16671372       7.75938173       0.00000000 NULL       0.00199200      -0.00672100      -0.01124600
P       -3.84701527       5.16472344       6.81516140       0.00000000 NULL       0.00010700      -0.00094700       0.00204900
P        1.12908264      -2.66010952       6.79288663       0.00000000 NULL       0.00010700       0.00094600      -0.00204900
P        8.82311264      -2.66010910       6.79288663       0.00000000 NULL      -0.00010700       0.00094700      -0.00204900
P        3.84701473       5.16472385       6.81516140       0.00000000 NULL      -0.00010700      -0.00094600       0.00204900
P       -2.22828307       2.28645650       6.44452399       0.00000000 NULL      -0.00799200      -0.00253100      -0.00430200
P        2.74781454       0.21815760       7.16352404       0.00000000 NULL      -0.00799100       0.00252800       0.00430300
P        7.20438043       0.21815784       7.16352404       0.00000000 NULL       0.00799200       0.00253100       0.00430200
P        2.22828283       2.28645673       6.44452399       0.00000000 NULL       0.00799100      -0.00252800      -0.00430300
P        1.68473166       0.40651042       1.41696945       0.00000000 NULL       0.00020200       0.00230700       0.00293100
P       -3.29136593       2.09810356      12.19107858       0.00000000 NULL       0.00020200      -0.00230900      -0.00293200
P        3.29136571       2.09810391      12.19107858       0.00000000 NULL      -0.00020200      -0.00230700      -0.00293100
P        8.26746329       0.40651078       1.41696945       0.00000000 NULL      -0.00020200       0.00230900       0.00293200
P        7.07853710      -0.92345632      11.22332037       0.00000000 NULL      -0.00911700       0.00888800      -0.00480100
P        2.10243937       3.42807088       2.38472767       0.00000000 NULL      -0.00911700      -0.00888700       0.00480200
P       -2.10243974       3.42807066       2.38472767       0.00000000 NULL       0.00911700      -0.00888900       0.00480100
P        2.87365799      -0.92345655      11.22332037       0.00000000 NULL       0.00911700       0.00888700      -0.00480200
P       -1.09957541       0.84118970       9.23736584       0.00000000 NULL       0.00072800       0.00258400       0.00742300
P        3.87652204       1.66342452       4.37068219       0.00000000 NULL       0.00072800      -0.00258400      -0.00742300
P        6.07567278       1.66342464       4.37068219       0.00000000 NULL      -0.00072800      -0.00258400      -0.00742300
P        1.09957533       0.84118981       9.23736584       0.00000000 NULL      -0.00072800       0.00258400       0.00742300
44
Lattice="9.948780760900748 5.349512493779909e-07 1.389725917568484e-16 -4.974390768387757 7.214683265631346 -2.1702783174729787 2.5325355923291115e-07 -4.709894849127782 15.78287688404776" Properties=species:S:1:pos:R:3:initial_magmoms:R:1:castep_labels:S:1:forces:R:3 n_minim_iter=2 energy=-232.404583126417 stress="-1.8629538449088692e-05 9.697833653872301e-09 -0.0 9.697833653872301e-09 4.0730901346263667e-07 2.5582885178915128e-05 -0.0 2.5582885178915128e-05 -1.8037970596202477e-05" free_energy=-232.404583126417 pbc="T T T"
P       -1.93397810       0.46398062      12.79119168       0.00000000 NULL      -0.00465200       0.00146100       0.00614800
P        3.04041219       2.04080813       0.82140688       0.00000000 NULL      -0.00464900      -0.00146400      -0.00614800
P        6.90836836       2.04080834       0.82140688       0.00000000 NULL       0.00465200      -0.00146100      -0.00614800
P        1.93397806       0.46398082      12.79119168       0.00000000 NULL       0.00464900       0.00146400       0.00614800
P        3.32316405      -0.44629031      14.33779499       0.00000000 NULL      -0.00007200       0.00616400      -0.00090300
P       -1.65122651       2.95107909      -0.72519643       0.00000000 NULL      -0.00007000      -0.00616700       0.00090500
P        1.65122620       2.95107927      -0.72519643       0.00000000 NULL       0.00007200      -0.00616400       0.00090300
P        6.62561676      -0.44629014      14.33779499       0.00000000 NULL       0.00007000       0.00616700      -0.00090500
P        1.09021323       4.53983882       0.75906457       0.00000000 NULL       0.00523500       0.00440200       0.00513600
P        6.06460397      -2.03504975      12.85353399       0.00000000 NULL       0.00523500      -0.00440100      -0.00513600
P        3.88417702      -2.03504987      12.85353399       0.00000000 NULL      -0.00523500      -0.00440200      -0.00513600
P       -1.09021372       4.53983870       0.75906457       0.00000000 NULL      -0.00523500       0.00440100       0.00513600
P        3.87777205       0.91202239      10.43682049       0.00000000 NULL       0.00510600       0.00520000      -0.00149300
P       -1.09661837       1.59276645       3.17577807       0.00000000 NULL       0.00510500      -0.00520200       0.00149200
P        1.09661821       1.59276657       3.17577807       0.00000000 NULL      -0.00510600      -0.00520000       0.00149300
P        6.07100862       0.91202250      10.43682049       0.00000000 NULL      -0.00510400       0.00520200      -0.00149200
P       -1.12480540       2.86729983       8.38461282       0.00000000 NULL       0.00548400       0.00252800       0.00023000
P        3.84958516      -0.36251099       5.22798574       0.00000000 NULL       0.00548400      -0.00252900      -0.00023100
P        6.09919565      -0.36251087       5.22798574       0.00000000 NULL      -0.00548300      -0.00252800      -0.00023000
P        1.12480510       2.86729995       8.38461282       0.00000000 NULL      -0.00548400       0.00252900       0.00023100
P        3.80919082       3.16671706       7.76198994       0.00000000 NULL      -0.00411900      -0.00642500      -0.01203500
P        8.78358140      -0.66192769       5.85060861       0.00000000 NULL      -0.00412000       0.00642500       0.01203500
P        1.16519944      -0.66192810       5.85060861       0.00000000 NULL       0.00411900       0.00642400       0.01203500
P       -3.80919115       3.16671665       7.76198994       0.00000000 NULL       0.00412000      -0.00642500      -0.01203500
P       -3.84569528       5.16462373       6.81752901       0.00000000 NULL       0.00510800      -0.00022400      -0.00161400
P        1.12869552      -2.65983519       6.79506955       0.00000000 NULL       0.00510800       0.00022300       0.00161500
P        8.82008553      -2.65983477       6.79506955       0.00000000 NULL      -0.00510800       0.00022400       0.00161400
P        3.84569473       5.16462414       6.81752901       0.00000000 NULL      -0.00510800      -0.00022300      -0.00161500
P       -2.22753565       2.28648170       6.44669357       0.00000000 NULL      -0.00620900      -0.00298800      -0.00316200
P        2.74685484       0.21830701       7.16590498       0.00000000 NULL      -0.00620800       0.00298500       0.00316300
P        7.20192590       0.21830725       7.16590498       0.00000000 NULL       0.00620900       0.00298800       0.00316200
P        2.22753541       2.28648194       6.44669357       0.00000000 NULL       0.00620800      -0.00298500      -0.00316300
P        1.68415412       0.40652662       1.41745268       0.00000000 NULL      -0.00208600       0.00181700       0.00412000
P       -3.29023635       2.09826198      12.19514588       0.00000000 NULL      -0.00208600      -0.00182000      -0.00412200
P        3.29023613       2.09826233      12.19514588       0.00000000 NULL       0.00208600      -0.00181700      -0.00412000
P        8.26462660       0.40652698       1.41745268       0.00000000 NULL       0.00208700       0.00182000       0.00412200
P        7.07608930      -0.92315184      11.22699880       0.00000000 NULL      -0.00772600       0.00783300      -0.00093900
P        2.10169868       3.42794102       2.38559976       0.00000000 NULL      -0.00772700      -0.00783100       0.00094000
P       -2.10169905       3.42794079       2.38559976       0.00000000 NULL       0.00772600      -0.00783300       0.00093900
P        2.87269157      -0.92315206      11.22699880       0.00000000 NULL       0.00772700       0.00783100      -0.00094000
P       -1.09919664       0.84135441       9.24045212       0.00000000 NULL      -0.00486800       0.00172200       0.00594300
P        3.87519370       1.66343443       4.37214643       0.00000000 NULL      -0.00486800      -0.00172300      -0.00594300
P        6.07358689       1.66343455       4.37214643       0.00000000 NULL       0.00486800      -0.00172200      -0.00594300
P        1.09919655       0.84135453       9.24045212       0.00000000 NULL       0.00486800       0.00172300       0.00594300
44
Lattice="9.949215674496026 5.349746349338368e-07 7.614252425451751e-17 -4.974608225195498 7.21487112392315 -2.171323772771222 2.5334510834743536e-07 -4.711597440215529 15.785225360731172" Properties=species:S:1:pos:R:3:initial_magmoms:R:1:castep_labels:S:1:forces:R:3 n_minim_iter=3 energy=-232.404594261297 stress="3.924114406565239e-05 1.939270771714969e-08 0.0 1.939270771714969e-08 5.440624150046345e-05 -2.4231188292578532e-05 0.0 -2.4231188292578532e-05 5.6093407071855465e-05" free_energy=-232.404594261297 pbc="T T T"
P       -1.93408408       0.46257756      12.79265173       0.00000000 NULL      -0.00681900       0.00133600       0.00639000
P        3.04052367       2.04069645       0.82124985       0.00000000 NULL      -0.00681500      -0.00133900      -0.00639000
P        6.90869179       2.04069666       0.82124985       0.00000000 NULL       0.00681900      -0.00133600      -0.00639000
P        1.93408404       0.46257777      12.79265173       0.00000000 NULL       0.00681500       0.00133900       0.00639000
P        3.32330850      -0.44783627      14.33950372       0.00000000 NULL      -0.00209300       0.00603200      -0.00164100
P       -1.65129952       2.95111031      -0.72560215       0.00000000 NULL      -0.00209300      -0.00603500       0.00164400
P        1.65129921       2.95111049      -0.72560215       0.00000000 NULL       0.00209300      -0.00603200       0.00164100
P        6.62590723      -0.44783609      14.33950372       0.00000000 NULL       0.00209300       0.00603500      -0.00164400
P        1.09028325       4.53974326       0.75867627       0.00000000 NULL       0.00491700       0.00346100       0.00723000
P        6.06489144      -2.03646893      12.85522531       0.00000000 NULL       0.00491800      -0.00346100      -0.00723000
P        3.88432446      -2.03646904      12.85522531       0.00000000 NULL      -0.00491700      -0.00346100      -0.00723000
P       -1.09028373       4.53974315       0.75867627       0.00000000 NULL      -0.00491800       0.00346100       0.00723000
P        3.87796592       0.91089090      10.43792315       0.00000000 NULL       0.00436900       0.00379500      -0.00076200
P       -1.09664195       1.59238320       3.17597843       0.00000000 NULL       0.00436700      -0.00379600       0.00076000
P        1.09664179       1.59238332       3.17597843       0.00000000 NULL      -0.00436900      -0.00379500       0.00076200
P        6.07124966       0.91089102      10.43792315       0.00000000 NULL      -0.00436700       0.00379600      -0.00076000
P       -1.12482935       2.86636883       8.38527117       0.00000000 NULL       0.00572300       0.00102700       0.00064300
P        3.84977866      -0.36309473       5.22863041       0.00000000 NULL       0.00572400      -0.00102700      -0.00064300
P        6.09943706      -0.36309461       5.22863041       0.00000000 NULL      -0.00572300      -0.00102700      -0.00064300
P        1.12482905       2.86636895       8.38527117       0.00000000 NULL      -0.00572400       0.00102700       0.00064300
P        3.80933933       3.16581214       7.76248769       0.00000000 NULL      -0.00370900      -0.00443700      -0.01335100
P        8.78394737      -0.66253751       5.85141389       0.00000000 NULL      -0.00371100       0.00443800       0.01335100
P        1.16526838      -0.66253792       5.85141389       0.00000000 NULL       0.00370900       0.00443700       0.01335100
P       -3.80933966       3.16581173       7.76248769       0.00000000 NULL       0.00371100      -0.00443800      -0.01335100
P       -3.84584162       5.16383639       6.81774499       0.00000000 NULL       0.00359100      -0.00117600      -0.00158900
P        1.12876664      -2.66056258       6.79615659       0.00000000 NULL       0.00359400       0.00117400       0.00158900
P        8.82044933      -2.66056217       6.79615659       0.00000000 NULL      -0.00359100       0.00117600       0.00158900
P        3.84584107       5.16383680       6.81774499       0.00000000 NULL      -0.00359400      -0.00117400      -0.00158900
P       -2.22766135       2.28574328       6.44717511       0.00000000 NULL      -0.00583200      -0.00417600      -0.00161100
P        2.74694660       0.21753070       7.16672647       0.00000000 NULL      -0.00583100       0.00417200       0.00161300
P        7.20226906       0.21753094       7.16672647       0.00000000 NULL       0.00583200       0.00417600       0.00161100
P        2.22766111       2.28574352       6.44717511       0.00000000 NULL       0.00583100      -0.00417200      -0.00161300
P        1.68421891       0.40637616       1.41759059       0.00000000 NULL      -0.00129200       0.00234300       0.00294500
P       -3.29038902       2.09689770      12.19631099       0.00000000 NULL      -0.00129200      -0.00234600      -0.00294700
P        3.29038880       2.09689806      12.19631099       0.00000000 NULL       0.00129200      -0.00234300      -0.00294500
P        8.26499673       0.40637652       1.41759059       0.00000000 NULL       0.00129200       0.00234600       0.00294700
P        7.07636358      -0.92434459      11.22839717       0.00000000 NULL      -0.00908900       0.00723000       0.00058600
P        2.10175551       3.42761903       2.38550441       0.00000000 NULL      -0.00909000      -0.00722800      -0.00058500
P       -2.10175587       3.42761881       2.38550441       0.00000000 NULL       0.00908900      -0.00723000      -0.00058600
P        2.87285220      -0.92434481      11.22839717       0.00000000 NULL       0.00909000       0.00722800       0.00058500
P       -1.09926524       0.84034018       9.24145824       0.00000000 NULL      -0.00420500       0.00330000       0.00428600
P        3.87534255       1.66293392       4.37244334       0.00000000 NULL      -0.00420400      -0.00330000      -0.00428600
P        6.07387295       1.66293404       4.37244334       0.00000000 NULL       0.00420500      -0.00330000      -0.00428600
P        1.09926516       0.84034030       9.24145824       0.00000000 NULL       0.00420400       0.00330000       0.00428600
44
Lattice="9.948941408793216 5.349598876886648e-07 1.1804423948502476e-16 -4.974471092284805 7.213768506363306 -2.1721620704247866 2.533965677112756e-07 -4.712554458354176 15.785745094466687" Properties=species:S:1:pos:R:3:initial_magmoms:R:1:castep_labels:S:1:forces:R:3 n_minim_iter=4 energy=-232.404614177641 stress="-1.689472143088197e-05 9.698462359863359e-09 -9.698462359863359e-09 9.698462359863359e-09 -6.550341477851713e-05 -6.274905146831592e-05 -9.698462359863359e-09 -6.274905146831592e-05 -1.5740604410058232e-05" free_energy=-232.404614177641 pbc="T T T"
P       -1.93408942       0.46101347      12.79264163       0.00000000 NULL      -0.00425300       0.00187900       0.00707000
P        3.04038120       2.04020091       0.82094139       0.00000000 NULL      -0.00425500      -0.00188000      -0.00707000
P        6.90856000       2.04020112       0.82094139       0.00000000 NULL       0.00425300      -0.00187900      -0.00707000
P        1.93408938       0.46101368      12.79264163       0.00000000 NULL       0.00425500       0.00188000       0.00707000
P        3.32320909      -0.44935849      14.33951718       0.00000000 NULL      -0.00168700       0.00740900       0.00060300
P       -1.65126180       2.95057290      -0.72593417       0.00000000 NULL      -0.00168000      -0.00741400      -0.00060100
P        1.65126149       2.95057308      -0.72593417       0.00000000 NULL       0.00168700      -0.00740900      -0.00060300
P        6.62573238      -0.44935831      14.33951718       0.00000000 NULL       0.00168000       0.00741400       0.00060100
P        1.09030842       4.53884699       0.75820800       0.00000000 NULL       0.00366100       0.00573600       0.00859300
P        6.06477948      -2.03763228      12.85537502       0.00000000 NULL       0.00366000      -0.00573600      -0.00859400
P        3.88416215      -2.03763240      12.85537502       0.00000000 NULL      -0.00366100      -0.00573600      -0.00859300
P       -1.09030890       4.53884687       0.75820800       0.00000000 NULL      -0.00366000       0.00573600       0.00859400
P        3.87791444       0.90955333      10.43778186       0.00000000 NULL       0.00357000       0.00307600      -0.00325000
P       -1.09655630       1.59166114       3.17580116       0.00000000 NULL       0.00357100      -0.00307700       0.00324900
P        1.09655614       1.59166126       3.17580116       0.00000000 NULL      -0.00357000      -0.00307600       0.00325000
P        6.07102688       0.90955345      10.43778186       0.00000000 NULL      -0.00357100       0.00307700      -0.00324900
P       -1.12473660       2.86487427       8.38492465       0.00000000 NULL       0.00557700       0.00272400       0.00066800
P        3.84973428      -0.36365981       5.22865836       0.00000000 NULL       0.00557700      -0.00272400      -0.00066800
P        6.09920718      -0.36365969       5.22865836       0.00000000 NULL      -0.00557700      -0.00272400      -0.00066800
P        1.12473630       2.86487439       8.38492465       0.00000000 NULL      -0.00557700       0.00272400       0.00066800
P        3.80919089       3.16424660       7.76196652       0.00000000 NULL      -0.00265400      -0.00367500      -0.01113700
P        8.78366180      -0.66303160       5.85161650       0.00000000 NULL      -0.00265600       0.00367700       0.01113700
P        1.16527969      -0.66303201       5.85161650       0.00000000 NULL       0.00265400       0.00367500       0.01113700
P       -3.80919122       3.16424619       7.76196652       0.00000000 NULL       0.00265600      -0.00367700      -0.01113700
P       -3.84568560       5.16206431       6.81711215       0.00000000 NULL       0.00302300       0.00084200      -0.00079600
P        1.12878552      -2.66085014       6.79647086       0.00000000 NULL       0.00302500      -0.00084300       0.00079600
P        8.82015618      -2.66084972       6.79647086       0.00000000 NULL      -0.00302300      -0.00084200       0.00079600
P        3.84568506       5.16206472       6.81711215       0.00000000 NULL      -0.00302500       0.00084300      -0.00079600
P       -2.22766751       2.28452458       6.44686558       0.00000000 NULL      -0.00365500      -0.00333000      -0.00346000
P        2.74680330       0.21668976       7.16671744       0.00000000 NULL      -0.00365400       0.00332700       0.00346100
P        7.20213809       0.21669000       7.16671744       0.00000000 NULL       0.00365500       0.00333000       0.00346000
P        2.22766727       2.28452482       6.44686558       0.00000000 NULL       0.00365400      -0.00332700      -0.00346100
P        1.68415268       0.40615612       1.41758172       0.00000000 NULL      -0.00169600      -0.00177100       0.00088900
P       -3.29031811       2.09505812      12.19600129       0.00000000 NULL      -0.00169600       0.00176800      -0.00088900
P        3.29031789       2.09505847      12.19600129       0.00000000 NULL       0.00169600       0.00177100      -0.00088900
P        8.26478869       0.40615647       1.41758172       0.00000000 NULL       0.00169600      -0.00176800       0.00089000
P        7.07607881      -0.92539699      11.22847690       0.00000000 NULL      -0.00880500       0.00358900      -0.00062800
P        2.10160787       3.42661180       2.38510611       0.00000000 NULL      -0.00880500      -0.00358700       0.00062800
P       -2.10160823       3.42661157       2.38510611       0.00000000 NULL       0.00880500      -0.00358900       0.00062800
P        2.87286271      -0.92539722      11.22847690       0.00000000 NULL       0.00880500       0.00358700      -0.00062800
P       -1.09928485       0.83912769       9.24140286       0.00000000 NULL      -0.00424600       0.00231600       0.00472300
P        3.87518581       1.66208678       4.37218016       0.00000000 NULL      -0.00424600      -0.00231600      -0.00472300
P        6.07375543       1.66208690       4.37218016       0.00000000 NULL       0.00424600      -0.00231600      -0.00472300
P        1.09928477       0.83912781       9.24140286       0.00000000 NULL       0.00424600       0.00231600       0.00472300
44
Lattice="9.95061982200428 5.350501369144975e-07 1.7482184179923266e-16 -4.975310298833987 7.212720537658049 -2.171354334880368 2.5324249618459766e-07 -4.709689104766755 15.787124564091377" Properties=species:S:1:pos:R:3:initial_magmoms:R:1:castep_labels:S:1:forces:R:3 n_minim_iter=5 energy=-232.404708211121 stress="0.00010917294047959469 1.9393008345251747e-08 -0.0 1.9393008345251747e-08 -0.000127955069061971 4.9733369901398106e-05 -0.0 4.9733369901398106e-05 8.22263553838674e-05" free_energy=-232.404708211121 pbc="T T T"
P       -1.93474295       0.46300717      12.79481825       0.00000000 NULL      -0.00344500       0.00186600       0.00139100
P        3.04056688       2.04002460       0.82095197       0.00000000 NULL      -0.00344200      -0.00186800      -0.00139100
P        6.91005273       2.04002481       0.82095197       0.00000000 NULL       0.00344500      -0.00186600      -0.00139100
P        1.93474290       0.46300737      12.79481825       0.00000000 NULL       0.00344200       0.00186800       0.00139100
P        3.32371475      -0.44673029      14.34130415       0.00000000 NULL      -0.00062800      -0.00216500      -0.00226800
P       -1.65159534       2.94976208      -0.72553393       0.00000000 NULL      -0.00062700       0.00216100       0.00227000
P        1.65159503       2.94976226      -0.72553393       0.00000000 NULL       0.00062800       0.00216500       0.00226800
P        6.62690512      -0.44673011      14.34130415       0.00000000 NULL       0.00062700      -0.00216100      -0.00227000
P        1.09080048       4.53879335       0.75939847       0.00000000 NULL      -0.00513300       0.00181900       0.00309800
P        6.06611075      -2.03576126      12.85637175       0.00000000 NULL      -0.00513300      -0.00181900      -0.00309800
P        3.88450930      -2.03576138      12.85637175       0.00000000 NULL       0.00513400      -0.00181900      -0.00309800
P       -1.09080096       4.53879323       0.75939847       0.00000000 NULL       0.00513300       0.00181900       0.00309800
P        3.87887163       0.91133246      10.43919873       0.00000000 NULL       0.00072100       0.00626500      -0.00157900
P       -1.09643831       1.59169939       3.17657149       0.00000000 NULL       0.00072000      -0.00626600       0.00157800
P        1.09643815       1.59169951       3.17657149       0.00000000 NULL      -0.00072100      -0.00626500       0.00157900
P        6.07174810       0.91133258      10.43919873       0.00000000 NULL      -0.00072000       0.00626600      -0.00157800
P       -1.12456883       2.86600322       8.38650053       0.00000000 NULL       0.00163200       0.00315800      -0.00347100
P        3.85074125      -0.36297137       5.22926969       0.00000000 NULL       0.00163200      -0.00315900       0.00347000
P        6.09987862      -0.36297125       5.22926969       0.00000000 NULL      -0.00163200      -0.00315800       0.00347100
P        1.12456853       2.86600334       8.38650053       0.00000000 NULL      -0.00163200       0.00315900      -0.00347000
P        3.80959456       3.16475963       7.76269782       0.00000000 NULL       0.00212100      -0.00418700      -0.00769200
P        8.78490467      -0.66172725       5.85307240       0.00000000 NULL       0.00211800       0.00418900       0.00769200
P        1.16571522      -0.66172766       5.85307240       0.00000000 NULL      -0.00212100       0.00418700       0.00769200
P       -3.80959489       3.16475922       7.76269782       0.00000000 NULL      -0.00211800      -0.00418900      -0.00769200
P       -3.84605816       5.16256820       6.81871077       0.00000000 NULL      -0.00399500       0.00058300      -0.00401600
P        1.12925217      -2.65953665       6.79705945       0.00000000 NULL      -0.00399200      -0.00058400       0.00401500
P        8.82136795      -2.65953623       6.79705945       0.00000000 NULL       0.00399500      -0.00058300       0.00401600
P        3.84605762       5.16256862       6.81871077       0.00000000 NULL       0.00399200       0.00058400      -0.00401500
P       -2.22840717       2.28506334       6.44788474       0.00000000 NULL       0.00095100       0.00167800      -0.00465300
P        2.74690285       0.21796839       7.16788548       0.00000000 NULL       0.00095200      -0.00168200       0.00465400
P        7.20371695       0.21796863       7.16788548       0.00000000 NULL      -0.00095100      -0.00167800       0.00465300
P        2.22840693       2.28506358       6.44788474       0.00000000 NULL      -0.00095200       0.00168200      -0.00465400
P        1.68432154       0.40641442       1.41804007       0.00000000 NULL      -0.00330800      -0.00367100       0.00134900
P       -3.29098846       2.09661720      12.19773015       0.00000000 NULL      -0.00330800       0.00366800      -0.00135000
P        3.29098824       2.09661755      12.19773015       0.00000000 NULL       0.00330800       0.00367100      -0.00134900
P        8.26629825       0.40641477       1.41804007       0.00000000 NULL       0.00330800      -0.00366800       0.00135000
P        7.07674436      -0.92315602      11.22978982       0.00000000 NULL      -0.00426500       0.00139600       0.00095800
P        2.10143421       3.42618822       2.38598039       0.00000000 NULL      -0.00426600      -0.00139400      -0.00095700
P       -2.10143457       3.42618799       2.38598039       0.00000000 NULL       0.00426500      -0.00139600      -0.00095800