24
Lattice="6.8862622027173135 0.42979332630191774 -0.020933810527825752 0.18161818124373974 6.897270783733845 -0.020933810527825062 -0.09383616284928811 -0.09727719538048767 10.495728572088577" Properties=species:S:1:pos:R:3:initial_magmoms:R:1:castep_labels:S:1:forces:R:3 n_minim_iter=1 energy=-128.595989851491 stress="-0.0013894317938433925 -2.2103272350611478e-06 0.00020417395486778473 -2.2103272350611478e-06 -0.001389552357147123 0.00021168906746699262 0.00020417395486778473 0.00021168906746699262 -0.0010424506057067023" free_energy=-128.595989851491 pbc="T T T"
P        6.16022206       6.93980252       0.64476685       0.00000000 NULL       0.00261600       0.00073400       0.04474200
P        3.13268607       2.69388252       5.91356495       0.00000000 NULL       0.00064100       0.00264200       0.04474600
P        4.72166847       3.75822334       4.66949298       0.00000000 NULL       0.01016100       0.05310600      -0.01845900
P        0.00495514       1.14172860       9.93829107       0.00000000 NULL       0.05270800       0.01206900      -0.01845400
P        1.23379418       0.41024107       6.06355007       0.00000000 NULL      -0.02609100       0.02749100      -0.04344300
P        3.94641844       4.95993328       0.79475198       0.00000000 NULL       0.02841300      -0.02508700      -0.04344500
P        3.93939704       5.63107560       7.60343945       0.00000000 NULL      -0.04480300       0.08761100       0.00114000
P        1.99859042       0.52466167       2.37650897       0.00000000 NULL       0.08916700      -0.04161900       0.00114000
P        6.61974713       5.58515997       9.38340754       0.00000000 NULL       0.01416200       0.01133200       0.00907100
P        1.85621540       3.20162155       4.15647706       0.00000000 NULL       0.01081400       0.01456100       0.00906900
P        4.81882961       2.20477745      -0.54164355       0.00000000 NULL      -0.04927900       0.02334900      -0.03203800
P        5.33528067       1.61269803       4.70622074       0.00000000 NULL       0.02510600      -0.04840500      -0.03204100
P        1.23754608       2.36231804       0.98136632       0.00000000 NULL      -0.03081900      -0.10034200      -0.06531600
P        5.80325892       4.93667781       6.20829679       0.00000000 NULL      -0.09916700      -0.03441000      -0.06531400
P        7.96558873       5.52532704       5.37850038       0.00000000 NULL       0.04687200       0.03725700      -0.00258800
P        1.74797268       4.54443692       0.15156991       0.00000000 NULL       0.03554500       0.04818300      -0.00258800
P       -0.25422122       2.95752084       7.59212565       0.00000000 NULL       0.01253100      -0.05039800       0.07599900
P       -0.34064840       3.13478782       2.34426137       0.00000000 NULL      -0.05081600       0.01070700       0.07599700
P        4.80448987       4.29562566       9.24493505       0.00000000 NULL      -0.01448300      -0.01898100       0.02405500
P        0.63286384       1.34111930       4.01800457       0.00000000 NULL      -0.01844700      -0.01515700       0.02405400
P        2.20973501       4.27414758       7.19306867       0.00000000 NULL       0.01129000      -0.01489100       0.00723900
P        0.88642569       5.64454387       1.94520438       0.00000000 NULL      -0.01528700       0.01074700       0.00723900
P        6.08547771       1.33051581       6.80293951       0.00000000 NULL      -0.02839300       0.03655900      -0.00040200
P        4.50982416       2.94433005       1.55507523       0.00000000 NULL       0.03755800      -0.02705900      -0.00040500
24
Lattice="6.893910472086423 0.4302862729314666 -0.022147786547165316 0.18183548051815662 6.904931841216157 -0.022147786547164174 -0.09565338866617552 -0.09916106003854765 10.504500677533342" Properties=species:S:1:pos:R:3:initial_magmoms:R:1:castep_labels:S:1:forces:R:3 n_minim_iter=2 energy=-128.597090469988 stress="7.085553662241408e-05 -7.392053438979586e-06 0.00017885163442604265 -7.392053438979586e-06 7.039478532404949e-05 0.00018542234859402452 0.00017885163442604265 0.00018542234859402452 0.00032476956735159087" free_energy=-128.597090469988 pbc="T T T"
P        6.16697153       6.94740999       0.64319619       0.00000000 NULL       0.02582700      -0.00281600       0.02896400
P        3.13520423       2.69588254       5.91759432       0.00000000 NULL      -0.00374300       0.02571400       0.02896800
P        4.72617072       3.76169934       4.67194545       0.00000000 NULL       0.01115800       0.02859000       0.00414900
P        0.00342542       1.14133412       9.94634357       0.00000000 NULL       0.02817500       0.01218300       0.00415300
P        1.23413302       0.40971702       6.06825898       0.00000000 NULL      -0.05554900       0.03056100      -0.05103400
P        3.95072393       4.96527197       0.79386086       0.00000000 NULL       0.03254100      -0.05441700      -0.05103500
P        3.94246715       5.63618845       7.60817745       0.00000000 NULL      -0.04084000       0.06248400       0.00200000
P        2.00056526       0.52477878       2.37807490       0.00000000 NULL       0.06391500      -0.03856200       0.00200000
P        6.62559670       5.58980295       9.38921089       0.00000000 NULL       0.00070800       0.00444600       0.02457400
P        1.85762062       3.20449940       4.15910834       0.00000000 NULL       0.00441900       0.00086700       0.02457300
P        4.82419192       2.20736287      -0.54330549       0.00000000 NULL      -0.02775700       0.03525800      -0.01868400
P        5.34047825       1.61362395       4.70894485       0.00000000 NULL       0.03623100      -0.02646800      -0.01868600
P        1.23871438       2.36461565       0.98147707       0.00000000 NULL      -0.05400000      -0.09534100      -0.05721300
P        5.80853716       4.94106313       6.21157963       0.00000000 NULL      -0.09333600      -0.05739800      -0.05721000
P        7.97363829       5.53062520       5.38074039       0.00000000 NULL       0.05046600       0.03315700       0.01137100
P        1.74995347       4.54953691       0.15063784       0.00000000 NULL       0.03131800       0.05162600       0.01137200
P       -0.25571707       2.95943833       7.59811118       0.00000000 NULL       0.00020300      -0.04520400       0.06172400
P       -0.34148518       3.13788795       2.34586084       0.00000000 NULL      -0.04518300      -0.00142600       0.06172200
P        4.80829870       4.29880853       9.25116158       0.00000000 NULL      -0.00466500      -0.01386900       0.02552300
P        0.63288336       1.34190517       4.02105903       0.00000000 NULL      -0.01369000      -0.00516100       0.02552200
P        2.21103977       4.27765570       7.19798659       0.00000000 NULL       0.02138600      -0.01216700      -0.01060000
P        0.88707770       5.65050006       1.94573625       0.00000000 NULL      -0.01292800       0.02093400      -0.01060000
P        6.09107942       1.33091153       6.80738578       0.00000000 NULL      -0.00523400       0.05042300      -0.02077500
P        4.51464207       2.94730025       1.55513544       0.00000000 NULL       0.05057800      -0.00341400      -0.02077700
24
Lattice="6.896615167704548 0.43070831569348944 -0.02863515974129748 0.1821598841692388 6.907649976744573 -0.028635159741296455 -0.10500695576007565 -0.10885762846237818 10.4952298212074" Properties=species:S:1:pos:R:3:initial_magmoms:R:1:castep_labels:S:1:forces:R:3 n_minim_iter=3 energy=-128.597770735527 stress="0.0001011174308059563 -6.731812314404857e-05 -0.0003226661825103876 -6.731812314404857e-05 9.6268923127129e-05 -0.00033452699468338663 -0.0003226661825103876 -0.00033452699468338663 -0.0002447093916908956" free_energy=-128.597770735527 pbc="T T T"
P        6.16925568       6.94971187       0.63106480       0.00000000 NULL       0.02116900       0.01537000       0.02701300
P        3.13123106       2.69182970       5.90731487       0.00000000 NULL       0.01459800       0.02170900       0.02701300
P        4.72409558       3.75933756       4.66011403       0.00000000 NULL      -0.00605800      -0.00104500      -0.01180300
P       -0.00505146       1.13275694       9.93636410       0.00000000 NULL      -0.00082600      -0.00609200      -0.01180400
P        1.22872996       0.40463881       6.06083886       0.00000000 NULL      -0.04957000       0.03538800      -0.03485300
P        3.95203485       4.96610797       0.78458879       0.00000000 NULL       0.03714900      -0.04826400      -0.03485200
P        3.93703536       5.63216541       7.59267854       0.00000000 NULL      -0.03351100       0.05655800       0.00677800
P        1.99990260       0.52248388       2.37369879       0.00000000 NULL       0.05772700      -0.03145300       0.00677700
P        6.62004884       5.58362748       9.36998082       0.00000000 NULL      -0.00761100      -0.00599700       0.01325200
P        1.85481111       3.20201103       4.15100107       0.00000000 NULL      -0.00571800      -0.00782200       0.01325100
P        4.82632324       2.20922071      -0.54931915       0.00000000 NULL      -0.01779700       0.02842300      -0.04328300
P        5.33877152       1.60982445       4.69829576       0.00000000 NULL       0.02904500      -0.01676200      -0.04328300
P        1.23789823       2.36373700       0.97675595       0.00000000 NULL      -0.04225000      -0.07722300      -0.02959100
P        5.80452622       4.93693769       6.19573570       0.00000000 NULL      -0.07565300      -0.04500500      -0.02959100
P        7.97263589       5.52843581       5.36384572       0.00000000 NULL       0.03731200       0.02499000       0.00682000
P        1.75096381       4.55173454       0.14486597       0.00000000 NULL       0.02363100       0.03818800       0.00682000
P       -0.26243839       2.95315006       7.58940472       0.00000000 NULL       0.00074300      -0.02981700       0.06402200
P       -0.34404078       3.13694095       2.34178981       0.00000000 NULL      -0.02982500      -0.00033100       0.06402200
P        4.80204918       4.29200307       9.23487709       0.00000000 NULL      -0.00157300      -0.02091400       0.01594400
P        0.62946953       1.33869291       4.01589734       0.00000000 NULL      -0.02084200      -0.00232500       0.01594300
P        2.20585963       4.27266047       7.18553576       0.00000000 NULL       0.02430300       0.00296100       0.00258700
P        0.88575883       5.65113978       1.93792085       0.00000000 NULL       0.00208400       0.02439400       0.00258600
P        6.08737418       1.32586162       6.79445701       0.00000000 NULL       0.00256300       0.04103100      -0.01688300
P        4.51559574       2.94711585       1.54684210       0.00000000 NULL       0.04091200       0.00404000      -0.01688500
24
Lattice="6.897937663697664 0.43950071701936605 -0.020262511890632346 0.19089897842771889 6.909288130665449 -0.020262511890631336 -0.0931628533333948 -0.09657919517096963 10.492418215204404" Properties=species:S:1:pos:R:3:initial_magmoms:R:1:castep_labels:S:1:forces:R:3 n_minim_iter=4 energy=-128.601009881997 stress="0.00017060617148094924 0.00026342185871336323 9.439834194671592e-05 0.00026342185871336323 0.00018953792724063652 9.788418903897581e-05 9.439834194671592e-05 9.788418903897581e-05 -0.00036951982538352613" free_energy=-128.601009881997 pbc="T T T"
P        6.18128869       6.96012120       0.64844510       0.00000000 NULL      -0.00897600       0.01722600       0.00678800
P        3.14209173       2.70515357       5.91491672       0.00000000 NULL       0.01753700      -0.00835100       0.00679000
P        4.73505066       3.77302961       4.66849391       0.00000000 NULL      -0.02822900      -0.02835400      -0.02767800
P        0.00912860       1.14512175       9.93496553       0.00000000 NULL      -0.02732300      -0.02923300      -0.02767700
P        1.23225070       0.41602433       6.05777124       0.00000000 NULL       0.00096300       0.00385800      -0.00959800
P        3.96239499       4.96911235       0.79129962       0.00000000 NULL       0.00382100       0.00110400      -0.00960000
P        3.95030206       5.65219482       7.60227180       0.00000000 NULL      -0.02633000       0.00631600      -0.01419100
P        2.00848860       0.52510852       2.37632521       0.00000000 NULL       0.00726000      -0.02608500      -0.01418900
P        6.63845123       5.60431835       9.38332569       0.00000000 NULL      -0.01049700      -0.01281600       0.00782800
P        1.86387325       3.20979184       4.15737910       0.00000000 NULL      -0.01243000      -0.01095100       0.00782900
P        4.82709341       2.21765663      -0.54342854       0.00000000 NULL       0.01090000       0.00128000      -0.02681400
P        5.34938800       1.62061413       4.70278057       0.00000000 NULL       0.00088800       0.01093800      -0.02681300
P        1.23836302       2.35996910       0.97707323       0.00000000 NULL      -0.01221100      -0.02437200       0.02149500
P        5.81169688       4.94862103       6.20301982       0.00000000 NULL      -0.02391800      -0.01307700       0.02149200
P        7.99025640       5.54842577       5.37882893       0.00000000 NULL       0.01104700       0.01854500       0.00684200
P        1.75935365       4.55870876       0.15288233       0.00000000 NULL       0.01813600       0.01170800       0.00684200
P       -0.24996918       2.95932409       7.59576316       0.00000000 NULL      -0.02562800       0.00453300       0.00195300
P       -0.34053338       3.13990800       2.34955406       0.00000000 NULL       0.00545500      -0.02544900       0.00195100
P        4.81828783       4.30856516       9.24485702       0.00000000 NULL       0.02609700       0.02747700      -0.01912300
P        0.63448346       1.34416276       4.01891043       0.00000000 NULL       0.02651700       0.02707000      -0.01912200
P        2.22148664       4.28438473       7.19101939       0.00000000 NULL       0.01357400       0.04271100       0.02860600
P        0.89469918       5.65746238       1.94481028       0.00000000 NULL       0.04219600       0.01510200       0.02860700
P        6.09727291       1.34552112       6.79987827       0.00000000 NULL      -0.02548500       0.01572700       0.02388800
P        4.52525581       2.95515379       1.55366917       0.00000000 NULL       0.01663500      -0.02490600       0.02389200
24
Lattice="6.894727090558927 0.43535160319004473 -0.021412681850282944 0.1868681304005415 6.90593027575053 -0.021412681850281858 -0.09468495316146633 -0.09815711138011507 10.502317670274838" Properties=species:S:1:pos:R:3:initial_magmoms:R:1:castep_labels:S:1:forces:R:3 n_minim_iter=5 energy=-128.601326017847 stress="-4.990173654327153e-05 -7.035523835406247e-05 -1.7348415835597405e-05 -7.035523835406247e-05 -5.495000535455391e-05 -1.7969433030636116e-05 -1.7348415835597405e-05 -1.7969433030636116e-05 8.810431044452356e-05" free_energy=-128.601326017847 pbc="T T T"
P        6.17468398       6.95333583       0.64726081       0.00000000 NULL      -0.00741600       0.01168100      -0.00017500
P        3.13840818       2.70127341       5.91983233       0.00000000 NULL       0.01194000      -0.00698900      -0.00017000
P        4.73002159       3.76779108       4.67137912       0.00000000 NULL      -0.02674400      -0.02896000      -0.02744900
P        0.00693417       1.14287189       9.94395064       0.00000000 NULL      -0.02797700      -0.02777000      -0.02744500
P        1.23014857       0.41443244       6.06281476       0.00000000 NULL       0.00560400       0.00994300      -0.00953600
P        3.95802015       4.96398975       0.79024324       0.00000000 NULL       0.00973500       0.00595600      -0.00953900
P        3.94375942       5.64658149       7.60786949       0.00000000 NULL      -0.01200200       0.00986500      -0.00803200
P        2.00749619       0.52291049       2.37812334       0.00000000 NULL       0.01029200      -0.01163800      -0.00803200
P        6.63087761       5.59632061       9.39042940       0.00000000 NULL      -0.00249500      -0.00124500       0.01590400
P        1.86053510       3.20647766       4.16068324       0.00000000 NULL      -0.00115600      -0.00253700       0.01590300
P        4.82369586       2.21419726      -0.54541172       0.00000000 NULL       0.00919700      -0.00299200      -0.01342000
P        5.34570227       1.61590967       4.70574712       0.00000000 NULL      -0.00332300       0.00908500      -0.01342300
P        1.23588643       2.35716465       0.97717242       0.00000000 NULL      -0.00829600      -0.00914200       0.03786200
P        5.80460165       4.94150264       6.20691857       0.00000000 NULL      -0.00883700      -0.00861800       0.03786400
P        7.98323702       5.54072182       5.38187929       0.00000000 NULL       0.00413800       0.01001000       0.01365800
P        1.75628915       4.55595903       0.15213314       0.00000000 NULL       0.00985700       0.00449500       0.01365800
P       -0.25285270       2.95657295       7.60298804       0.00000000 NULL      -0.02838900       0.01979800      -0.00669800
P       -0.34282802       3.13811189       2.35182921       0.00000000 NULL       0.02080600      -0.02765900      -0.00669900
P        4.81243622       4.30231503       9.25219420       0.00000000 NULL       0.00874200       0.02226400      -0.02076600
P        0.63282979       1.34263238       4.02244804       0.00000000 NULL       0.02193300       0.00953900      -0.02076800
P        2.21722019       4.28012693       7.19687753       0.00000000 NULL       0.00245500       0.03501800       0.01491400
P        0.89094864       5.65423001       1.94571869       0.00000000 NULL       0.03490800       0.00371100       0.01491500
P        6.09267436       1.34075967       6.80510651       0.00000000 NULL      -0.03015000       0.00609600       0.00373800
P        4.52183418       2.95078014       1.55394768       0.00000000 NULL       0.00717700      -0.02991200       0.00373600
24
Lattice="6.89792755608281 0.442419375238268 -0.02296883901429736 0.19381610873946922 6.909383097538141 -0.022968839014296277 -0.09707319721947054 -0.10063293388598524 10.493274351483805" Properties=species:S:1:pos:R:3:initial_magmoms:R:1:castep_labels:S:1:forces:R:3 n_minim_iter=6 energy=-128.60285178162 stress="2.0092782482396928e-05 -0.00010096472952271237 2.4179450105935285e-05 -0.00010096472952271237 1.2760819981342813e-05 2.506088822081611e-05 2.4179450105935285e-05 2.506088822081611e-05 -7.149665072749215e-05" free_energy=-128.60285178162 pbc="T T T"
P        6.18364726       6.96463148       0.64505898       0.00000000 NULL       0.00065400       0.00381400       0.01328800
P        3.14310550       2.70413929       5.91466500       0.00000000 NULL       0.00378900       0.00078900       0.01328400
P        4.73086816       3.76969229       4.66136759       0.00000000 NULL      -0.01320200       0.00550100       0.01515400
P        0.00253533       1.13728814       9.93097361       0.00000000 NULL       0.00596900      -0.01299400       0.01515300
P        1.22855603       0.41696548       6.05418993       0.00000000 NULL      -0.01122300       0.00426500       0.03253100
P        3.96687722       4.96898764       0.78458391       0.00000000 NULL       0.00466300      -0.01105800       0.03253100
P        3.94576986       5.65506696       7.59797661       0.00000000 NULL       0.01650100       0.00751200      -0.01132300
P        2.01202369       0.52120270       2.37430828       0.00000000 NULL       0.00691400       0.01676200      -0.01132100
P        6.63643231       5.60299491       9.38245418       0.00000000 NULL       0.00701000       0.00352800       0.00200500
P        1.86312501       3.20824664       4.15878584       0.00000000 NULL       0.00327500       0.00713100       0.00200700
P        4.82842683       2.22102148      -0.54983806       0.00000000 NULL      -0.00127700      -0.00186600      -0.01373900
P        5.34928388       1.62145280       4.69679912       0.00000000 NULL      -0.00181400      -0.00134700      -0.01373600
P        1.23540835       2.35426647       0.97888834       0.00000000 NULL       0.02331900      -0.01275700      -0.02911900
P        5.80560265       4.94494293       6.20255667       0.00000000 NULL      -0.01358900       0.02284800      -0.02912200
P        7.99325832       5.55290254       5.37641085       0.00000000 NULL      -0.02483100       0.00687700       0.01429800
P        1.76422112       4.56238994       0.15274251       0.00000000 NULL       0.00776500      -0.02456500       0.01429700
P       -0.25568663       2.95703362       7.59737891       0.00000000 NULL      -0.02331700       0.00152000      -0.00162900
P       -0.33919776       3.13472682       2.35074173       0.00000000 NULL       0.00236200      -0.02324900      -0.00163000
P        4.81828908       4.30987936       9.24001186       0.00000000 NULL       0.00344200      -0.00603500      -0.01592900
P        0.63629843       1.34473137       4.01634353       0.00000000 NULL      -0.00615700       0.00322200      -0.01592600
P        2.22230853       4.28785821       7.19160897       0.00000000 NULL       0.00439400       0.01016200       0.00915800
P        0.90155961       5.65902381       1.94497180       0.00000000 NULL       0.00999600       0.00475800       0.00915700
P        6.09058068       1.34878288       6.79805830       0.00000000 NULL       0.00387500      -0.00838600      -0.01469700
P        4.52924792       2.95202204       1.55142113       0.00000000 NULL      -0.00851900       0.00356700      -0.01469200
24
Lattice="6.896546650280007 0.44802465162351945 -0.024710077245046612 0.1994674628181858 6.90820486951766 -0.02471007724504544 -0.09960895238131803 -0.10326167682288778 10.49803026614376" Properties=species:S:1:pos:R:3:initial_magmoms:R:1:castep_labels:S:1:forces:R:3 n_minim_iter=7 energy=-128.603013681823 stress="-9.31119641976981e-05 0.0001554136442008911 -4.827879382884088e-05 0.0001554136442008911 -8.195375334182076e-05 -5.006170364243707e-05 -4.827879382884088e-05 -5.006170364243707e-05 0.00013159477039902727" free_energy=-128.603013681823 pbc="T T T"
P        6.18764804       6.96848000       0.64252353       0.00000000 NULL      -0.00380200       0.01250200       0.00803300
P        3.14340439       2.70474813       5.91624874       0.00000000 NULL       0.01262800      -0.00335100       0.00803000
P        4.73108341       3.77143974       4.66124943       0.00000000 NULL      -0.02230100       0.01298500       0.02070200
P        0.00087080       1.13403826       9.93497464       0.00000000 NULL       0.01377600      -0.02182300       0.02070000
P        1.22686082       0.41672513       6.05671844       0.00000000 NULL      -0.00095200       0.00229300       0.03042200
P        3.97010115       4.97081277       0.78299323       0.00000000 NULL       0.00232600      -0.00086600       0.03042300
P        3.94753314       5.65583145       7.59877638       0.00000000 NULL       0.01208200       0.00698400      -0.01098500
P        2.01185686       0.52209321       2.37447132       0.00000000 NULL       0.00654600       0.01232600      -0.01098400
P        6.63718985       5.60508147       9.38405006       0.00000000 NULL       0.00261600       0.00331600       0.00347500
P        1.86431560       3.20817965       4.15974501       0.00000000 NULL       0.00322000       0.00273200       0.00347700
P        4.82919585       2.22476271      -0.55231773       0.00000000 NULL      -0.00832000      -0.00028200      -0.01347500
P        5.34821100       1.62443337       4.69669740       0.00000000 NULL       0.00002100      -0.00832700      -0.01347300
P        1.23685208       2.35388367       0.97834715       0.00000000 NULL       0.02591200      -0.01970100      -0.03043800
P        5.80603547       4.94727109       6.20265220       0.00000000 NULL      -0.02062100       0.02518700      -0.03044000
P        7.99439862       5.55748659       5.37602545       0.00000000 NULL      -0.02934500       0.00750600       0.01618900
P        1.76789380       4.56279537       0.15172039       0.00000000 NULL       0.00855800      -0.02905500       0.01618800
P       -0.25575205       2.95451031       7.60025646       0.00000000 NULL      -0.02294600      -0.00320600       0.00149500
P       -0.33693306       3.13249323       2.35124133       0.00000000 NULL      -0.00237700      -0.02304600       0.00149600
P        4.81866352       4.31094554       9.24150227       0.00000000 NULL       0.01194000      -0.00607600      -0.01532000
P        0.63648309       1.34424479       4.01719722       0.00000000 NULL      -0.00650300       0.01171300      -0.01531900
P        2.22380419       4.28777486       7.19365330       0.00000000 NULL       0.00640700       0.01479900       0.00881600
P        0.90620648       5.65843811       1.94463817       0.00000000 NULL       0.01455600       0.00693600       0.00881500
P        6.08816041       1.35203542       6.79916861       0.00000000 NULL       0.00132000      -0.00469600      -0.01891500
P        4.53033722       2.95442654       1.55015348       0.00000000 NULL      -0.00474000       0.00114900      -0.01891200
24
Lattice="6.8997566223167 0.4680087166391646 -0.030526785997438726 0.2193230200302761 6.91213216156477 -0.030526785997437557 -0.10828606636664179 -0.11225698616694944 10.482590913353159" Properties=species:S:1:pos:R:3:initial_magmoms:R:1:castep_labels:S:1:forces:R:3 n_minim_iter=8 energy=-128.605509196132 stress="8.622420053934344e-05 0.00016208385523380417 1.3271430076039376e-05 0.00016208385523380417 9.785173746397008e-05 1.3772617012445696e-05 1.3271430076039376e-05 1.3772617012445696e-05 -8.059085937413639e-06" free_energy=-128.605509196132 pbc="T T T"
P        6.20807503       6.99474497       0.63699511       0.00000000 NULL       0.02522000      -0.02750000       0.02669900
P        3.15304568       2.70965405       5.90881735       0.00000000 NULL      -0.02839200       0.02421100       0.02670100
P        4.72740961       3.77999056       4.64712826       0.00000000 NULL      -0.02223300       0.02060200      -0.01158500
P       -0.00632300       1.11422133       9.91895050       0.00000000 NULL       0.02138600      -0.02147800      -0.01158200
P        1.21878152       0.42056917       6.05317941       0.00000000 NULL       0.02173800      -0.01548400       0.00203100
P        3.99010486       4.97933042       0.78135717       0.00000000 NULL      -0.01625700       0.02116900       0.00203000
P        3.95856671       5.67182362       7.57358262       0.00000000 NULL      -0.00531600       0.00979000       0.00647400
P        2.02024727       0.52623731       2.36281395       0.00000000 NULL       0.00997600      -0.00496000       0.00647500
P        6.64846349       5.61942995       9.36558500       0.00000000 NULL      -0.00201500      -0.01240700       0.00094800
P        1.87105473       3.21250448       4.15481633       0.00000000 NULL      -0.01232600      -0.00246000       0.00094700
P        4.83694498       2.24103534      -0.56755213       0.00000000 NULL      -0.01708500      -0.00095000      -0.01808600
P        5.35153277       1.63629401       4.67374332       0.00000000 NULL      -0.00033200      -0.01711000      -0.01808700
P        1.24692119       2.34429217       0.96860251       0.00000000 NULL       0.02066900       0.01010800      -0.01020900
P        5.80328192       4.96444642       6.17937118       0.00000000 NULL       0.00935700       0.02102200      -0.01020900
P        8.00258065       5.58567982       5.36593551       0.00000000 NULL       0.00753400       0.00283700      -0.00351600
P        1.78858001       4.56452899       0.15516684       0.00000000 NULL       0.00256400       0.00763200      -0.00351600
P       -0.26841998       2.95041937       7.58893874       0.00000000 NULL      -0.02484100       0.01723400      -0.01350200
P       -0.32790397       3.11615551       2.34764328       0.00000000 NULL       0.01811900      -0.02420500      -0.01350300
P        4.83011804       4.32164824       9.21110003       0.00000000 NULL       0.05082300      -0.02123500       0.01874900
P        0.63957229       1.34861915       4.00033136       0.00000000 NULL      -0.02305300       0.05002500       0.01874900
P        2.23535426       4.30288620       7.18481522       0.00000000 NULL       0.00047800      -0.02979900      -0.00932100
P        0.93355359       5.66699395       1.94351977       0.00000000 NULL      -0.02979800      -0.00059600      -0.00932200
P        6.08244709       1.36650146       6.77809219       0.00000000 NULL      -0.01958500       0.01267200       0.01131800
P        4.54101533       2.96176372       1.53679674       0.00000000 NULL       0.01336900      -0.01911900       0.01131800
24
Lattice="6.899431884256149 0.48118776918603007 -0.03317895196441095 0.2325052205457426 6.912282062902481 -0.033178951964409766 -0.11228384867135714 -0.11640136972373503 10.471936266404837" Properties=species:S:1:pos:R:3:initial_magmoms:R:1:castep_labels:S:1:forces:R:3 n_minim_iter=9 energy=-128.607147469153 stress="0.00015343422953937265 0.00027603709113362807 1.2163938134597048e-05 0.00027603709113362807 0.00017330600966024902 1.2645678258739505e-05 1.2163938134597048e-05 1.2645678258739505e-05 1.1240602896657337e-05" free_energy=-128.607147469153 pbc="T T T"
P        6.22335512       7.00550169       0.63938357       0.00000000 NULL      -0.01646800      -0.00243400      -0.00983900
P        3.15481774       2.71657479       5.90853066       0.00000000 NULL      -0.00183800      -0.01654500      -0.00984000
P        4.72125653       3.78760565       4.63659295       0.00000000 NULL      -0.00856600       0.00532700      -0.00073300