39
Lattice="9.81451 0.0 0.0 0.0 9.885589999999997 -8.852636716841098e-16 0.0 -4.942794999999998 8.561172071397408" Properties=species:S:1:pos:R:3:initial_magmoms:R:1:castep_labels:S:1 n_minim_iter=1 pbc="T T T"
P        2.32009717       1.83029376       6.69578086       0.00000000 NULL
P        5.59160050      -0.05922555       3.62820075       0.00000000 NULL
P        8.86310384      -1.77106820       6.79836253       0.00000000 NULL
P        7.61304572      -0.03223394       3.57864698       0.00000000 NULL
P        1.07003905      -1.82747883       6.79976399       0.00000000 NULL
P        4.34154239       1.85971278       6.74393317       0.00000000 NULL
P        6.19882685       2.80742106       1.72392983       0.00000000 NULL
P        9.47033018       5.03205150       5.26790920       0.00000000 NULL
P        2.92732352       6.98891245       1.56933304       0.00000000 NULL
P        0.32213087       2.03201861       7.03266897       0.00000000 NULL
P        3.59363420       0.13166568       3.28505785       0.00000000 NULL
P        6.86513754      -2.16368429       6.80461732       0.00000000 NULL
P        1.49061404       6.67490211       5.30180973       0.00000000 NULL
P        4.76211737       6.19684586       0.12963241       0.00000000 NULL
P        8.03362071       1.95663704       3.12972993       0.00000000 NULL
P        8.97228077      -3.81493865       6.94297100       0.00000000 NULL
P        2.42927410       2.97746359       8.39352036       0.00000000 NULL
P        5.70077744       0.83747506       1.78585278       0.00000000 NULL
P        5.73420697       8.80979907       0.18349931       0.00000000 NULL
P        9.00571030       0.69681053       0.83991262       0.00000000 NULL
P        2.46270364       5.32177540       7.53776014       0.00000000 NULL
P        6.63767678      -4.24315275       8.48589112       0.00000000 NULL
P        0.09467011       4.52777866       7.99290459       0.00000000 NULL
P        3.36617345      -0.28462591       0.64354843       0.00000000 NULL
P        7.37314082      -0.26356960       1.56271697       0.00000000 NULL
P        0.83013415      -3.45765760       8.00807156       0.00000000 NULL
P        4.10163749       3.72122721       7.55155561       0.00000000 NULL
P        1.58205583      -0.49661596       5.39280300       0.00000000 NULL
P        4.85355916      -0.02418262       6.29485261       0.00000000 NULL
P        8.12506250       0.52079859       5.43468853       0.00000000 NULL
P        6.28883278       2.03577267       6.24141720       0.00000000 NULL
P        9.56033611      -0.55545548       3.67743262       0.00000000 NULL
P        3.01732945      -1.48031718       7.20349432       0.00000000 NULL
P        8.12674405       1.73360577       7.08688259       0.00000000 NULL
P        1.58373738       0.32782248       3.51638414       0.00000000 NULL
P        4.85524072      -2.06142824       6.51907741       0.00000000 NULL
P        8.16528857       5.63453965       3.84966372       0.00000000 NULL
P        1.62228190       5.45943176       1.75668574       0.00000000 NULL
P        4.89378524       3.73441360       2.95482261       0.00000000 NULL
39
Lattice="9.95776845725162 0.0 0.0 0.0 9.979733831865786 6.246521944108362e-16 0.0 -4.989866915932893 8.642703021402792" Properties=species:S:1:pos:R:3:initial_magmoms:R:1:castep_labels:S:1 n_minim_iter=2 pbc="T T T"
P        2.35369644       1.84743378       6.75923276       0.00000000 NULL
P        5.67295259      -0.05991652       3.66316206       0.00000000 NULL
P        8.99220875      -1.78751725       6.86301122       0.00000000 NULL
P        7.72415543      -0.03258184       3.61273042       0.00000000 NULL
P        1.08564313      -1.84485967       6.86455452       0.00000000 NULL
P        4.40489928       1.87744152       6.80812111       0.00000000 NULL
P        6.28949605       2.83438471       1.74040181       0.00000000 NULL
P        9.60875220       5.07990675       5.31785296       0.00000000 NULL
P        2.97023989       7.05530930       1.58444825       0.00000000 NULL
P        0.32679950       2.05148780       7.09969342       0.00000000 NULL
P        3.64605566       0.13290405       3.31621577       0.00000000 NULL
P        6.96531181      -2.18439184       6.86949686       0.00000000 NULL
P        1.51243022       6.73825032       5.35208414       0.00000000 NULL
P        4.83168637       6.25578259       0.13116500       0.00000000 NULL
P        8.15094252       1.97556785       3.15945388       0.00000000 NULL
P        9.10279387      -3.85142120       7.00908578       0.00000000 NULL
P        2.46428157       3.00589003       8.47358873       0.00000000 NULL
P        5.78353772       0.84553117       1.80273153       0.00000000 NULL
P        5.81801481       8.89329993       0.18537562       0.00000000 NULL
P        9.13727097       0.70375695       0.84819155       0.00000000 NULL
P        2.49875866       5.37254388       7.60913585       0.00000000 NULL
P        6.73462378      -4.28313544       8.56611050       0.00000000 NULL
P        0.09611148       4.57017011       8.06895188       0.00000000 NULL
P        3.41536763      -0.28703466       0.65034367       0.00000000 NULL
P        7.48092626      -0.26665933       1.57757228       0.00000000 NULL
P        0.84241396      -3.49031958       8.08485063       0.00000000 NULL
P        4.16167011       3.75697891       7.62298313       0.00000000 NULL
P        1.60528978      -0.50106466       5.44415350       0.00000000 NULL
P        4.92454593      -0.02455935       6.35456100       0.00000000 NULL
P        8.24380208       0.52562402       5.48669154       0.00000000 NULL
P        6.38078221       2.05529987       6.30058014       0.00000000 NULL
P        9.70003836      -0.56105439       3.71247105       0.00000000 NULL
P        3.06152606      -1.49424547       7.27235485       0.00000000 NULL
P        8.24533250       1.75016202       7.15469180       0.00000000 NULL
P        1.60682019       0.33119693       3.54967235       0.00000000 NULL
P        4.92607634      -2.08135894       6.58104189       0.00000000 NULL
P        8.28440356       5.68824399       3.88625755       0.00000000 NULL
P        1.64589125       5.51134269       1.77341045       0.00000000 NULL
P        4.96514741       3.77001408       2.98303502       0.00000000 NULL
39
Lattice="10.734568313884056 0.0 0.0 0.0 10.484758280777518 4.1429525335752737e-16 0.0 -5.242379140388759 9.080067023692587" Properties=species:S:1:pos:R:3:initial_magmoms:R:1:castep_labels:S:1 n_minim_iter=3 pbc="T T T"
P        2.53566900       1.93923193       7.09950563       0.00000000 NULL
P        6.11385844      -0.06364287       3.85089009       0.00000000 NULL
P        9.69204787      -1.87558905       7.20973832       0.00000000 NULL
P        8.32670045      -0.03436492       3.79555397       0.00000000 NULL
P        1.17032157      -1.93815051       7.21205093       0.00000000 NULL
P        4.74851101       1.97251544       7.15252914       0.00000000 NULL
P        6.78121097       2.97914644       1.82896760       0.00000000 NULL
P       10.35940040       5.33673833       5.58556672       0.00000000 NULL
P        3.20302153       7.41125266       1.66553269       0.00000000 NULL
P        0.35208582       2.15602231       7.45923430       0.00000000 NULL
P        3.93027525       0.13949610       3.48327979       0.00000000 NULL
P        7.50846469      -2.29551840       7.21761996       0.00000000 NULL
P        1.63070625       7.07801988       5.62173426       0.00000000 NULL
P        5.20889569       6.57193388       0.13945487       0.00000000 NULL
P        8.78708512       2.07718366       3.31887790       0.00000000 NULL
P        9.81023551      -4.04722364       7.36376427       0.00000000 NULL
P        2.65385664       3.15843961       8.90318337       0.00000000 NULL
P        6.23204608       0.88878404       1.89318640       0.00000000 NULL
P        6.27257974       9.34103503       0.19548696       0.00000000 NULL
P        9.85076918       0.74115831       0.89274991       0.00000000 NULL
P        2.69439030       5.64494409       7.99183015       0.00000000 NULL
P        7.26021202      -4.49749104       8.99609312       0.00000000 NULL
P        0.10383315       4.79721156       8.47696196       0.00000000 NULL
P        3.68202258      -0.29972051       0.68707897       0.00000000 NULL
P        8.06544205      -0.28345968       1.65714675       0.00000000 NULL
P        0.90906318      -3.66551811       8.49697694       0.00000000 NULL
P        4.48725262       3.94897780       8.00601036       0.00000000 NULL
P        1.73138221      -0.52479621       5.71959605       0.00000000 NULL
P        5.30957165      -0.02666556       6.67475585       0.00000000 NULL
P        8.88776109       0.55146177       5.76578215       0.00000000 NULL
P        6.87943032       2.16003822       6.61786153       0.00000000 NULL
P       10.45761975      -0.59116204       3.90048828       0.00000000 NULL
P        3.30124088      -1.56887617       7.64178423       0.00000000 NULL
P        8.88835106       1.83897602       7.51853411       0.00000000 NULL
P        1.73197218       0.34937440       3.72820002       0.00000000 NULL
P        5.31016162      -2.18835041       6.91339991       0.00000000 NULL
P        8.93039882       5.97630958       4.08268064       0.00000000 NULL
P        1.77401995       5.78992951       1.86309079       0.00000000 NULL
P        5.35220938       3.96089835       3.13429559       0.00000000 NULL
39
Lattice="10.954331476596293 0.0 0.0 0.0 10.60304139630112 7.095597699396164e-16 0.0 -5.30152069815056 9.182503206574795" Properties=species:S:1:pos:R:3:initial_magmoms:R:1:castep_labels:S:1 n_minim_iter=4 pbc="T T T"
P        2.58649335       1.96007696       7.17867515       0.00000000 NULL
P        6.23793718      -0.06464413       3.89568919       0.00000000 NULL
P        9.88938100      -1.89543283       7.29064207       0.00000000 NULL
P        8.49755977      -0.03400334       3.83847368       0.00000000 NULL
P        1.19467212      -1.96030331       7.29271412       0.00000000 NULL
P        4.84611594       1.99430665       7.23381861       0.00000000 NULL
P        6.92050364       3.01342136       1.85087955       0.00000000 NULL
P       10.57194747       5.39771874       5.64736398       0.00000000 NULL
P        3.26905982       7.49342201       1.68425967       0.00000000 NULL
P        0.35904926       2.18112034       7.54356067       0.00000000 NULL
P        4.01049309       0.14083431       3.52181725       0.00000000 NULL
P        7.66193691      -2.32195465       7.29962849       0.00000000 NULL
P        1.66360389       7.15736160       5.68486492       0.00000000 NULL
P        5.31504772       6.64607734       0.14161378       0.00000000 NULL
P        8.96649154       2.10112316       3.35602450       0.00000000 NULL
P       10.00967061      -4.09352138       7.44680513       0.00000000 NULL
P        2.70678296       3.19436242       9.00419414       0.00000000 NULL
P        6.35822678       0.89915897       1.91400713       0.00000000 NULL
P        6.40149244       9.44513103       0.19810471       0.00000000 NULL
P       10.05293627       0.75051890       0.90372744       0.00000000 NULL
P        2.75004861       5.70891217       8.08067105       0.00000000 NULL
P        7.40852995      -4.54720912       9.09529015       0.00000000 NULL
P        0.10564230       4.84883619       8.57285674       0.00000000 NULL
P        3.75708612      -0.30162706       0.69685952       0.00000000 NULL
P        8.23112562      -0.28833025       1.67516536       0.00000000 NULL
P        0.92823797      -3.70661981       8.59462184       0.00000000 NULL
P        4.57968179       3.99495006       8.09521920       0.00000000 NULL
P        1.76762441      -0.52968100       5.78400931       0.00000000 NULL
P        5.41906823      -0.02758120       6.74921575       0.00000000 NULL
P        9.07051206       0.55726220       5.83178135       0.00000000 NULL
P        7.02069255       2.18431569       6.69146853       0.00000000 NULL
P       10.67213638      -0.59869680       3.94509606       0.00000000 NULL
P        3.36924873      -1.58561888       7.72844182       0.00000000 NULL
P        9.07000479       1.85963273       7.60408760       0.00000000 NULL
P        1.76711714       0.35399598       3.76997022       0.00000000 NULL
P        5.41856097      -2.21362870       6.99094858       0.00000000 NULL
P        9.11394188       6.04366447       4.12951497       0.00000000 NULL
P        1.81105423       5.85595334       1.88377876       0.00000000 NULL
P        5.46249806       4.00494429       3.16920947       0.00000000 NULL
39
Lattice="11.097304721074073 0.0 3.789331633577887e-41 2.554201261986902e-57 10.638226977077567 1.65870734027599e-15 3.305424330980328e-41 -5.319113488538784 9.212974813374109" Properties=species:S:1:pos:R:3:initial_magmoms:R:1:castep_labels:S:1 n_minim_iter=5 pbc="T T T"
P        2.61897130       1.96532080       7.20149969       0.00000000 NULL
P        6.31807287      -0.06509221       3.91020723       0.00000000 NULL
P       10.01717445      -1.90022858       7.31424270       0.00000000 NULL
P        8.60915825      -0.03273920       3.85138783       0.00000000 NULL
P        1.21095511      -1.96734418       7.31563387       0.00000000 NULL
P        4.91005668       2.00008339       7.25892792       0.00000000 NULL
P        7.01129121       3.02409070       1.85909568       0.00000000 NULL
P       10.71039278       5.41709224       5.66448761       0.00000000 NULL
P        3.31218963       7.51615754       1.68939152       0.00000000 NULL
P        0.36336234       2.18946815       7.56886721       0.00000000 NULL
P        4.06246391       0.14098372       3.53240617       0.00000000 NULL
P        7.76156549      -2.33045187       7.32467624       0.00000000 NULL
P        1.68427630       7.18062813       5.70361264       0.00000000 NULL
P        5.38337787       6.66827287       0.14256212       0.00000000 NULL
P        9.08247944       2.10843948       3.36680005       0.00000000 NULL
P       10.13879586      -4.10802857       7.47154493       0.00000000 NULL
P        2.74059271       3.20544852       9.03485945       0.00000000 NULL
P        6.43969429       0.90258006       1.91954524       0.00000000 NULL
P        6.48559447       9.47504447       0.19927027       0.00000000 NULL
P       10.18469604       0.75416437       0.90771047       0.00000000 NULL
P        2.78649289       5.72813164       8.10599407       0.00000000 NULL
P        7.50460537      -4.56135161       9.12275834       0.00000000 NULL
P        0.10640223       4.86210280       8.60184202       0.00000000 NULL
P        3.80550380      -0.30075118       0.70134926       0.00000000 NULL
P        8.33916036      -0.29107603       1.67950137       0.00000000 NULL
P        0.94095721      -3.71908462       8.62530336       0.00000000 NULL
P        4.64005879       4.01016066       8.12114489       0.00000000 NULL
P        1.79180023      -0.53017221       5.80296463       0.00000000 NULL
P        5.49090180      -0.02851259       6.77063510       0.00000000 NULL
P        9.19000337       0.55868481       5.85234989       0.00000000 NULL
P        7.11290695       2.19115642       6.71230853       0.00000000 NULL
P       10.81200853      -0.60166199       3.95922342       0.00000000 NULL
P        3.41380538      -1.58949442       7.75441767       0.00000000 NULL
P        9.18784525       1.86549540       7.62994011       0.00000000 NULL
P        1.78964211       0.35586078       3.78243835       0.00000000 NULL
P        5.48874368      -2.22135617       7.01357117       0.00000000 NULL
P        9.23426927       6.06352729       4.14466510       0.00000000 NULL
P        1.83606612       5.87673512       1.88947359       0.00000000 NULL
P        5.53516770       4.01707806       3.17883612       0.00000000 NULL
39
Lattice="11.144143761591128 4.032215732419747e-44 1.324294957457631e-41 3.8654094178875216e-44 10.611152252501746 -4.618608763591801e-16 6.285257216442349e-41 -5.305576126250872 9.189527414090982" Properties=species:S:1:pos:R:3:initial_magmoms:R:1:castep_labels:S:1 n_minim_iter=6 pbc="T T T"
P        2.62880693       1.95905874       7.18224916       0.00000000 NULL
P        6.34352152      -0.06509527       3.90180820       0.00000000 NULL
P       10.05823610      -1.89396347       7.29499747       0.00000000 NULL
P        8.64625539      -0.03110575       3.84179144       0.00000000 NULL
P        1.21682622      -1.96293426       7.29557007       0.00000000 NULL
P        4.93154080       1.99404002       7.24169332       0.00000000 NULL
P        7.04126854       3.01701279       1.85669378       0.00000000 NULL
P       10.75598313       5.40501371       5.64837081       0.00000000 NULL
P        3.32655395       7.49470189       1.68446283       0.00000000 NULL
P        0.36448795       2.18506104       7.54990936       0.00000000 NULL
P        4.07920254       0.14030666       3.52225436       0.00000000 NULL
P        7.79391713      -2.32536769       7.30689110       0.00000000 NULL
P        1.69010070       7.16195311       5.68909482       0.00000000 NULL
P        5.40481529       6.65150021       0.14254667       0.00000000 NULL
P        9.11952988       2.10327506       3.35788592       0.00000000 NULL
P       10.18024869      -4.09852330       7.45265705       0.00000000 NULL
P        2.75081952       3.19787586       9.01262419       0.00000000 NULL
P        6.46553411       0.90064745       1.91377359       0.00000000 NULL
P        6.51346729       9.44960559       0.19926748       0.00000000 NULL
P       10.22818188       0.75334403       0.90629518       0.00000000 NULL
P        2.79875270       5.71377876       8.08396476       0.00000000 NULL
P        7.53554890      -4.54896616       9.09691637       0.00000000 NULL
P        0.10611972       4.84706764       8.58058949       0.00000000 NULL
P        3.82083431      -0.29810146       0.70154896       0.00000000 NULL
P        8.37491580      -0.29192807       1.67371790       0.00000000 NULL
P        0.94548663      -3.71012986       8.60548559       0.00000000 NULL
P        4.66020122       4.00205794       8.09985133       0.00000000 NULL
P        1.80056833      -0.52754728       5.78790745       0.00000000 NULL
P        5.51528292      -0.02932759       6.75244303       0.00000000 NULL
P        9.22999751       0.55687488       5.83870434       0.00000000 NULL
P        7.14351308       2.18499621       6.69389649       0.00000000 NULL
P       10.85822767      -0.60098981       3.95031694       0.00000000 NULL
P        3.42879849      -1.58400639       7.73484139       0.00000000 NULL
P        9.22595790       1.86040105       7.61097324       0.00000000 NULL
P        1.79652873       0.35551953       3.77288622       0.00000000 NULL
P        5.51124332      -2.21592057       6.99519536       0.00000000 NULL
P        9.27490456       6.04784446       4.13582216       0.00000000 NULL
P        1.84547539       5.86338096       1.88402940       0.00000000 NULL
P        5.56018998       4.00550297       3.16967585       0.00000000 NULL
39
Lattice="11.233861623515704 2.146250119692042e-43 -2.1915472056741478e-41 2.051563904481936e-43 10.549066415376897 7.003132719262205e-16 7.715440732364962e-41 -5.274533207688449 9.135759501925639" Properties=species:S:1:pos:R:3:initial_magmoms:R:1:castep_labels:S:1 n_minim_iter=7 pbc="T T T"
P        2.64631400       1.94373441       7.13736167       0.00000000 NULL
P        6.39093454      -0.06526388       3.88375529       0.00000000 NULL
P       10.13555508      -1.87847052       7.25040204       0.00000000 NULL
P        8.71802245      -0.02647852       3.81995481       0.00000000 NULL
P        1.22878137      -1.95311603       7.24871316       0.00000000 NULL
P        4.97340191       1.97959456       7.20285102       0.00000000 NULL
P        7.09918373       3.00141647       1.85291995       0.00000000 NULL
P       10.84380427       5.37850072       5.60999662       0.00000000 NULL
P        3.35456319       7.44368244       1.67284293       0.00000000 NULL
P        0.36617763       2.17582327       7.50666899       0.00000000 NULL
P        4.11079817       0.13852121       3.49810678       0.00000000 NULL
P        7.85541871      -2.31434447       7.26674323       0.00000000 NULL
P        1.69976333       7.11877973       5.65569761       0.00000000 NULL
P        5.44438387       6.61312116       0.14286660       0.00000000 NULL
P        9.18900441       2.09169874       3.33719528       0.00000000 NULL
P       10.25812343      -4.07743532       7.40970607       0.00000000 NULL
P        2.76888235       3.18117815       8.96206904       0.00000000 NULL
P        6.51350289       0.89625718       1.89974389       0.00000000 NULL
P        6.56737666       9.39027988       0.19962090       0.00000000 NULL
P       10.31199721       0.75227004       0.90372813       0.00000000 NULL
P        2.82275612       5.68104971       8.03241047       0.00000000 NULL
P        7.59401668      -4.51993141       9.03555652       0.00000000 NULL
P        0.10477560       4.81045399       8.53235667       0.00000000 NULL
P        3.84939614      -0.29052257       0.70360581       0.00000000 NULL
P        8.44398258      -0.29500196       1.65900712       0.00000000 NULL
P        0.95474150      -3.69028991       8.56173513       0.00000000 NULL
P        4.69936204       3.98529188       8.05077675       0.00000000 NULL
P        1.81896990      -0.52049731       5.75315792       0.00000000 NULL
P        5.56359044      -0.03190364       6.70994443       0.00000000 NULL
P        9.30821098       0.55240095       5.80841665       0.00000000 NULL
P        7.20272135       2.17037301       6.65085041       0.00000000 NULL
P       10.94734189      -0.59991429       3.93073613       0.00000000 NULL
P        3.45810081      -1.57045871       7.68993246       0.00000000 NULL
P        9.29809897       1.84864743       7.56786399       0.00000000 NULL
P        1.80885789       0.35510555       3.75085187       0.00000000 NULL
P        5.55347843      -2.20375297       6.95280314       0.00000000 NULL
P        9.35472887       6.01171927       4.11677566       0.00000000 NULL
P        1.86548779       5.83390588       1.87107006       0.00000000 NULL
P        5.61010833       3.97797448       3.14791378       0.00000000 NULL
39
Lattice="11.2257558322224 2.445444982705098e-43 3.453165471226325e-42 2.3327147357079113e-43 10.540301080466822 6.773979875587134e-16 3.9068770681359534e-41 -5.270150540233411 9.128168499220836" Properties=species:S:1:pos:R:3:initial_magmoms:R:1:castep_labels:S:1 n_minim_iter=8 pbc="T T T"
P        2.64044999       1.93773092       7.12807277       0.00000000 NULL
P        6.38236860      -0.06592389       3.88600791       0.00000000 NULL
P       10.12428721      -1.87180701       7.24225631       0.00000000 NULL
P        8.71363328      -0.02220471       3.81748182       0.00000000 NULL
P        1.22979605      -1.95301194       7.23865743       0.00000000 NULL
P        4.97171466       1.97521666       7.20019774       0.00000000 NULL
P        7.09568722       3.00163088       1.85931985       0.00000000 NULL
P       10.83760583       5.37955333       5.59901998       0.00000000 NULL
P        3.35376860       7.42926742       1.66982867       0.00000000 NULL
P        0.36456356       2.17805384       7.50150752       0.00000000 NULL
P        4.10648217       0.13731862       3.49116478       0.00000000 NULL
P        7.84840078      -2.31537245       7.26366469       0.00000000 NULL
P        1.69419042       7.11116649       5.65049395       0.00000000 NULL
P        5.43610903       6.60803860       0.14447070       0.00000000 NULL
P        9.17802764       2.09124654       3.33320385       0.00000000 NULL
P       10.24624445      -4.07724655       7.40493496       0.00000000 NULL
P        2.76240723       3.18133453       8.95670011       0.00000000 NULL
P        6.50432584       0.89591203       1.89470192       0.00000000 NULL
P        6.56415738       9.37791697       0.20111781       0.00000000 NULL
P       10.30607599       0.75536520       0.90609527       0.00000000 NULL
P        2.82223877       5.67716946       8.02095542       0.00000000 NULL
P        7.58622376      -4.51331194       9.01855268       0.00000000 NULL
P        0.10238654       4.79680116       8.52753495       0.00000000 NULL
P        3.84430515      -0.28348922       0.71024936       0.00000000 NULL
P        8.43950784      -0.30000913       1.65137936       0.00000000 NULL
P        0.95567062      -3.69000949       8.56229435       0.00000000 NULL
P        4.69758923       3.99001863       8.04266328       0.00000000 NULL
P        1.82257140      -0.51532452       5.74746728       0.00000000 NULL
P        5.56449001      -0.03503560       6.70071899       0.00000000 NULL
P        9.30640862       0.55036013       5.80815073       0.00000000 NULL
P        7.19919472       2.16640385       6.64127491       0.00000000 NULL
P       10.94111333      -0.60183967       3.93137027       0.00000000 NULL
P        3.45727611      -1.56456417       7.68369181       0.00000000 NULL
P        9.28879656       1.84662505       7.56340045       0.00000000 NULL
P        1.80495934       0.35663387       3.74724407       0.00000000 NULL
P        5.54687795      -2.20325891       6.94569247       0.00000000 NULL
P        9.35376479       6.00600272       4.11897195       0.00000000 NULL
P        1.86992757       5.83428353       1.86733159       0.00000000 NULL
P        5.61184618       3.97016538       3.14186495       0.00000000 NULL
39
Lattice="11.211563320051638 4.786459219091123e-43 3.1707383561497113e-41 4.557861276212665e-43 10.402467698764656 -2.220508686296677e-15 -1.715866095112389e-42 -5.201233849382326 9.008801289177246" Properties=species:S:1:pos:R:3:initial_magmoms:R:1:castep_labels:S:1 n_minim_iter=9 pbc="T T T"
P        2.61405194       1.88827349       7.01668107       0.00000000 NULL
P        6.35123971      -0.06874653       3.86516794       0.00000000 NULL
P       10.08842749      -1.81952695       7.13575356       0.00000000 NULL
P        8.71269319       0.00129530       3.77032825       0.00000000 NULL
P        1.23831764      -1.93668145       7.12251540       0.00000000 NULL
P        4.97550541       1.93538616       7.12475893       0.00000000 NULL
P        7.09835496       2.97618013       1.87905935       0.00000000 NULL
P       10.83554273       5.34045692       5.49182402       0.00000000 NULL
P        3.36116719       7.28706451       1.63791792       0.00000000 NULL
P        0.35657251       2.17327870       7.40976438       0.00000000 NULL
P        4.09376029       0.12917100       3.42180454       0.00000000 NULL
P        7.83094806      -2.30244969       7.18603365       0.00000000 NULL
P        1.66723463       7.00677949       5.57246261       0.00000000 NULL
P        5.40442241       6.52373830       0.15452095       0.00000000 NULL
P        9.14161018       2.07318377       3.28181772       0.00000000 NULL
P       10.20909059      -4.04126822       7.31696971       0.00000000 NULL
P        2.73471504       3.15608191       8.85015737       0.00000000 NULL
P        6.47190281       0.88518631       1.85047549       0.00000000 NULL
P        6.56472766       9.23019379       0.20744572       0.00000000 NULL
P       10.30191543       0.76579022       0.91149612       0.00000000 NULL
P        2.82753989       5.60771754       7.88985944       0.00000000 NULL
P        7.56308272      -4.43920151       8.84859195       0.00000000 NULL
P        0.08870717       4.68147233       8.42896660       0.00000000 NULL
P        3.82589495      -0.24227081       0.74004403       0.00000000 NULL
P        8.43664702      -0.32427408       1.59522232       0.00000000 NULL
P        0.96227148      -3.65759375       8.49201972       0.00000000 NULL
P        4.69945925       3.98186784       7.93036053       0.00000000 NULL
P        1.84928760      -0.48096752       5.66845735       0.00000000 NULL
P        5.58647538      -0.05172202       6.59110270       0.00000000 NULL
P        9.32366315       0.53268955       5.75804252       0.00000000 NULL
P        7.19942158       2.12601304       6.53102139       0.00000000 NULL
P       10.93660935      -0.60820993       3.90210929       0.00000000 NULL
P        3.46223380      -1.51780311       7.58447189       0.00000000 NULL
P        9.26170383       1.82007887       7.47569922       0.00000000 NULL
P        1.78732828       0.36287215       3.69471714       0.00000000 NULL
P        5.52451606      -2.18295102       6.84718622       0.00000000 NULL
P        9.37369899       5.92419053       4.09554950       0.00000000 NULL
P        1.89932344       5.78598850       1.83052705       0.00000000 NULL
P        5.63651122       3.89352253       3.08272474       0.00000000 NULL
39
Lattice="11.564392371904628 5.091517838094077e-43 1.727125493759273e-41 4.864090476806283e-43 10.684137335620914 8.834910188600352e-16 -1.1607339072477095e-41 -5.342068667810457 9.252734350169499" Properties=species:S:1:pos:R:3:initial_magmoms:R:1:castep_labels:S:1 n_minim_iter=10 pbc="T T T"
P        2.68775280       1.93212519       7.20084866       0.00000000 NULL
P        6.54255026      -0.07201339       3.97904052       0.00000000 NULL
P       10.39734771      -1.86011180       7.32557952       0.00000000 NULL
P        8.98726332       0.00442499       3.87184242       0.00000000 NULL
P        1.27766840      -1.99116726       7.31298099       0.00000000 NULL
P        5.13246586       1.98674228       7.32064529       0.00000000 NULL
P        7.33185509       3.05921489       1.94122710       0.00000000 NULL
P       11.18665255       5.49361321       5.63276298       0.00000000 NULL
P        3.47705763       7.47337791       1.67874426       0.00000000 NULL