33
Lattice="8.576099999999997 -1.4504904837786908e-15 0.0 -4.288049999999998 7.427120465395723 0.0 0.0 0.0 11.866349999999999" Properties=species:S:1:pos:R:3:initial_magmoms:R:1:castep_labels:S:1 n_minim_iter=1 pbc="T T T"
P        1.16201953       0.84030887       7.44806647       0.00000000 NULL
P        4.43476906       6.00062760      11.40351647       0.00000000 NULL
P        7.26736141       0.58618400       3.49261647       0.00000000 NULL
P        2.11734304       1.93810263       8.90611693       0.00000000 NULL
P        4.90782459       4.62439629       0.99521693       0.00000000 NULL
P        5.83898237       0.86462155       4.95066693       0.00000000 NULL
P        4.83014014       2.08087862       3.66510257       0.00000000 NULL
P        3.67507368       2.20365709       7.62055257       0.00000000 NULL
P        4.35893619       3.14258476      11.57600257       0.00000000 NULL
P        7.23439188       2.15016400       6.91725497       0.00000000 NULL
P        2.53295071       0.08687132      10.87270497       0.00000000 NULL
P        3.09680742       5.19008515       2.96180497       0.00000000 NULL
P        1.28007640       6.52573393       6.52393411       0.00000000 NULL
P        0.72336316       3.05567482      10.47938411       0.00000000 NULL
P       -2.00343956       5.27283218       2.56848411       0.00000000 NULL
P       -3.26824708       5.76829093       4.04769861       0.00000000 NULL
P        2.34156002       7.37336000       8.00314861       0.00000000 NULL
P        0.92668706       1.71259001       0.09224861       0.00000000 NULL
P        2.21309519       0.42172081       0.97036958       0.00000000 NULL
P        3.54672334       5.29966341       4.92581958       0.00000000 NULL
P        7.10433147       1.70573625       8.88126958       0.00000000 NULL
P        7.83572529       0.88862377       5.47462838       0.00000000 NULL
P        1.13975811       0.19687143       9.43007838       0.00000000 NULL
P        3.88866660       6.34162528       1.51917838       0.00000000 NULL
P       -1.06946111       3.70373267       5.61696169       0.00000000 NULL
P       -0.54579286       6.50143462       9.57241169       0.00000000 NULL
P        1.61525398       4.64907364       1.66151169       0.00000000 NULL
P        3.00051453       4.24304336       6.74035379       0.00000000 NULL
P        6.46237607       2.70707698      10.69580379       0.00000000 NULL
P        3.40125940       0.47700013       2.78490379       0.00000000 NULL
P        4.54122891       3.86606650       9.67426730       0.00000000 NULL
P        5.36554735       1.56126762       1.76336730       0.00000000 NULL
P        2.95737375       1.99978635       5.71881730       0.00000000 NULL
33
Lattice="8.608060471600778 -1.2292212281028034e-15 1.1562973109650666e-60 -4.304030235800389 7.454799045718929 1.0748117714765963e-43 -5.346782344142319e-59 -2.9962601745643906e-43 11.956435582862031" Properties=species:S:1:pos:R:3:initial_magmoms:R:1:castep_labels:S:1 n_minim_iter=2 pbc="T T T"
P        1.16628339       0.84338916       7.50432873       0.00000000 NULL
P        4.45128498       6.02307342      11.48980725       0.00000000 NULL
P        7.29452234       0.58833647       3.51885020       0.00000000 NULL
P        2.12513655       1.94568484       8.97388576       0.00000000 NULL
P        4.92647446       4.64153439       1.00292870       0.00000000 NULL
P        5.86047970       0.86757982       4.98840723       0.00000000 NULL
P        4.84786795       2.08897058       3.69294442       0.00000000 NULL
P        3.68919785       2.21193696       7.67842295       0.00000000 NULL
P        4.37502491       3.15389151      11.66390147       0.00000000 NULL
P        7.26128782       2.15847881       6.96983200       0.00000000 NULL
P        2.54268381       0.08709992      10.95531053       0.00000000 NULL
P        3.10811908       5.20922031       2.98435347       0.00000000 NULL
P        1.28468692       6.54994066       6.57326728       0.00000000 NULL
P        0.72604131       3.06725721      10.55874580       0.00000000 NULL
P       -2.01072823       5.29240023       2.58778875       0.00000000 NULL
P       -3.28029431       5.78992925       4.07857970       0.00000000 NULL
P        2.35034274       7.40065263       8.06405823       0.00000000 NULL
P        0.92995158       1.71901622       0.09310118       0.00000000 NULL
P        2.22141549       0.42314994       0.97804272       0.00000000 NULL
P        3.55978109       5.31942183       4.96352125       0.00000000 NULL
P        7.13089413       1.71222728       8.94899978       0.00000000 NULL
P        7.86533198       0.89175401       5.51613520       0.00000000 NULL
P        1.14364587       0.19734474       9.50161373       0.00000000 NULL
P        3.90311286       6.36570030       1.53065667       0.00000000 NULL
P       -1.07341215       3.71766508       5.65958059       0.00000000 NULL
P       -0.54773176       6.52556870       9.64505912       0.00000000 NULL
P        1.62114391       4.66636432       1.67410206       0.00000000 NULL
P        3.01163058       4.25876481       6.79150159       0.00000000 NULL
P        6.48641346       2.71726806      10.77698012       0.00000000 NULL
P        3.41404667       0.47876618       2.80602307       0.00000000 NULL
P        4.55826504       3.88056632       9.74759183       0.00000000 NULL
P        5.38556673       1.56694257       1.77663478       0.00000000 NULL
P        2.96825894       2.00729017       5.76211331       0.00000000 NULL
33
Lattice="8.835748923957293 -3.5047127919896457e-16 -5.608979070742533e-45 -4.417874461978648 7.651983029608036 -2.3927393722887067e-44 -7.790767405295095e-45 -1.2731251271272443e-42 12.613670911549757" Properties=species:S:1:pos:R:3:initial_magmoms:R:1:castep_labels:S:1 n_minim_iter=3 pbc="T T T"
P        1.19665447       0.86534831       7.91469372       0.00000000 NULL
P        4.56896085       6.18297570      12.11925069       0.00000000 NULL
P        7.48800807       0.60365902       3.71013675       0.00000000 NULL
P        2.18050064       1.99993492       9.46837492       0.00000000 NULL
P        5.05961859       4.76364663       1.05926098       0.00000000 NULL
P        6.01350416       0.88840149       5.26381795       0.00000000 NULL
P        4.97397137       2.14681705       3.89598139       0.00000000 NULL
P        3.79008688       2.27098894       8.10053836       0.00000000 NULL
P        4.48956514       3.23417704      12.30509533       0.00000000 NULL
P        7.45286499       2.21792361       7.35350246       0.00000000 NULL
P        2.61222016       0.08865082      11.55805943       0.00000000 NULL
P        3.18853825       5.34540861       3.14894549       0.00000000 NULL
P        1.31750496       6.72237815       6.93306229       0.00000000 NULL
P        0.74512331       3.14980119      11.13761926       0.00000000 NULL
P       -2.06262827       5.43178672       2.72850532       0.00000000 NULL
P       -3.36601130       5.94415300       4.30392585       0.00000000 NULL
P        2.41291869       7.59495783       8.50848282       0.00000000 NULL
P        0.95309262       1.76485524       0.09936888       0.00000000 NULL
P        2.28074602       0.43320330       1.03419218       0.00000000 NULL
P        3.65266651       5.46019739       5.23874915       0.00000000 NULL
P        7.32021086       1.75858235       9.44330612       0.00000000 NULL
P        8.07647446       0.91393713       5.81887417       0.00000000 NULL
P        1.17113000       0.20058241      10.02343114       0.00000000 NULL
P        4.00601893       6.53746350       1.61431720       0.00000000 NULL
P       -1.10152561       3.81691790       5.97057195       0.00000000 NULL
P       -0.56156379       6.69747324      10.17512892       0.00000000 NULL
P        1.66308940       4.78957492       1.76601498       0.00000000 NULL
P        3.09076908       4.37063745       7.16455777       0.00000000 NULL
P        6.65757298       2.78997977      11.36911474       0.00000000 NULL
P        3.50528133       0.49136582       2.96000080       0.00000000 NULL
P        4.67976302       3.98389102      10.28261623       0.00000000 NULL
P        5.52814378       1.60724387       1.87350229       0.00000000 NULL
P        3.04571659       2.06084815       6.07805926       0.00000000 NULL
33
Lattice="8.8573344748891 -9.579038436122867e-16 -1.6726952688072373e-44 -4.42866723744455 7.670676665069664 -1.5331989244685064e-43 -2.359687512871662e-44 -5.522502816262943e-43 12.746998046542934" Properties=species:S:1:pos:R:3:initial_magmoms:R:1:castep_labels:S:1 n_minim_iter=4 pbc="T T T"
P        1.19955540       0.86765801       7.99751673       0.00000000 NULL
P        4.58030342       6.19800221      12.24651608       0.00000000 NULL
P        7.50614290       0.60501645       3.74851738       0.00000000 NULL
P        2.18456941       2.00667893       9.56897031       0.00000000 NULL
P        5.07421746       4.77544460       1.07097162       0.00000000 NULL
P        6.02721485       0.88855315       5.31997097       0.00000000 NULL
P        4.98454610       2.15358552       3.93651823       0.00000000 NULL
P        3.80145396       2.27714036       8.18551758       0.00000000 NULL
P        4.50000166       3.23995079      12.43451693       0.00000000 NULL
P        7.47082410       2.22496624       7.43167353       0.00000000 NULL
P        2.62013247       0.08827009      11.68067288       0.00000000 NULL
P        3.19504514       5.35744034       3.18267419       0.00000000 NULL
P        1.32042006       6.73863219       7.00542007       0.00000000 NULL
P        0.74694940       3.15784326      11.25441941       0.00000000 NULL
P       -2.06736945       5.44487788       2.75642072       0.00000000 NULL
P       -3.37335487       5.95924016       4.34982384       0.00000000 NULL
P        2.41886356       7.61246761       8.59882319       0.00000000 NULL
P        0.95449132       1.76964557       0.10082449       0.00000000 NULL
P        2.28676370       0.43332258       1.04641549       0.00000000 NULL
P        3.66055376       5.47361992       5.29541484       0.00000000 NULL
P        7.33868426       1.76373416       9.54441419       0.00000000 NULL
P        8.09809265       0.91531880       5.87985737       0.00000000 NULL
P        1.17231024       0.19986331      10.12885672       0.00000000 NULL
P        4.01559882       6.55549456       1.63085802       0.00000000 NULL
P       -1.10392830       3.82626258       6.03407619       0.00000000 NULL
P       -0.56306249       6.71357533      10.28307554       0.00000000 NULL
P        1.66699079       4.80151543       1.78507684       0.00000000 NULL
P        3.09785169       4.38016098       7.23947336       0.00000000 NULL
P        6.67307207       2.79777792      11.48847271       0.00000000 NULL
P        3.51507795       0.49273777       2.99047401       0.00000000 NULL
P        4.69230971       3.99376083      10.39199488       0.00000000 NULL
P        5.54121072       1.61013684       1.89399618       0.00000000 NULL
P        3.05248129       2.06677900       6.14299553       0.00000000 NULL
33
Lattice="8.842298516870125 8.253201050397646e-16 -1.9169442475201734e-44 -4.421149258435064 7.657655143454994 2.926104580969547e-43 -2.697191807073657e-44 -2.2898929284450433e-42 12.799950113387318" Properties=species:S:1:pos:R:3:initial_magmoms:R:1:castep_labels:S:1 n_minim_iter=5 pbc="T T T"
P        1.19759279       0.86653459       8.03000570       0.00000000 NULL
P        4.57279383       6.18724207      12.29665574       0.00000000 NULL
P        7.49306116       0.60387849       3.76335567       0.00000000 NULL
P        2.17931082       2.00531678       9.60919313       0.00000000 NULL
P        5.06814912       4.76765822       1.07589305       0.00000000 NULL
P        6.01598784       0.88468015       5.34254309       0.00000000 NULL
P        4.97431903       2.15152226       3.95195701       0.00000000 NULL
P        3.79726268       2.27400737       8.21860705       0.00000000 NULL
P        4.49186607       3.23212551      12.48525708       0.00000000 NULL
P        7.45790879       2.22292524       7.46304913       0.00000000 NULL
P        2.61730459       0.08745405      11.72969917       0.00000000 NULL
P        3.18823439       5.34727585       3.19639909       0.00000000 NULL
P        1.31796124       6.72708955       7.03352849       0.00000000 NULL
P        0.74570056       3.15272246      11.30017853       0.00000000 NULL
P       -2.06366180       5.43549829       2.76687845       0.00000000 NULL
P       -3.36661643       5.94968006       4.36821849       0.00000000 NULL
P        2.41473303       7.59839047       8.63486853       0.00000000 NULL
P        0.95188340       1.76723976       0.10156845       0.00000000 NULL
P        2.28339084       0.43150767       1.05209070       0.00000000 NULL
P        3.65315044       5.46442684       5.31874074       0.00000000 NULL
P        7.32690650       1.76172064       9.58539078       0.00000000 NULL
P        8.08636691       0.91290845       5.90365562       0.00000000 NULL
P        1.16856771       0.19820176      10.17030566       0.00000000 NULL
P        4.00851316       6.54654495       1.63700558       0.00000000 NULL
P       -1.10169554       3.81964243       6.05969114       0.00000000 NULL
P       -0.56239411       6.70193026      10.32634118       0.00000000 NULL
P        1.66408965       4.79373760       1.79304110       0.00000000 NULL
P        3.09204325       4.37123319       7.26847189       0.00000000 NULL
P        6.66072662       2.79425055      11.53512193       0.00000000 NULL
P        3.51067791       0.49217142       3.00182185       0.00000000 NULL
P        4.68571610       3.98702458      10.43632721       0.00000000 NULL
P        5.53115578       1.60619369       1.90302713       0.00000000 NULL
P        3.04657590       2.06443689       6.16967717       0.00000000 NULL
33
Lattice="8.81169620246194 -8.868771895606183e-16 -2.320108454466245e-44 -4.40584810123097 7.631152761762908 -1.8537634624766995e-43 -3.263610306262295e-44 -4.6299979035396475e-43 12.836205716282613" Properties=species:S:1:pos:R:3:initial_magmoms:R:1:castep_labels:S:1 n_minim_iter=6 pbc="T T T"
P        1.19355811       0.86403998       8.05186991       0.00000000 NULL
P        4.55734962       6.16548113      12.33060514       0.00000000 NULL
P        7.46663658       0.60163166       3.77313467       0.00000000 NULL
P        2.16971261       2.00108270       9.63699044       0.00000000 NULL
P        5.05398025       4.75158518       1.07951997       0.00000000 NULL
P        5.99385145       0.87848489       5.35825521       0.00000000 NULL
P        4.95480160       2.14613887       3.96186631       0.00000000 NULL
P        3.78705808       2.26709928       8.24060155       0.00000000 NULL
P        4.47568463       3.21791462      12.51933679       0.00000000 NULL
P        7.43181783       2.21741195       7.48491184       0.00000000 NULL
P        2.61027426       0.08630375      11.76364708       0.00000000 NULL
P        3.17545221       5.32743707       3.20617660       0.00000000 NULL
P        1.31314039       6.70367150       7.05214759       0.00000000 NULL
P        0.74313152       3.14210408      11.33088283       0.00000000 NULL
P       -2.05627191       5.41652995       2.77341235       0.00000000 NULL
P       -3.35361841       5.92980218       4.38095335       0.00000000 NULL
P        2.40632044       7.57057041       8.65968859       0.00000000 NULL
P        0.94729798       1.76193293       0.10221811       0.00000000 NULL
P        2.27616232       0.42855119       1.05677659       0.00000000 NULL
P        3.63890316       5.44566278       5.33551183       0.00000000 NULL
P        7.30247883       1.75693880       9.61424707       0.00000000 NULL
P        8.06102330       0.90869507       5.91951623       0.00000000 NULL
P        1.16228946       0.19575427      10.19825147       0.00000000 NULL
P        3.99423154       6.52670343       1.64078099       0.00000000 NULL
P       -1.09740060       3.80622763       6.07759314       0.00000000 NULL
P       -0.56085798       6.67841575      10.35632838       0.00000000 NULL
P        1.65825859       4.77766215       1.79885790       0.00000000 NULL
P        3.08061624       4.35408281       7.28758201       0.00000000 NULL
P        6.63628630       2.78621943      11.56631724       0.00000000 NULL
P        3.50064176       0.49085052       3.00884677       0.00000000 NULL
P        4.67134487       3.97325363      10.46758624       0.00000000 NULL
P        5.51111425       1.59902262       1.91011576       0.00000000 NULL
P        3.03508519       2.05887652       6.18885100       0.00000000 NULL
33
Lattice="8.526834133010606 1.4701039766593344e-15 -3.7562368765575124e-44 -4.263417066505305 7.384454973043445 3.0449085785677954e-43 -5.161892597984127e-44 -2.2710804113095065e-42 13.171394449627035" Properties=species:S:1:pos:R:3:initial_magmoms:R:1:castep_labels:S:1 n_minim_iter=7 pbc="T T T"
P        1.15581406       0.84120437       8.25314240       0.00000000 NULL
P        4.41401439       5.96288846      12.64360721       0.00000000 NULL
P        7.22042276       0.58036215       3.86267758       0.00000000 NULL
P        2.07939910       1.96392053       9.89456908       0.00000000 NULL
P        4.92452259       4.60168226       1.11363945       0.00000000 NULL
P        5.78632951       0.81885218       5.50410426       0.00000000 NULL
P        4.77190800       2.09749319       4.05146354       0.00000000 NULL
P        3.69394545       2.20311483       8.44192836       0.00000000 NULL
P        4.32439775       3.08384696      12.83239317       0.00000000 NULL
P        7.18897211       2.16635217       7.68900262       0.00000000 NULL
P        2.54504702       0.07544642      12.07946743       0.00000000 NULL
P        3.05623207       5.14265639       3.29853780       0.00000000 NULL
P        1.26788628       6.48519889       7.22239570       0.00000000 NULL
P        0.71898678       3.04383381      11.61286052       0.00000000 NULL
P       -1.98687306       5.23987726       2.83193088       0.00000000 NULL
P       -3.23160628       5.74535258       4.49877426       0.00000000 NULL
P        2.32800736       7.31043182       8.88923907       0.00000000 NULL
P        0.90359892       1.71312556       0.10830944       0.00000000 NULL
P        2.20933985       0.39949618       1.10228459       0.00000000 NULL
P        3.50472099       5.27136245       5.49274940       0.00000000 NULL
P        7.07619037       1.71359635       9.88321422       0.00000000 NULL
P        7.82706605       0.86942923       6.06463511       0.00000000 NULL
P        1.10283184       0.17130233      10.45509993       0.00000000 NULL
P        3.86035332       6.34372342       1.67417029       0.00000000 NULL
P       -1.05703456       3.68147748       6.24377287       0.00000000 NULL
P       -0.54664677       6.45913502      10.63423768       0.00000000 NULL
P        1.60368133       4.62829746       1.85330805       0.00000000 NULL
P        2.97383707       4.19315976       7.46207942       0.00000000 NULL
P        6.40788141       2.71245664      11.85254424       0.00000000 NULL
P        3.40853272       0.47883857       3.07161460       0.00000000 NULL
P        4.53886097       3.84529744      10.75954513       0.00000000 NULL
P        5.32411185       1.53103735       1.97861550       0.00000000 NULL
P        2.92727838       2.00812019       6.36908031       0.00000000 NULL
33
Lattice="8.41614813608249 -4.661152659043652e-16 -6.186446037565732e-44 -4.208074068041245 7.288598087860492 1.5950306934010396e-43 -8.741069559126875e-44 -1.8382681031589737e-42 13.416013193420769" Properties=species:S:1:pos:R:3:initial_magmoms:R:1:castep_labels:S:1 n_minim_iter=8 pbc="T T T"
P        1.13934180       0.83740995       8.39607929       0.00000000 NULL
P        4.36362146       5.88319418      12.86808369       0.00000000 NULL
P        7.12125895       0.56799397       3.92407489       0.00000000 NULL
P        2.03161711       1.98076226      10.08281344       0.00000000 NULL
P        4.90765595       4.53878494       1.13880464       0.00000000 NULL
P        5.68494915       0.76905090       5.61080904       0.00000000 NULL
P        4.68480466       2.09999539       4.10599692       0.00000000 NULL
P        3.68432110       2.18144055       8.57800132       0.00000000 NULL
P        4.25509645       3.00716215      13.05000572       0.00000000 NULL
P        7.09623819       2.15121268       7.85657060       0.00000000 NULL
P        2.52295980       0.06746921      12.32857499       0.00000000 NULL
P        3.00502421       5.06991621       3.38456620       0.00000000 NULL
P        1.24401207       6.39318429       7.33721016       0.00000000 NULL
P        0.70657990       3.01465989      11.80921456       0.00000000 NULL
P       -1.95059197       5.16935200       2.86520577       0.00000000 NULL
P       -3.17031513       5.68101484       4.58173637       0.00000000 NULL
P        2.29698667       7.19366411       9.05374077       0.00000000 NULL
P        0.87332846       1.70251723       0.10973198       0.00000000 NULL
P        2.18975805       0.36800023       1.14663683       0.00000000 NULL
P        3.43189259       5.20821188       5.61864123       0.00000000 NULL
P        7.00257157       1.71238599      10.09064563       0.00000000 NULL
P        7.76369698       0.85373053       6.16118537       0.00000000 NULL
P        1.06557790       0.13817401      10.63318977       0.00000000 NULL
P        3.79494732       6.29669355       1.68918098       0.00000000 NULL
P       -1.03620987       3.63465944       6.36338164       0.00000000 NULL
P       -0.54226172       6.36865244      10.83538604       0.00000000 NULL
P        1.57847160       4.57388430       1.89137724       0.00000000 NULL
P        2.92613815       4.11483640       7.57799615       0.00000000 NULL
P        6.30855784       2.69706992      12.05000055       0.00000000 NULL
P        3.38952621       0.47669178       3.10599176       0.00000000 NULL
P        4.50409708       3.79825424      10.99229991       0.00000000 NULL
P        5.24541019       1.48880848       2.04829111       0.00000000 NULL
P        2.87471494       2.00153538       6.52029551       0.00000000 NULL
33
Lattice="8.25592874129733 1.2944902078380597e-15 -4.4824520022805333e-44 -4.127964370648667 7.149844021797573 9.84508422094959e-43 -6.047854692622479e-44 -2.3032071228807232e-42 13.158223818883327" Properties=species:S:1:pos:R:3:initial_magmoms:R:1:castep_labels:S:1 n_minim_iter=9 pbc="T T T"
P        1.11744823       0.82278327       8.23429290       0.00000000 NULL
P        4.28179147       5.77071383      12.62036750       0.00000000 NULL
P        6.98465341       0.55634692       3.84821829       0.00000000 NULL
P        1.99050121       1.94642132       9.88912728       0.00000000 NULL
P        4.81836407       4.45280876       1.11697807       0.00000000 NULL
P        5.57502784       0.75061396       5.50305268       0.00000000 NULL
P        4.59339876       2.06314497       4.02533175       0.00000000 NULL
P        3.61800094       2.14027152       8.41140636       0.00000000 NULL
P        4.17249341       2.94642754      12.79748097       0.00000000 NULL
P        6.96178050       2.11036310       7.70807795       0.00000000 NULL
P        2.47470217       0.06558371      12.09415256       0.00000000 NULL
P        2.94741044       4.97389722       3.32200335       0.00000000 NULL
P        1.21954532       6.27036345       7.19439032       0.00000000 NULL
P        0.69255701       2.95850507      11.58046493       0.00000000 NULL
P       -1.91210233       5.07081953       2.80831572       0.00000000 NULL
P       -3.10848918       5.57360194       4.49309327       0.00000000 NULL
P        2.25316109       7.05507365       8.87916787       0.00000000 NULL
P        0.85532809       1.67101246       0.10701866       0.00000000 NULL
P        2.14838551       0.35809753       1.12681459       0.00000000 NULL
P        3.36389318       5.11023884       5.51288919       0.00000000 NULL
P        6.87161443       1.68150766       9.89896380       0.00000000 NULL
P        7.61850960       0.83816007       6.04070200       0.00000000 NULL
P        1.04457749       0.13294114      10.42677661       0.00000000 NULL
P        3.72080603       6.17874282       1.65462740       0.00000000 NULL
P       -1.01567300       3.56489653       6.24148457       0.00000000 NULL
P       -0.53283692       6.24699438      10.62755918       0.00000000 NULL
P        1.54850992       4.48779714       1.85540996       0.00000000 NULL
P        2.86936056       4.03408177       7.42986061       0.00000000 NULL
P        6.18690138       2.64786400      11.81593522       0.00000000 NULL
P        3.32763117       0.46789826       3.04378600       0.00000000 NULL
P        4.42088070       3.72648697      10.78525202       0.00000000 NULL
P        5.14475640       1.45800555       2.01310280       0.00000000 NULL
P        2.81825601       1.96535151       6.39917741       0.00000000 NULL
33
Lattice="8.320284967437022 4.593556069444346e-16 -4.648996957860865e-44 -4.160142483718512 7.205578148526243 7.766412915713626e-43 -6.238682115418184e-44 2.886677894453572e-42 13.382475032436288" Properties=species:S:1:pos:R:3:initial_magmoms:R:1:castep_labels:S:1 n_minim_iter=10 pbc="T T T"
P        1.12587284       0.82936993       8.37381603       0.00000000 NULL
P        4.31546149       5.81585870      12.83464104       0.00000000 NULL
P        7.03909312       0.56034952       3.91299101       0.00000000 NULL
P        2.00542401       1.96345083      10.05788497       0.00000000 NULL
P        4.85782878       4.48710460       1.13623495       0.00000000 NULL
P        5.61717467       0.75502272       5.59705996       0.00000000 NULL
P        4.62819799       2.08100910       4.09371998       0.00000000 NULL
P        3.64825023       2.15693657       8.55454499       0.00000000 NULL
P        4.20397923       2.96763248      13.01537000       0.00000000 NULL
P        7.01618734       2.12707383       7.84094351       0.00000000 NULL
P        2.49414879       0.06584476      12.30176852       0.00000000 NULL
P        2.97009132       5.01265956       3.38011850       0.00000000 NULL
P        1.22829600       6.31842078       7.31604479       0.00000000 NULL
P        0.69762242       2.98263223      11.77686980       0.00000000 NULL
P       -1.92591842       5.11010330       2.85521978       0.00000000 NULL
P       -3.13197855       5.61754353       4.56977490       0.00000000 NULL
P        2.27078219       7.10917937       9.03059991       0.00000000 NULL
P        0.86119636       1.68443340       0.10894989       0.00000000 NULL
P        2.16545900       0.35964205       1.14730102       0.00000000 NULL
P        3.38887213       5.15041462       5.60812603       0.00000000 NULL
P        6.92609632       1.69552149      10.06895104       0.00000000 NULL
P        7.67957206       0.84478053       6.14280273       0.00000000 NULL
P        1.05195786       0.13248339      10.60362774       0.00000000 NULL
P        3.74889754       6.22831423       1.68197772       0.00000000 NULL
P       -1.02331077       3.59303948       6.34751328       0.00000000 NULL
P       -0.53682363       6.29527154      10.80833829       0.00000000 NULL
P        1.56013441       4.52284529       1.88668827       0.00000000 NULL
P        2.89124559       4.06503022       7.55583147       0.00000000 NULL
P        6.23493913       2.66917091      12.01665649       0.00000000 NULL
P        3.35424273       0.47137702       3.09500646       0.00000000 NULL
P        4.45606874       3.75598846      10.96977966       0.00000000 NULL
P        5.18488954       1.46851519       2.04812964       0.00000000 NULL
P        2.83946918       1.98107450       6.50895465       0.00000000 NULL
33
Lattice="8.305221583646375 1.2239206140190192e-15 -4.287846962889177e-44 -4.152610791823189 7.192532875496587 2.984840834661425e-42 -5.640222283731284e-44 -1.0760123882330608e-42 13.393724746718425" Properties=species:S:1:pos:R:3:initial_magmoms:R:1:castep_labels:S:1 n_minim_iter=11 pbc="T T T"
P        1.12367644       0.82823194       8.38048727       0.00000000 NULL
P        4.30804247       5.80528457      12.84506218       0.00000000 NULL
P        7.02611347       0.55901637       3.91591235       0.00000000 NULL
P        2.00108194       1.96127860      10.06639755       0.00000000 NULL
P        4.85058691       4.47890579       1.13724772       0.00000000 NULL
P        5.60616353       0.75234850       5.60182263       0.00000000 NULL
P        4.61903364       2.07854421       4.09666943       0.00000000 NULL
P        3.64316607       2.15306030       8.56124434       0.00000000 NULL
P        4.19563268       2.96092837      13.02581926       0.00000000 NULL
P        7.00371345       2.12328928       7.84865448       0.00000000 NULL
P        2.48957652       0.06549447      12.31322939       0.00000000 NULL
P        2.96454241       5.00374913       3.38407956       0.00000000 NULL
P        1.22562290       6.30641265       7.32149877       0.00000000 NULL
P        0.69609132       2.97790599      11.78607369       0.00000000 NULL
P       -1.92171422       5.10074712       2.85692386       0.00000000 NULL
P       -3.12574241       5.60769528       4.57345357       0.00000000 NULL
P        2.26666698       7.09565758       9.03802849       0.00000000 NULL
P        0.85907544       1.68171290       0.10887866       0.00000000 NULL
P        2.16171791       0.35791623       1.14919527       0.00000000 NULL
P        3.38171639       5.14147214       5.61377018       0.00000000 NULL
P        6.91439808       1.69314451      10.07834510       0.00000000 NULL
P        7.66681357       0.84348747       6.14719198       0.00000000 NULL