24
Lattice="4.91409 0.0 0.0 0.0 8.296559999999998 0.0 0.0 0.0 13.41196" Properties=species:S:1:pos:R:3:initial_magmoms:R:1:castep_labels:S:1 n_minim_iter=1 pbc="T T T"
P        0.88148062       3.43617464       1.05323451       0.00000000 NULL
P        4.03260938       7.58445464      12.35872549       0.00000000 NULL
P        4.03260938       0.71210536       1.05323451       0.00000000 NULL
P        0.88148062       4.86038536      12.35872549       0.00000000 NULL
P        3.73830797       2.65361074       1.72016434       0.00000000 NULL
P        1.17578203       6.80189074      11.69179566       0.00000000 NULL
P        1.17578203       1.49466926       1.72016434       0.00000000 NULL
P        3.73830797       5.64294926      11.69179566       0.00000000 NULL
P        3.72205265       5.38999710       6.98132352       0.00000000 NULL
P        1.19203735       1.24171710       6.43063648       0.00000000 NULL
P        1.19203735       7.05484290       6.98132352       0.00000000 NULL
P        3.72205265       2.90656290       6.43063648       0.00000000 NULL
P        3.92037992       0.96631030       5.76352694       0.00000000 NULL
P        0.99371008       5.11459030       7.64843306       0.00000000 NULL
P        0.99371008       3.18196970       5.76352694       0.00000000 NULL
P        3.92037992       7.33024970       7.64843306       0.00000000 NULL
P        4.49899633       7.18140278       5.65104887       0.00000000 NULL
P        0.41509367       3.03312278       7.76091113       0.00000000 NULL
P        0.41509367       5.26343722       5.65104887       0.00000000 NULL
P        4.49899633       1.11515722       7.76091113       0.00000000 NULL
P        1.56513816       1.60208565      12.85023761       0.00000000 NULL
P        3.34895184       5.75036565       0.56172239       0.00000000 NULL
P        3.34895184       2.54619435      12.85023761       0.00000000 NULL
P        1.56513816       6.69447435       0.56172239       0.00000000 NULL
24
Lattice="4.931199032527872 0.0 0.0 0.0 8.37935887546817 0.0 0.0 0.0 13.44093950362938" Properties=species:S:1:pos:R:3:initial_magmoms:R:1:castep_labels:S:1 n_minim_iter=2 pbc="T T T"
P        0.88454999       3.47063011       1.05550771       0.00000000 NULL
P        4.04664905       7.66030955      12.38543179       0.00000000 NULL
P        4.04664905       0.71904933       1.05550771       0.00000000 NULL
P        0.88454999       4.90872877      12.38543179       0.00000000 NULL
P        3.75124614       2.68035623       1.72390755       0.00000000 NULL
P        1.17995290       6.87003567      11.71703195       0.00000000 NULL
P        1.17995290       1.50932321       1.72390755       0.00000000 NULL
P        3.75124614       5.69900265      11.71703195       0.00000000 NULL
P        3.73467393       5.44340162       6.99648266       0.00000000 NULL
P        1.19652510       1.25372218       6.44445684       0.00000000 NULL
P        1.19652510       7.12563669       6.99648266       0.00000000 NULL
P        3.73467393       2.93595725       6.44445684       0.00000000 NULL
P        3.93384663       0.97599570       5.77563905       0.00000000 NULL
P        0.99735240       5.16567514       7.66530045       0.00000000 NULL
P        0.99735240       3.21368374       5.77563905       0.00000000 NULL
P        3.93384663       7.40336317       7.66530045       0.00000000 NULL
P        4.51449375       7.25320679       5.66291292       0.00000000 NULL
P        0.41670528       3.06352735       7.77802659       0.00000000 NULL
P        0.41670528       5.31583152       5.66291292       0.00000000 NULL
P        4.51449375       1.12615209       7.77802659       0.00000000 NULL
P        1.57035775       1.61800652      12.87805253       0.00000000 NULL
P        3.36084129       5.80768596       0.56288697       0.00000000 NULL
P        3.36084129       2.57167292      12.87805253       0.00000000 NULL
P        1.57035775       6.76135236       0.56288697       0.00000000 NULL
24
Lattice="5.122446013831158 0.0 0.0 0.0 9.346329244236708 0.0 0.0 0.0 13.756742021347605" Properties=species:S:1:pos:R:3:initial_magmoms:R:1:castep_labels:S:1 n_minim_iter=3 pbc="T T T"
P        0.91882410       3.87285260       1.08033475       0.00000000 NULL
P        4.20362192       8.54601723      12.67640727       0.00000000 NULL
P        4.20362192       0.80031202       1.08033475       0.00000000 NULL
P        0.91882410       5.47347664      12.67640727       0.00000000 NULL
P        3.89592030       2.99280852       1.76453313       0.00000000 NULL
P        1.22652571       7.66597314      11.99220890       0.00000000 NULL
P        1.22652571       1.68035610       1.76453313       0.00000000 NULL
P        3.89592030       6.35352072      11.99220890       0.00000000 NULL
P        3.87563817       6.06681144       7.16183368       0.00000000 NULL
P        1.24680785       1.39364682       6.59490834       0.00000000 NULL
P        1.24680785       7.95268243       7.16183368       0.00000000 NULL
P        3.87563817       3.27951781       6.59490834       0.00000000 NULL
P        4.08430386       1.08933423       5.90741332       0.00000000 NULL
P        1.03814216       5.76249885       7.84932871       0.00000000 NULL
P        1.03814216       3.58383039       5.90741332       0.00000000 NULL
P        4.08430386       8.25699502       7.84932871       0.00000000 NULL
P        4.68764542       8.09193491       5.79197769       0.00000000 NULL
P        0.43480059       3.41877029       7.96476433       0.00000000 NULL
P        0.43480059       5.92755895       5.79197769       0.00000000 NULL
P        4.68764542       1.25439433       7.96476433       0.00000000 NULL
P        1.62862263       1.80399345      13.18131748       0.00000000 NULL
P        3.49382338       6.47715808       0.57542454       0.00000000 NULL
P        3.49382338       2.86917117      13.18131748       0.00000000 NULL
P        1.62862263       7.54233579       0.57542454       0.00000000 NULL
24
Lattice="5.117352526840194 0.0 0.0 0.0 9.620893399687008 0.0 0.0 0.0 13.677453658363547" Properties=species:S:1:pos:R:3:initial_magmoms:R:1:castep_labels:S:1 n_minim_iter=4 pbc="T T T"
P        0.91688200       3.98420610       1.07436086       0.00000000 NULL
P        4.20047053       8.79465280      12.60309280       0.00000000 NULL
P        4.20047053       0.82624060       1.07436086       0.00000000 NULL
P        0.91688200       5.63668730      12.60309280       0.00000000 NULL
P        3.89289602       3.08069834       1.75236787       0.00000000 NULL
P        1.22445650       7.89114504      11.92508579       0.00000000 NULL
P        1.22445650       1.72974836       1.75236787       0.00000000 NULL
P        3.89289602       6.54019506      11.92508579       0.00000000 NULL
P        3.87056096       6.24306601       7.12173025       0.00000000 NULL
P        1.24679156       1.43261931       6.55572340       0.00000000 NULL
P        1.24679156       8.18827409       7.12173025       0.00000000 NULL
P        3.87056096       3.37782739       6.55572340       0.00000000 NULL
P        4.07993132       1.12339033       5.87143829       0.00000000 NULL
P        1.03742120       5.93383703       7.80601537       0.00000000 NULL
P        1.03742120       3.68705637       5.87143829       0.00000000 NULL
P        4.07993132       8.49750307       7.80601537       0.00000000 NULL
P        4.68173842       8.33071641       5.75625232       0.00000000 NULL
P        0.43561411       3.52026971       7.92120134       0.00000000 NULL
P        0.43561411       6.10062369       5.75625232       0.00000000 NULL
P        4.68173842       1.29017699       7.92120134       0.00000000 NULL
P        1.62625600       1.85796109      13.10729968       0.00000000 NULL
P        3.49109653       6.66840779       0.57015397       0.00000000 NULL
P        3.49109653       2.95248561      13.10729968       0.00000000 NULL
P        1.62625600       7.76293231       0.57015397       0.00000000 NULL
24
Lattice="5.07590457953188 0.0 0.0 0.0 9.751421418766332 0.0 0.0 0.0 13.539404679170808" Properties=species:S:1:pos:R:3:initial_magmoms:R:1:castep_labels:S:1 n_minim_iter=5 pbc="T T T"
P        0.90787835       4.03424986       1.06382027       0.00000000 NULL
P        4.16802623       8.90996057      12.47558441       0.00000000 NULL
P        4.16802623       0.84146085       1.06382027       0.00000000 NULL
P        0.90787835       5.71717156      12.47558441       0.00000000 NULL
P        3.86283577       3.12188998       1.73185014       0.00000000 NULL
P        1.21306881       7.99760069      11.80755454       0.00000000 NULL
P        1.21306881       1.75382073       1.73185014       0.00000000 NULL
P        3.86283577       6.62953144      11.80755454       0.00000000 NULL
P        3.83820078       6.32561456       7.05147810       0.00000000 NULL
P        1.23770380       1.44990385       6.48792658       0.00000000 NULL
P        1.23770380       8.30151757       7.05147810       0.00000000 NULL
P        3.83820078       3.42580686       6.48792658       0.00000000 NULL
P        4.04690736       1.14156065       5.80984365       0.00000000 NULL
P        1.02899722       6.01727136       7.72956103       0.00000000 NULL
P        1.02899722       3.73415006       5.80984365       0.00000000 NULL
P        4.04690736       8.60986077       7.72956103       0.00000000 NULL
P        4.64229631       8.44522387       5.69507598       0.00000000 NULL
P        0.43360827       3.56951316       7.84432870       0.00000000 NULL
P        0.43360827       6.18190826       5.69507598       0.00000000 NULL
P        4.64229631       1.30619755       7.84432870       0.00000000 NULL
P        1.61239462       1.88466303      12.97762442       0.00000000 NULL
P        3.46350996       6.76037374       0.56178026       0.00000000 NULL
P        3.46350996       2.99104768      12.97762442       0.00000000 NULL
P        1.61239462       7.86675839       0.56178026       0.00000000 NULL
24
Lattice="5.0448763808604085 0.0 0.0 0.0 9.858080584500476 0.0 0.0 0.0 13.42136528881863" Properties=species:S:1:pos:R:3:initial_magmoms:R:1:castep_labels:S:1 n_minim_iter=6 pbc="T T T"
P        0.89969428       4.07119796       1.05501479       0.00000000 NULL
P        4.14518210       9.00023825      12.36635050       0.00000000 NULL
P        4.14518210       0.85784234       1.05501479       0.00000000 NULL
P        0.89969428       5.78688263      12.36635050       0.00000000 NULL
P        3.84179698       3.15501416       1.71229855       0.00000000 NULL
P        1.20307940       8.08405446      11.70906674       0.00000000 NULL
P        1.20307940       1.77402613       1.71229855       0.00000000 NULL
P        3.84179698       6.70306642      11.70906674       0.00000000 NULL
P        3.81291492       6.39112377       6.99321849       0.00000000 NULL
P        1.23196146       1.46208348       6.42814680       0.00000000 NULL
P        1.23196146       8.39599711       6.99321849       0.00000000 NULL
P        3.81291492       3.46695681       6.42814680       0.00000000 NULL
P        4.02220664       1.15931525       5.75459844       0.00000000 NULL
P        1.02266974       6.08835554       7.66676684       0.00000000 NULL
P        1.02266974       3.76972505       5.75459844       0.00000000 NULL
P        4.02220664       8.69876534       7.66676684       0.00000000 NULL
P        4.61116191       8.54042905       5.63915537       0.00000000 NULL
P        0.43371447       3.61138876       7.78220992       0.00000000 NULL
P        0.43371447       6.24669182       5.63915537       0.00000000 NULL
P        4.61116191       1.31765153       7.78220992       0.00000000 NULL
P        1.60113283       1.90765645      12.86856320       0.00000000 NULL
P        3.44374355       6.83669674       0.55280208       0.00000000 NULL
P        3.44374355       3.02138384      12.86856320       0.00000000 NULL
P        1.60113283       7.95042414       0.55280208       0.00000000 NULL
24
Lattice="5.0496201213255185 0.0 0.0 0.0 9.892906265103337 0.0 0.0 0.0 13.38852693480586" Properties=species:S:1:pos:R:3:initial_magmoms:R:1:castep_labels:S:1 n_minim_iter=7 pbc="T T T"
P        0.89737851       4.07653223       1.05295580       0.00000000 NULL
P        4.15224162       9.02298536      12.33557113       0.00000000 NULL
P        4.15224162       0.86992091       1.05295580       0.00000000 NULL
P        0.89737851       5.81637404      12.33557113       0.00000000 NULL
P        3.84854936       3.16507340       1.70325935       0.00000000 NULL
P        1.20107077       8.11152654      11.68526758       0.00000000 NULL
P        1.20107077       1.78137973       1.70325935       0.00000000 NULL
P        3.84854936       6.72783286      11.68526758       0.00000000 NULL
P        3.81433976       6.40922129       6.98037762       0.00000000 NULL
P        1.23528036       1.46276816       6.40814931       0.00000000 NULL
P        1.23528036       8.43013811       6.98037762       0.00000000 NULL
P        3.81433976       3.48368497       6.40814931       0.00000000 NULL
P        4.02603188       1.17021401       5.73433396       0.00000000 NULL
P        1.02358824       6.11666714       7.65419298       0.00000000 NULL
P        1.02358824       3.77623912       5.73433396       0.00000000 NULL
P        4.02603188       8.72269225       7.65419298       0.00000000 NULL
P        4.61199361       8.57441120       5.61685478       0.00000000 NULL
P        0.43762651       3.62795806       7.77167215       0.00000000 NULL
P        0.43762651       6.26494820       5.61685478       0.00000000 NULL
P        4.61199361       1.31849507       7.77167215       0.00000000 NULL
P        1.60064878       1.91714220      12.84154250       0.00000000 NULL
P        3.44897134       6.86359533       0.54698444       0.00000000 NULL
P        3.44897134       3.02931093      12.84154250       0.00000000 NULL
P        1.60064878       7.97576406       0.54698444       0.00000000 NULL
24
Lattice="5.026184109487967 0.0 0.0 0.0 9.85678946667772 0.0 0.0 0.0 13.252379036308424" Properties=species:S:1:pos:R:3:initial_magmoms:R:1:castep_labels:S:1 n_minim_iter=8 pbc="T T T"
P        0.88780114       4.04584369       1.04312000       0.00000000 NULL
P        4.13838296       8.97423842      12.20925903       0.00000000 NULL
P        4.13838296       0.88255105       1.04312000       0.00000000 NULL
P        0.88780114       5.81094578      12.20925903       0.00000000 NULL
P        3.83587698       3.15190447       1.67822102       0.00000000 NULL
P        1.19030713       8.08029920      11.57415801       0.00000000 NULL
P        1.19030713       1.77649026       1.67822102       0.00000000 NULL
P        3.83587698       6.70488500      11.57415801       0.00000000 NULL
P        3.79413057       6.37835571       6.91617313       0.00000000 NULL
P        1.23205354       1.44996097       6.33620591       0.00000000 NULL
P        1.23205354       8.40682849       6.91617313       0.00000000 NULL
P        3.79413057       3.47843376       6.33620591       0.00000000 NULL
P        4.00793157       1.17781821       5.66633046       0.00000000 NULL
P        1.01825254       6.10621294       7.58604857       0.00000000 NULL
P        1.01825254       3.75057652       5.66633046       0.00000000 NULL
P        4.00793157       8.67897126       7.58604857       0.00000000 NULL
P        4.58503788       8.54937936       5.54656513       0.00000000 NULL
P        0.44114623       3.62098463       7.70581391       0.00000000 NULL
P        0.44114623       6.23580484       5.54656513       0.00000000 NULL
P        4.58503788       1.30741011       7.70581391       0.00000000 NULL
P        1.58986315       1.91517961      12.71813255       0.00000000 NULL
P        3.43632096       6.84357434       0.53424649       0.00000000 NULL
P        3.43632096       3.01321513      12.71813255       0.00000000 NULL
P        1.58986315       7.94160986       0.53424649       0.00000000 NULL
24
Lattice="5.076556661809759 0.0 0.0 0.0 9.941160166532553 0.0 0.0 0.0 13.32491952369852" Properties=species:S:1:pos:R:3:initial_magmoms:R:1:castep_labels:S:1 n_minim_iter=9 pbc="T T T"
P        0.89524848       4.07575190       1.04911222       0.00000000 NULL
P        4.18130818       9.04633198      12.27580730       0.00000000 NULL
P        4.18130818       0.89482819       1.04911222       0.00000000 NULL
P        0.89524848       5.86540827      12.27580730       0.00000000 NULL
P        3.87552709       3.17910089       1.68575396       0.00000000 NULL
P        1.20102957       8.14968097      11.63916556       0.00000000 NULL
P        1.20102957       1.79147920       1.68575396       0.00000000 NULL
P        3.87552709       6.76205928      11.63916556       0.00000000 NULL
P        3.83122913       6.43028183       6.95632330       0.00000000 NULL
P        1.24532753       1.45970175       6.36859622       0.00000000 NULL
P        1.24532753       8.48145842       6.95632330       0.00000000 NULL
P        3.83122913       3.51087833       6.36859622       0.00000000 NULL
P        4.04807943       1.19187386       5.69381658       0.00000000 NULL
P        1.02847723       6.16245395       7.63110295       0.00000000 NULL
P        1.02847723       3.77870622       5.69381658       0.00000000 NULL
P        4.04807943       8.74928630       7.63110295       0.00000000 NULL
P        4.62911684       8.62472711       5.57227962       0.00000000 NULL
P        0.44743982       3.65414702       7.75263990       0.00000000 NULL
P        0.44743982       6.28701314       5.57227962       0.00000000 NULL
P        4.62911684       1.31643306       7.75263990       0.00000000 NULL
P        1.60421471       1.93308399      12.78939203       0.00000000 NULL
P        3.47234195       6.90366407       0.53552749       0.00000000 NULL
P        3.47234195       3.03749610      12.78939203       0.00000000 NULL
P        1.60421471       8.00807618       0.53552749       0.00000000 NULL
24
Lattice="5.053180710649034 0.0 0.0 0.0 9.899718395787863 0.0 0.0 0.0 13.26722835106512" Properties=species:S:1:pos:R:3:initial_magmoms:R:1:castep_labels:S:1 n_minim_iter=10 pbc="T T T"
P        0.89017990       4.05590429       1.04471400       0.00000000 NULL
P        4.16300081       9.00576349      12.22251435       0.00000000 NULL
P        4.16300081       0.89395490       1.04471400       0.00000000 NULL
P        0.89017990       5.84381410      12.22251435       0.00000000 NULL
P        3.85848857       3.16567085       1.67733888       0.00000000 NULL
P        1.19469215       8.11553005      11.58988947       0.00000000 NULL
P        1.19469215       1.78418835       1.67733888       0.00000000 NULL
P        3.85848857       6.73404755      11.58988947       0.00000000 NULL
P        3.81362602       6.40226690       6.92716260       0.00000000 NULL
P        1.23955469       1.45240771       6.34006575       0.00000000 NULL
P        1.23955469       8.44731069       6.92716260       0.00000000 NULL
P        3.81362602       3.49745149       6.34006575       0.00000000 NULL
P        4.02975013       1.18897516       5.66783997       0.00000000 NULL
P        1.02343058       6.13883435       7.59938838       0.00000000 NULL
P        1.02343058       3.76088404       5.66783997       0.00000000 NULL
P        4.02975013       8.71074324       7.59938838       0.00000000 NULL
P        4.60704324       8.58966884       5.54643082       0.00000000 NULL
P        0.44613748       3.63980964       7.72079753       0.00000000 NULL
P        0.44613748       6.25990876       5.54643082       0.00000000 NULL
P        4.60704324       1.31004956       7.72079753       0.00000000 NULL
P        1.59631470       1.92609681      12.73509135       0.00000000 NULL
P        3.45686601       6.87595601       0.53213700       0.00000000 NULL
P        3.45686601       3.02376239      12.73509135       0.00000000 NULL
P        1.59631470       7.97362158       0.53213700       0.00000000 NULL
24
Lattice="5.054888724226079 0.0 0.0 0.0 9.902366513782138 0.0 0.0 0.0 13.257893138009512" Properties=species:S:1:pos:R:3:initial_magmoms:R:1:castep_labels:S:1 n_minim_iter=11 pbc="T T T"
P        0.88966635       4.05438149       1.04411965       0.00000000 NULL
P        4.16522238       9.00556474      12.21377348       0.00000000 NULL
P        4.16522238       0.89680177       1.04411965       0.00000000 NULL
P        0.88966635       5.84798503      12.21377348       0.00000000 NULL
P        3.86044747       3.16654866       1.67527186       0.00000000 NULL
P        1.19444125       8.11773192      11.58262128       0.00000000 NULL
P        1.19444125       1.78463460       1.67527186       0.00000000 NULL
P        3.86044747       6.73581785      11.58262128       0.00000000 NULL
P        3.81476582       6.40270288       6.92331719       0.00000000 NULL
P        1.24012290       1.45151962       6.33457595       0.00000000 NULL
P        1.24012290       8.45084689       6.92331719       0.00000000 NULL
P        3.81476582       3.49966363       6.33457595       0.00000000 NULL
P        4.03128004       1.19133151       5.66233780       0.00000000 NULL
P        1.02360869       6.14251477       7.59555534       0.00000000 NULL
P        1.02360869       3.75985174       5.66233780       0.00000000 NULL
P        4.03128004       8.71103500       7.59555534       0.00000000 NULL
P        4.60777158       8.59294281       5.54056525       0.00000000 NULL
P        0.44711714       3.64175955       7.71732789       0.00000000 NULL
P        0.44711714       6.26060696       5.54056525       0.00000000 NULL
P        4.60777158       1.30942370       7.71732789       0.00000000 NULL
P        1.59618266       1.92755980      12.72701242       0.00000000 NULL
P        3.45870606       6.87874306       0.53088072       0.00000000 NULL
P        3.45870606       3.02362345      12.72701242       0.00000000 NULL
P        1.59618266       7.97480671       0.53088072       0.00000000 NULL
24
Lattice="5.0803526078511485 0.0 0.0 0.0 9.937492116136937 0.0 0.0 0.0 13.043778868369767" Properties=species:S:1:pos:R:3:initial_magmoms:R:1:castep_labels:S:1 n_minim_iter=12 pbc="T T T"
P        0.87688427       4.01298341       1.03017637       0.00000000 NULL
P        4.20346834       8.98172946      12.01360250       0.00000000 NULL
P        4.20346834       0.95576265       1.03017637       0.00000000 NULL
P        0.87688427       5.92450871      12.01360250       0.00000000 NULL
P        3.89345330       3.17897204       1.63042570       0.00000000 NULL
P        1.18689931       8.14771810      11.41335316       0.00000000 NULL
P        1.18689931       1.78977402       1.63042570       0.00000000 NULL
P        3.89345330       6.75852008      11.41335316       0.00000000 NULL
P        3.83160730       6.39821454       6.83273080       0.00000000 NULL
P        1.24874530       1.42946848       6.21104807       0.00000000 NULL
P        1.24874530       8.50802363       6.83273080       0.00000000 NULL
P        3.83160730       3.53927757       6.21104807       0.00000000 NULL
P        4.05548943       1.23907675       5.53972759       0.00000000 NULL
P        1.02486318       6.20782281       7.50405128       0.00000000 NULL
P        1.02486318       3.72966931       5.53972759       0.00000000 NULL
P        4.05548943       8.69841537       7.50405128       0.00000000 NULL
P        4.61355631       8.64395120       5.41085204       0.00000000 NULL
P        0.46679630       3.67520514       7.63292683       0.00000000 NULL
P        0.46679630       6.26228698       5.41085204       0.00000000 NULL
P        4.61355631       1.29354092       7.63292683       0.00000000 NULL
P        1.58980323       1.95506660      12.53933210       0.00000000 NULL
P        3.49054938       6.92381266       0.50444677       0.00000000 NULL
P        3.49054938       3.01367946      12.53933210       0.00000000 NULL
P        1.58980323       7.98242552       0.50444677       0.00000000 NULL
24
Lattice="5.2059112328085515 0.0 0.0 0.0 10.150693875545812 0.0 0.0 0.0 13.353221388737197" Properties=species:S:1:pos:R:3:initial_magmoms:R:1:castep_labels:S:1 n_minim_iter=13 pbc="T T T"
P        0.88819657       4.04612671       1.05674822       0.00000000 NULL
P        4.31771467       9.12147365      12.29647317       0.00000000 NULL
P        4.31771467       1.02922023       1.05674822       0.00000000 NULL
P        0.88819657       6.10456716      12.29647317       0.00000000 NULL
P        3.98819503       3.26657749       1.67789743       0.00000000 NULL
P        1.21771620       8.34192443      11.67532396       0.00000000 NULL
P        1.21771620       1.80876944       1.67789743       0.00000000 NULL
P        3.98819503       6.88411638      11.67532396       0.00000000 NULL
P        3.94020278       6.50868220       7.01031223       0.00000000 NULL
P        1.26570845       1.43333526       6.34290916       0.00000000 NULL
P        1.26570845       8.71735861       7.01031223       0.00000000 NULL
P        3.94020278       3.64201167       6.34290916       0.00000000 NULL
P        4.16543730       1.30719668       5.65071753       0.00000000 NULL
P        1.04047393       6.38254362       7.70250386       0.00000000 NULL
P        1.04047393       3.76815026       5.65071753       0.00000000 NULL
P        4.16543730       8.84349720       7.70250386       0.00000000 NULL
P        4.71651559       8.84226946       5.51537370       0.00000000 NULL
P        0.48939565       3.76692252       7.83784769       0.00000000 NULL
P        0.48939565       6.38377136       5.51537370       0.00000000 NULL
P        4.71651559       1.30842442       7.83784769       0.00000000 NULL
P        1.61229170       2.02855736      12.83302546       0.00000000 NULL
P        3.59361954       7.10390429       0.52019593       0.00000000 NULL
P        3.59361954       3.04678958      12.83302546       0.00000000 NULL
P        1.61229170       8.12213652       0.52019593       0.00000000 NULL
24
Lattice="5.0789370888501155 0.0 0.0 0.0 9.894188744572928 0.0 0.0 0.0 12.985507077860403" Properties=species:S:1:pos:R:3:initial_magmoms:R:1:castep_labels:S:1 n_minim_iter=14 pbc="T T T"
P        0.86578086       3.94075048       1.02761198       0.00000000 NULL
P        4.21315623       8.88784485      11.95789509       0.00000000 NULL
P        4.21315623       1.00634390       1.02761198       0.00000000 NULL
P        0.86578086       5.95343827      11.95789509       0.00000000 NULL
P        3.89128142       3.18374108       1.63082844       0.00000000 NULL
P        1.18765566       8.13083546      11.35467864       0.00000000 NULL
P        1.18765566       1.76335329       1.63082844       0.00000000 NULL
P        3.89128142       6.71044766      11.35467864       0.00000000 NULL
P        3.84580159       6.34403647       6.81734884       0.00000000 NULL
P        1.23313550       1.39694209       6.16815824       0.00000000 NULL
P        1.23313550       8.49724665       6.81734884       0.00000000 NULL
P        3.84580159       3.55015228       6.16815824       0.00000000 NULL
P        4.06503736       1.27518473       5.49606503       0.00000000 NULL
P        1.01389972       6.22227910       7.48944204       0.00000000 NULL
P        1.01389972       3.67190964       5.49606503       0.00000000 NULL
P        4.06503736       8.61900401       7.48944204       0.00000000 NULL
P        4.60173035       8.61850015       5.36472833       0.00000000 NULL
P        0.47720674       3.67140578       7.62077875       0.00000000 NULL
P        0.47720674       6.22278297       5.36472833       0.00000000 NULL
P        4.60173035       1.27568860       7.62077875       0.00000000 NULL
P        1.57284025       1.97914420      12.48073303       0.00000000 NULL
P        3.50609684       6.92623857       0.50477405       0.00000000 NULL
P        3.50609684       2.96795018      12.48073303       0.00000000 NULL
P        1.57284025       7.91504455       0.50477405       0.00000000 NULL
24
Lattice="5.107263560589758 0.0 0.0 0.0 9.95877713767661 0.0 0.0 0.0 12.959993231832893" Properties=species:S:1:pos:R:3:initial_magmoms:R:1:castep_labels:S:1 n_minim_iter=15 pbc="T T T"
P        0.87067525       3.96528271       1.02557135       0.00000000 NULL
P        4.23658831       8.94467128      11.93442188       0.00000000 NULL
P        4.23658831       1.01410586       1.02557135       0.00000000 NULL
P        0.87067525       5.99349443      11.93442188       0.00000000 NULL
P        3.91239959       3.20547991       1.62808788       0.00000000 NULL
P        1.19486397       8.18486848      11.33190536       0.00000000 NULL
P        1.19486397       1.77390866       1.62808788       0.00000000 NULL
P        3.91239959       6.75329723      11.33190536       0.00000000 NULL
P        3.86768771       6.38477051       6.80430751       0.00000000 NULL
P        1.23957585       1.40538194       6.15568572       0.00000000 NULL
P        1.23957585       8.55339519       6.80430751       0.00000000 NULL
P        3.86768771       3.57400662       6.15568572       0.00000000 NULL
P        4.08791281       1.28423368       5.48498495       0.00000000 NULL
P        1.01935075       6.26362225       7.47500828       0.00000000 NULL
P        1.01935075       3.69515489       5.48498495       0.00000000 NULL
P        4.08791281       8.67454345       7.47500828       0.00000000 NULL
P        4.62711321       8.67491068       5.35386347       0.00000000 NULL
P        0.48015035       3.69552211       7.60612976       0.00000000 NULL
P        0.48015035       6.26325503       5.35386347       0.00000000 NULL
P        4.62711321       1.28386646       7.60612976       0.00000000 NULL
P        1.58085183       1.99312024      12.45605577       0.00000000 NULL