27
Lattice="4.04497 0.0 0.0 0.0 12.82459 6.459843460908693e-16 0.0 -6.412295000000002 11.106420733119876" Properties=species:S:1:pos:R:3:initial_magmoms:R:1:castep_labels:S:1 n_minim_iter=1 pbc="T T T"
P        2.84976671       6.51201068       8.41035154       0.00000000 NULL
P        2.84976671      10.43986775       1.26167828       0.00000000 NULL
P        2.84976671       2.28500657       1.43439091       0.00000000 NULL
P        1.99281312       5.56872681       6.79693624       0.00000000 NULL
P        1.99281312       9.51425104       2.88529373       0.00000000 NULL
P        1.99281312       4.15390714       1.42419077       0.00000000 NULL
P        1.24941600       4.36846959       5.33841219       0.00000000 NULL
P        1.24941600       8.85126078       4.65400900       0.00000000 NULL
P        1.24941600       6.01715463       1.11399955       0.00000000 NULL
P        0.85244790       1.10527446       2.03832141       0.00000000 NULL
P        0.85244790      -5.19969411       9.13006427       0.00000000 NULL
P        0.85244790       4.09441965      11.04445579       0.00000000 NULL
P        1.05475182       8.91689959       1.16224584       0.00000000 NULL
P        1.05475182       2.96037963       2.80303624       0.00000000 NULL
P        1.05475182       7.35960578       7.14113865       0.00000000 NULL
P        2.62598967      -0.45225532       5.98532788       0.00000000 NULL
P        2.62598967      -1.00272135       8.50542139       0.00000000 NULL
P        2.62598967       1.45497666       7.72209220       0.00000000 NULL
P        2.34338299       0.54143431       3.34454645       0.00000000 NULL
P        2.34338299      -3.78654997       8.96525164       0.00000000 NULL
P        2.34338299       3.24511565       9.90304338       0.00000000 NULL
P        3.93236006       5.05141363       6.71610149       0.00000000 NULL
P        3.93236006       9.70290269       3.37371746       0.00000000 NULL
P        3.93236006       4.48256868       1.01660179       0.00000000 NULL
P        2.60742083       5.76558491       2.67552898       0.00000000 NULL
P        2.60742083       5.84657861       4.77551324       0.00000000 NULL
P        2.60742083       7.62472148       3.65537851       0.00000000 NULL
27
Lattice="4.078387520449019 0.0 0.0 0.0 12.89399109949135 4.600411904679662e-16 0.0 -6.446995549745677 11.166523848329955" Properties=species:S:1:pos:R:3:initial_magmoms:R:1:castep_labels:S:1 n_minim_iter=2 pbc="T T T"
P        2.87326167       6.54731563       8.45623151       0.00000000 NULL
P        2.87326167      10.49664904       1.26826643       0.00000000 NULL
P        2.87326167       2.29702198       1.44202590       0.00000000 NULL
P        2.00922981       5.59882266       6.83391119       0.00000000 NULL
P        2.00922981       9.56592492       2.90084560       0.00000000 NULL
P        2.00922981       4.17623907       1.43176706       0.00000000 NULL
P        1.25968283       4.39163947       5.36692407       0.00000000 NULL
P        1.25968283       8.89906839       4.67979047       0.00000000 NULL
P        1.25968283       6.05027878       1.11980931       0.00000000 NULL
P        0.85938925       1.11094810       2.04913050       0.00000000 NULL
P        0.85938925      -5.22787054       9.17984932       0.00000000 NULL
P        0.85938925       4.11692243      11.10406788       0.00000000 NULL
P        1.06342490       8.96471185       1.16835882       0.00000000 NULL
P        1.06342490       2.97646804       2.81867624       0.00000000 NULL
P        1.06342490       7.39980675       7.17948879       0.00000000 NULL
P        2.64767948      -0.45461506       6.01802466       0.00000000 NULL
P        2.64767948      -1.00792579       8.55121971       0.00000000 NULL
P        2.64767948       1.46254085       7.76380333       0.00000000 NULL
P        2.36289081       0.54435006       3.36278957       0.00000000 NULL
P        2.36289081      -3.80690939       9.01370809       0.00000000 NULL
P        2.36289081       3.26255933       9.95655004       0.00000000 NULL
P        3.96491772       5.07859048       6.75258495       0.00000000 NULL
P        3.96491772       9.75561041       3.39204300       0.00000000 NULL
P        3.96491772       4.50678575       1.02189590       0.00000000 NULL
P        2.62904087       5.79684728       2.69003662       0.00000000 NULL
P        2.62904087       5.87821196       4.80128854       0.00000000 NULL
P        2.62904087       7.66592741       3.67519870       0.00000000 NULL
27
Lattice="4.435037824285296 0.0 0.0 0.0 13.60655699015899 -1.4574559300686405e-15 0.0 -6.803278495079495 11.783624011518416" Properties=species:S:1:pos:R:3:initial_magmoms:R:1:castep_labels:S:1 n_minim_iter=3 pbc="T T T"
P        3.12390567       6.90994426       8.92763632       0.00000000 NULL
P        3.12390567      11.07986621       1.33561858       0.00000000 NULL
P        3.12390567       2.42002501       1.52036911       0.00000000 NULL
P        2.18445189       5.90775961       7.21372791       0.00000000 NULL
P        2.18445189      10.09667031       3.06049015       0.00000000 NULL
P        2.18445189       4.40540555       1.50940595       0.00000000 NULL
P        1.36925161       4.62925279       5.65942511       0.00000000 NULL
P        1.36925161       9.38985801       4.94486094       0.00000000 NULL
P        1.36925161       6.39072468       1.17933796       0.00000000 NULL
P        0.93359607       1.16898664       2.16003951       0.00000000 NULL
P        0.93359607      -5.51712273       9.69123213       0.00000000 NULL
P        0.93359607       4.34813608      11.71597639       0.00000000 NULL
P        1.15592556       9.45526819       1.23094749       0.00000000 NULL
P        1.15592556       3.14167619       2.97964782       0.00000000 NULL
P        1.15592556       7.81289110       7.57302871       0.00000000 NULL
P        2.87914657      -0.47866502       6.35422501       0.00000000 NULL
P        2.87914657      -1.06102571       9.02104757       0.00000000 NULL
P        2.87914657       1.53969072       8.19197544       0.00000000 NULL
P        2.57111049       0.57437412       3.55008985       0.00000000 NULL
P        2.57111049      -4.01599756       9.51115651       0.00000000 NULL
P        2.57111049       3.44162344      10.50600166       0.00000000 NULL
P        4.31242935       5.35749410       7.12720146       0.00000000 NULL
P        4.31242935      10.29686896       3.58029729       0.00000000 NULL
P        4.31242935       4.75547241       1.07612527       0.00000000 NULL
P        2.85977681       6.11784558       2.83890908       0.00000000 NULL
P        2.85977681       6.20292308       5.06595978       0.00000000 NULL
P        2.85977681       8.08906682       3.87875515       0.00000000 NULL
27
Lattice="4.5139725411455585 0.0 0.0 0.0 13.59533879708803 1.2163113148275919e-15 0.0 -6.797669398544017 11.773908771334401" Properties=species:S:1:pos:R:3:initial_magmoms:R:1:castep_labels:S:1 n_minim_iter=4 pbc="T T T"
P        3.17833396       6.90538524       8.92217224       0.00000000 NULL
P        3.17833396      11.07180459       1.33258361       0.00000000 NULL
P        3.17833396       2.41581836       1.51915292       0.00000000 NULL
P        2.22329462       5.90287371       7.20919499       0.00000000 NULL
P        2.22329462      10.08957854       3.05727269       0.00000000 NULL
P        2.22329462       4.40055594       1.50744110       0.00000000 NULL
P        1.39339629       4.62354800       5.65316724       0.00000000 NULL
P        1.39339629       9.38168184       4.94321513       0.00000000 NULL
P        1.39339629       6.38777836       1.17752640       0.00000000 NULL
P        0.95175501       1.16682268       2.15784682       0.00000000 NULL
P        0.95175501      -5.51233058       9.68448728       0.00000000 NULL
P        0.95175501       4.34550789      11.70548345       0.00000000 NULL
P        1.17620385       9.44559158       1.22892126       0.00000000 NULL
P        1.17620385       3.13915064       2.97932588       0.00000000 NULL
P        1.17620385       7.80826598       7.56566163       0.00000000 NULL
P        2.93027916      -0.47644357       6.35344070       0.00000000 NULL
P        2.93027916      -1.05720657       9.00980066       0.00000000 NULL
P        2.93027916       1.53365014       8.18457619       0.00000000 NULL
P        2.61674956       0.57467570       3.54694617       0.00000000 NULL
P        2.61674956      -4.01326177       9.50275193       0.00000000 NULL
P        2.61674956       3.43858606      10.49811945       0.00000000 NULL
P        4.38944448       5.35256158       7.12166757       0.00000000 NULL
P        4.38944448      10.28893364       3.57762068       0.00000000 NULL
P        4.38944448       4.75151298       1.07462052       0.00000000 NULL
P        2.91082868       6.11308508       2.83616441       0.00000000 NULL
P        2.91082868       6.19731729       5.06173959       0.00000000 NULL
P        2.91082868       8.08260583       3.87600477       0.00000000 NULL
27
Lattice="4.582035969295458 0.0 0.0 0.0 13.500065300503309 -3.0330738578174075e-15 0.0 -6.750032650251653 11.691399502984666" Properties=species:S:1:pos:R:3:initial_magmoms:R:1:castep_labels:S:1 n_minim_iter=5 pbc="T T T"
P        3.22468449       6.85862589       8.86191836       0.00000000 NULL
P        3.22468449      10.99536613       1.32069607       0.00000000 NULL
P        3.22468449       2.39610593       1.50878507       0.00000000 NULL
P        2.25694471       5.86152490       7.16058278       0.00000000 NULL
P        2.25694471      10.02051679       3.03487865       0.00000000 NULL
P        2.25694471       4.36805626       1.49593808       0.00000000 NULL
P        1.41403602       4.58897975       5.61176322       0.00000000 NULL
P        1.41403602       9.31547228       4.91134485       0.00000000 NULL
P        1.41403602       6.34564591       1.16829143       0.00000000 NULL
P        0.96858035       1.15724337       2.14229642       0.00000000 NULL
P        0.96858035      -5.47337121       9.61804914       0.00000000 NULL
P        0.96858035       4.31612784      11.62245345       0.00000000 NULL
P        1.19349785       9.37722931       1.21928291       0.00000000 NULL
P        1.19349785       3.11734797       2.96083924       0.00000000 NULL
P        1.19349785       7.75552067       7.51127735       0.00000000 NULL
P        2.97431051      -0.47066717       6.31492967       0.00000000 NULL
P        2.97431051      -1.04580955       8.94154439       0.00000000 NULL
P        2.97431051       1.51647671       8.12632495       0.00000000 NULL
P        2.65572799       0.57181938       3.52155498       0.00000000 NULL
P        2.65572799      -3.98618627       9.43541190       0.00000000 NULL
P        2.65572799       3.41436688      10.42583212       0.00000000 NULL
P        4.45579436       5.31470571       7.07202111       0.00000000 NULL
P        4.45579436      10.21722973       3.55271879       0.00000000 NULL
P        4.45579436       4.71816250       1.06665961       0.00000000 NULL
P        2.95497013       6.07054267       2.81552847       0.00000000 NULL
P        2.95497013       6.15308049       5.02639110       0.00000000 NULL
P        2.95497013       8.02647478       3.84947994       0.00000000 NULL
27
Lattice="4.834977988180657 0.0 0.0 0.0 13.092080490403642 2.688050971525887e-16 0.0 -6.546040245201823 11.338074293080185" Properties=species:S:1:pos:R:3:initial_magmoms:R:1:castep_labels:S:1 n_minim_iter=6 pbc="T T T"
P        3.39627749       6.65862528       8.60381800       0.00000000 NULL
P        3.39627749      10.66785256       1.26962664       0.00000000 NULL
P        3.39627749       2.31164289       1.46462965       0.00000000 NULL
P        2.38297521       5.68428812       6.95270841       0.00000000 NULL
P        2.38297521       9.72511829       2.93898217       0.00000000 NULL
P        2.38297521       4.22871432       1.44638371       0.00000000 NULL
P        1.48984563       4.44163523       5.43518892       0.00000000 NULL
P        1.48984563       9.03223430       4.77391089       0.00000000 NULL
P        1.48984563       6.16425120       1.12897449       0.00000000 NULL
P        1.03392189       1.11580756       2.07566542       0.00000000 NULL
P        1.03392189      -5.30636505       9.33392389       0.00000000 NULL
P        1.03392189       4.19055748      11.26655928       0.00000000 NULL
P        1.25669959       9.08459223       1.17934655       0.00000000 NULL
P        1.25669959       3.02508820       2.88091336       0.00000000 NULL
P        1.25669959       7.52844030       7.27781438       0.00000000 NULL
P        3.13780093      -0.44642168       6.14962683       0.00000000 NULL
P        3.13780093      -0.99709635       8.64987339       0.00000000 NULL
P        3.13780093       1.44351803       7.87664837       0.00000000 NULL
P        2.79941551       0.56006007       3.41252094       0.00000000 NULL
P        2.79941551      -3.87074046       9.14678758       0.00000000 NULL
P        2.79941551       3.31068039      10.11684007       0.00000000 NULL
P        4.70162475       5.15360039       6.85871100       0.00000000 NULL
P        4.70162475       9.90905801       3.44556993       0.00000000 NULL
P        4.70162475       4.57546233       1.03379336       0.00000000 NULL
P        3.11989092       5.88785283       2.72608498       0.00000000 NULL
P        3.11989092       5.96297268       4.87600167       0.00000000 NULL
P        3.11989092       7.78729522       3.73598764       0.00000000 NULL
27
Lattice="5.036613790742833 0.0 0.0 0.0 13.084669922931347 -1.7545426830348574e-15 0.0 -6.542334961465674 11.33165655339272" Properties=species:S:1:pos:R:3:initial_magmoms:R:1:castep_labels:S:1 n_minim_iter=7 pbc="T T T"
P        3.53574308       6.66305977       8.60971926       0.00000000 NULL
P        3.53574308      10.66704068       1.25641790       0.00000000 NULL
P        3.53574308       2.29690444       1.46551939       0.00000000 NULL
P        2.48565339       5.68100118       6.95910503       0.00000000 NULL
P        2.48565339       9.72859611       2.93221270       0.00000000 NULL
P        2.48565339       4.21740759       1.44033883       0.00000000 NULL
P        1.54726422       4.43152244       5.42647198       0.00000000 NULL
P        1.54726422       9.02603633       4.78060955       0.00000000 NULL
P        1.54726422       6.16944611       1.12457502       0.00000000 NULL
P        1.08992533       1.10519974       2.07147182       0.00000000 NULL
P        1.08992533      -5.30098761       9.33878959       0.00000000 NULL
P        1.08992533       4.19578787      11.25305170       0.00000000 NULL
P        1.30311660       9.06867097       1.18036234       0.00000000 NULL
P        1.30311660       3.03022325       2.88777594       0.00000000 NULL
P        1.30311660       7.52811066       7.26351827       0.00000000 NULL
P        3.26800197      -0.43796851       6.17083461       0.00000000 NULL
P        3.26800197      -0.97925117       8.62553110       0.00000000 NULL
P        3.26800197       1.41721968       7.86694740       0.00000000 NULL
P        2.91084973       0.56699457       3.40628401       0.00000000 NULL
P        2.91084973      -3.87590376       9.13748285       0.00000000 NULL
P        2.91084973       3.30890919      10.11954625       0.00000000 NULL
P        4.89498537       5.15258551       6.85315086       0.00000000 NULL
P        4.89498537       9.90104494       3.44281118       0.00000000 NULL
P        4.89498537       4.57337443       1.03569452       0.00000000 NULL
P        3.25537473       5.88321027       2.71530932       0.00000000 NULL
P        3.25537473       5.95225667       4.87899234       0.00000000 NULL
P        3.25537473       7.79153793       3.73735489       0.00000000 NULL
27
Lattice="5.000751225992314 0.0 0.0 0.0 12.885478752804543 -2.80630512269813e-16 0.0 -6.442739376402273 11.15915193985336" Properties=species:S:1:pos:R:3:initial_magmoms:R:1:castep_labels:S:1 n_minim_iter=8 pbc="T T T"
P        3.51021328       6.56377783       8.48075856       0.00000000 NULL
P        3.51021328      10.50540281       1.23437432       0.00000000 NULL
P        3.51021328       2.25903749       1.44401907       0.00000000 NULL
P        2.46830375       5.59497171       6.85558968       0.00000000 NULL
P        2.46830375       9.58236834       2.88596947       0.00000000 NULL
P        2.46830375       4.15087808       1.41759279       0.00000000 NULL
P        1.53515947       4.36302883       5.34324578       0.00000000 NULL
P        1.53515947       8.88861154       4.70903525       0.00000000 NULL
P        1.53515947       6.07657775       1.10687092       0.00000000 NULL
P        1.08606610       1.08667067       2.03966657       0.00000000 NULL
P        1.08606610      -5.21967165       9.19823424       0.00000000 NULL
P        1.08606610       4.13300097      11.08040306       0.00000000 NULL
P        1.29236278       8.92899099       1.16326208       0.00000000 NULL
P        1.29236278       2.98565839       2.84478787       0.00000000 NULL
P        1.29236278       7.41356874       7.15110200       0.00000000 NULL
P        3.24458868      -0.42928985       6.08316242       0.00000000 NULL
P        3.24458868      -0.95992127       8.48934664       0.00000000 NULL
P        3.24458868       1.38921111       7.74579482       0.00000000 NULL
P        2.88805883       0.56053790       3.35272800       0.00000000 NULL
P        2.88805883      -3.81946071       8.99734788       0.00000000 NULL
P        2.88805883       3.25892281       9.96822800       0.00000000 NULL
P        4.85948737       5.07505505       6.74812903       0.00000000 NULL
P        4.85948737       9.74926301       3.38996083       0.00000000 NULL
P        4.85948737       4.50390006       1.02106209       0.00000000 NULL
P        3.23371379       5.79330054       2.67142516       0.00000000 NULL
P        3.23371379       5.85961116       4.80629392       0.00000000 NULL
P        3.23371379       7.67530643       3.68143286       0.00000000 NULL
27
Lattice="5.029401057423088 0.0 0.0 0.0 12.900627706842714 4.463440451085867e-16 0.0 -6.45031385342136 11.17227131889118" Properties=species:S:1:pos:R:3:initial_magmoms:R:1:castep_labels:S:1 n_minim_iter=9 pbc="T T T"
P        3.53047486       6.57318692       8.49285931       0.00000000 NULL
P        3.53047486      10.51875230       1.23329480       0.00000000 NULL
P        3.53047486       2.25900233       1.44611721       0.00000000 NULL
P        2.48287955       5.60163442       6.86570701       0.00000000 NULL
P        2.48287955       9.59537333       2.88826011       0.00000000 NULL
P        2.48287955       4.15393381       1.41830421       0.00000000 NULL
P        1.54292107       4.36693700       5.34870610       0.00000000 NULL
P        1.54292107       8.89896071       4.71603989       0.00000000 NULL
P        1.54292107       6.08504385       1.10752533       0.00000000 NULL
P        1.09485397       1.08590249       2.04144526       0.00000000 NULL
P        1.09485397      -5.22532164       9.21112954       0.00000000 NULL
P        1.09485397       4.13941915      11.09196783       0.00000000 NULL
P        1.29819786       8.93746236       1.16541439       0.00000000 NULL
P        1.29819786       2.99086114       2.84949467       0.00000000 NULL
P        1.29819786       7.42261805       7.15736225       0.00000000 NULL
P        3.26307824      -0.42848581       6.09485167       0.00000000 NULL
P        3.26307824      -0.95777458       8.49592508       0.00000000 NULL
P        3.26307824       1.38626038       7.75376589       0.00000000 NULL
P        2.90329291       0.56282227       3.35548029       0.00000000 NULL
P        2.90329291      -3.82579382       9.00711279       0.00000000 NULL
P        2.90329291       3.26297155       9.98194956       0.00000000 NULL
P        4.88669597       5.08160170       6.75551870       0.00000000 NULL
P        4.88669597       9.75996381       3.39371581       0.00000000 NULL
P        4.88669597       4.50937605       1.02303681       0.00000000 NULL
P        3.25373392       5.79973820       2.67233807       0.00000000 NULL
P        3.25373392       5.86475741       4.81338167       0.00000000 NULL
P        3.25373392       7.68644595       3.68655158       0.00000000 NULL
27
Lattice="5.042082527653879 0.0 0.0 0.0 12.877987928485679 -1.4879103242770949e-15 0.0 -6.43899396424284 11.152664695697938" Properties=species:S:1:pos:R:3:initial_magmoms:R:1:castep_labels:S:1 n_minim_iter=10 pbc="T T T"
P        3.53950921       6.56345007       8.48010131       0.00000000 NULL
P        3.53950921      10.50125209       1.22849954       0.00000000 NULL
P        3.53950921       2.25227973       1.44406384       0.00000000 NULL
P        2.48950807       5.59197225       6.85578840       0.00000000 NULL
P        2.48950807       9.58029475       2.88198047       0.00000000 NULL
P        2.48950807       4.14471488       1.41489583       0.00000000 NULL
P        1.54576729       4.35811966       5.33856938       0.00000000 NULL
P        1.54576729       8.88327084       4.70913767       0.00000000 NULL
P        1.54576729       6.07559139       1.10495765       0.00000000 NULL
P        1.10044734       1.08201688       2.03730538       0.00000000 NULL
P        1.10044734      -5.21564420       9.19695790       0.00000000 NULL
P        1.10044734       4.13362731      11.07106612       0.00000000 NULL
P        1.29983513       8.91984375       1.16422008       0.00000000 NULL
P        1.29983513       2.98731625       2.84574336       0.00000000 NULL
P        1.29983513       7.40982188       7.14270125       0.00000000 NULL
P        3.27120272      -0.42634121       6.08896519       0.00000000 NULL
P        3.27120272      -0.95262483       8.47740441       0.00000000 NULL
P        3.27120272       1.37896603       7.73895979       0.00000000 NULL
P        2.90913764       0.56360596       3.34825041       0.00000000 NULL
P        2.90913764      -3.82112703       8.99044241       0.00000000 NULL
P        2.90913764       3.25752107       9.96663657       0.00000000 NULL
P        4.89837683       5.07335292       6.74306171       0.00000000 NULL
P        4.89837683       9.74198024       3.38748133       0.00000000 NULL
P        4.89837683       4.50164872       1.02212166       0.00000000 NULL
P        3.26350518       5.78918592       2.66532037       0.00000000 NULL
P        3.26350518       5.85263615       4.80642244       0.00000000 NULL
P        3.26350518       7.67515982       3.68092189       0.00000000 NULL
27
Lattice="5.129788636727012 0.0 0.0 0.0 12.739737566989266 -3.2658315829196718e-15 0.0 -6.369868783494632 11.032936370559664" Properties=species:S:1:pos:R:3:initial_magmoms:R:1:castep_labels:S:1 n_minim_iter=11 pbc="T T T"
P        3.60254716       6.50687562       8.40566163       0.00000000 NULL
P        3.60254716      10.39594748       1.19498596       0.00000000 NULL
P        3.60254716       2.20678325       1.43228878       0.00000000 NULL
P        2.53541129       5.53327099       6.79854261       0.00000000 NULL
P        2.53541129       9.49094389       2.84171183       0.00000000 NULL
P        2.53541129       4.08539147       1.39268194       0.00000000 NULL
P        1.56447927       4.30262696       5.27565857       0.00000000 NULL
P        1.56447927       8.78740964       4.66892283       0.00000000 NULL
P        1.56447927       6.01956974       1.08835497       0.00000000 NULL
P        1.14183164       1.05522745       2.01109043       0.00000000 NULL
P        1.14183164      -5.15582711       9.11353738       0.00000000 NULL
P        1.14183164       4.10059966      10.94124493       0.00000000 NULL
P        1.30904564       8.80933428       1.15848069       0.00000000 NULL
P        1.30904564       2.96847535       2.82458875       0.00000000 NULL
P        1.30904564       7.33179672       7.04986693       0.00000000 NULL
P        3.32732470      -0.41141842       6.06001589       0.00000000 NULL
P        3.32732470      -0.91603187       8.35922723       0.00000000 NULL
P        3.32732470       1.32745029       7.64662963       0.00000000 NULL
P        2.94812450       0.57128825       3.30176365       0.00000000 NULL
P        2.94812450      -3.79610171       8.88730441       0.00000000 NULL
P        2.94812450       3.22481346       9.87680468       0.00000000 NULL
P        4.97853733       5.02412608       6.66588853       0.00000000 NULL
P        4.97853733       9.63063455       3.34897129       0.00000000 NULL
P        4.97853733       4.45484572       1.01807655       0.00000000 NULL
P        3.33298269       5.72419132       2.61870738       0.00000000 NULL
P        3.33298269       5.77564024       4.76628758       0.00000000 NULL
P        3.33298269       7.60977479       3.64794141       0.00000000 NULL
27
Lattice="5.094980510662702 0.0 0.0 0.0 12.765409743367353 -1.582478553260766e-16 0.0 -6.3827048716836785 11.05516912747352" Properties=species:S:1:pos:R:3:initial_magmoms:R:1:castep_labels:S:1 n_minim_iter=12 pbc="T T T"
P        3.58416003       6.54222174       8.44916356       0.00000000 NULL
P        3.58416003      10.42878428       1.16485712       0.00000000 NULL
P        3.58416003       2.17710859       1.44114845       0.00000000 NULL
P        2.51807284       5.54735004       6.83728300       0.00000000 NULL
P        2.51807284       9.53029062       2.83238157       0.00000000 NULL
P        2.51807284       4.07047395       1.38550456       0.00000000 NULL
P        1.54263034       4.29977531       5.27965938       0.00000000 NULL
P        1.54263034       8.80513636       4.69162479       0.00000000 NULL
P        1.54263034       6.04320294       1.08388496       0.00000000 NULL
P        1.16708456       1.03538170       2.00810609       0.00000000 NULL
P        1.16708456      -5.16132484       9.15444922       0.00000000 NULL
P        1.16708456       4.12594313      10.94778294       0.00000000 NULL
P        1.27443709       8.80645611       1.17348618       0.00000000 NULL
P        1.27443709       2.99574565       2.84181133       0.00000000 NULL
P        1.27443709       7.34591285       7.03987162       0.00000000 NULL
P        3.30389567      -0.40044328       6.12055225       0.00000000 NULL
P        3.30389567      -0.88192950       8.34168705       0.00000000 NULL
P        3.30389567       1.28237278       7.64809896       0.00000000 NULL
P        2.91135036       0.59512017       3.28967211       0.00000000 NULL
P        2.91135036      -3.83132534       8.89494388       0.00000000 NULL
P        2.91135036       3.23620516       9.92572226       0.00000000 NULL
P        4.93757566       5.04367082       6.67014442       0.00000000 NULL
P        4.93757566       9.63738398       3.35214986       0.00000000 NULL
P        4.93757566       4.46705982       1.03287485       0.00000000 NULL
P        3.33320275       5.73202216       2.59548291       0.00000000 NULL
P        3.33320275       5.76444792       4.79335087       0.00000000 NULL
P        3.33320275       7.65164453       3.66633535       0.00000000 NULL
27
Lattice="5.251166594515098 0.0 0.0 0.0 12.314243137704505 -3.9627181024267596e-15 0.0 -6.157121568852251 10.664447385630298" Properties=species:S:1:pos:R:3:initial_magmoms:R:1:castep_labels:S:1 n_minim_iter=13 pbc="T T T"
P        3.69368855       6.33291403       8.17605218       0.00000000 NULL
P        3.69368855      10.07133345       1.09195687       0.00000000 NULL
P        3.69368855       2.06711723       1.39643834       0.00000000 NULL
P        2.59205265       5.35481186       6.61633423       0.00000000 NULL
P        2.59205265       9.20962916       2.71887717       0.00000000 NULL
P        2.59205265       3.90692369       1.32923599       0.00000000 NULL
P        1.58581129       4.13875201       5.08808243       0.00000000 NULL
P        1.58581129       8.49415420       4.53614179       0.00000000 NULL
P        1.58581129       5.83845849       1.04022317       0.00000000 NULL
P        1.23248856       0.98779758       1.92977049       0.00000000 NULL
P        1.23248856      -4.97979009       8.84410434       0.00000000 NULL
P        1.23248856       3.99199251      10.55501994       0.00000000 NULL
P        1.28488381       8.48282615       1.14053434       0.00000000 NULL
P        1.28488381       2.90344020       2.74783727       0.00000000 NULL
P        1.28488381       7.08509835       6.77607578       0.00000000 NULL
P        3.40440802      -0.37842180       5.93933346       0.00000000 NULL
P        3.40440802      -0.82429701       8.02250355       0.00000000 NULL
P        3.40440802       1.20271881       7.36705776       0.00000000 NULL
P        2.99342107       0.59503777       3.15793220       0.00000000 NULL
P        2.99342107      -3.71979095       8.57016346       0.00000000 NULL
P        2.99342107       3.12475318       9.60079911       0.00000000 NULL
P        5.08427504       4.87467527       6.42433587       0.00000000 NULL
P        5.08427504       9.28342200       3.23068684       0.00000000 NULL
P        5.08427504       4.31326744       1.00942468       0.00000000 NULL
P        3.45464485       5.52909312       2.48306883       0.00000000 NULL
P        3.45464485       5.54297569       4.63457787       0.00000000 NULL
P        3.45464485       7.39929589       3.54680068       0.00000000 NULL
27
Lattice="5.317353022899043 0.0 0.0 0.0 12.677863934318879 -3.0395574295584612e-15 0.0 -6.338931967159438 10.97935223284268" Properties=species:S:1:pos:R:3:initial_magmoms:R:1:castep_labels:S:1 n_minim_iter=14 pbc="T T T"
P        3.74254473       6.52229718       8.42123592       0.00000000 NULL
P        3.74254473      10.37078761       1.12025922       0.00000000 NULL