18
Lattice="9.269756300700548 -9.797784804552492e-15 -1.1068534398943025e-15 4.634878150350284 8.027844443297532 -6.2063296063220225e-16 4.6348781503502785 2.675948147765841 4.756699320655289" Properties=species:S:1:pos:R:3:initial_magmoms:R:1:castep_labels:S:1:forces:R:3 n_minim_iter=1 energy=-95.661408023643 stress="0.0046045592107975515 0.0 -0.0 0.0 0.0046045592107975515 -0.0 -0.0 -0.0 0.0023472262506185984" free_energy=-95.661408023643 pbc="T T T"
P        7.49947731       4.35476080      -0.21595028       0.00000000 NULL       0.03135400       0.00203700       0.08038600
P       11.01844046       4.31735747      -0.21595028       0.00000000 NULL      -0.01744400       0.02613500       0.08038700
P        9.29135112       7.38357062      -0.21595028       0.00000000 NULL      -0.01391300      -0.02817600       0.08038700
P        7.07304426       4.01662789       3.65619531       0.00000000 NULL      -0.09120200      -0.10821600      -0.02122400
P       11.52448867       4.11712207       3.65619531       0.00000000 NULL       0.13931900      -0.02487400      -0.02122400
P        9.21173596       7.92193892       3.65619531       0.00000000 NULL      -0.04811600       0.13309100      -0.02122400
P       12.17253459       7.52784470       1.35062725       0.00000000 NULL      -0.03723300      -0.10916700      -0.00393600
P        5.93394055       6.77780184       1.35062725       0.00000000 NULL       0.11315800       0.02233700      -0.00393700
P        9.70279375       1.75004235       1.35062725       0.00000000 NULL      -0.07592500       0.08682900      -0.00393700
P       13.48136652       5.21893860       4.17834855       0.00000000 NULL      -0.05713600       0.04273700       0.10092000
P        7.27909593       9.06573658       4.17834855       0.00000000 NULL      -0.00844500      -0.07085000       0.10091900
P        7.04880644       1.77101370       4.17834855       0.00000000 NULL       0.06557800       0.02811000       0.10092100
P        7.61655111       6.36223974       2.81994211       0.00000000 NULL      -0.00531700       0.01987000      -0.06759100
P        9.22137580       3.41500688       2.81994211       0.00000000 NULL      -0.01454900      -0.01453800      -0.06759200
P       10.97134198       6.27844226       2.81994211       0.00000000 NULL       0.01986700      -0.00533000      -0.06759000
P        5.90502261       1.00015319       0.89069815       0.00000000 NULL       0.06004900      -0.05039200      -0.08855500
P        5.45108692       4.61382300       0.89069815       0.00000000 NULL       0.01362100       0.07720200      -0.08855600
P        2.54852491       2.41386826       0.89069815       0.00000000 NULL      -0.07366600      -0.02680500      -0.08855500
18
Lattice="9.237620159972513 -1.1001289477563027e-14 -1.2892227552022688e-15 4.618810079986265 8.000013729047462 -7.661314698984791e-16 4.618810079986262 2.6666712430158177 4.748285998352433" Properties=species:S:1:pos:R:3:initial_magmoms:R:1:castep_labels:S:1:forces:R:3 n_minim_iter=2 energy=-95.668187039874 stress="0.00019113516537318053 0.0 -0.0 0.0 0.00019116366323591692 -2.8497862736421728e-08 -0.0 -2.8497862736421728e-08 -0.0010726310555361773" free_energy=-95.668187039874 pbc="T T T"
P        7.47354490       4.33966816      -0.21539734       0.00000000 NULL       0.07742100       0.03995000       0.10864900
P       10.98020499       4.30244566      -0.21539734       0.00000000 NULL      -0.07330900       0.04707300       0.10865000
P        9.25911058       7.35791363      -0.21539734       0.00000000 NULL      -0.00411300      -0.08702200       0.10864800
P        7.04832998       4.00247338       3.64968334       0.00000000 NULL      -0.11808300      -0.09848500      -0.05173800
P       11.48483170       4.10279612       3.64968334       0.00000000 NULL       0.14433100      -0.05302100      -0.05173700
P        9.17969879       7.89475795       3.64968334       0.00000000 NULL      -0.02624800       0.15150400      -0.05173700
P       12.13025612       7.50151558       1.34822998       0.00000000 NULL       0.02761100      -0.09770700       0.01717500
P        5.91360919       6.75435217       1.34822998       0.00000000 NULL       0.07081300       0.07276700       0.01717500
P        9.66899516       1.74415971       1.34822998       0.00000000 NULL      -0.09842500       0.02494300       0.01717400
P       13.43450837       5.20093647       4.17117282       0.00000000 NULL      -0.01628900       0.04507500       0.06884100
P        7.25384303       9.03415730       4.17117282       0.00000000 NULL      -0.03089300      -0.03664400       0.06884000
P        7.02450908       1.76493369       4.17117282       0.00000000 NULL       0.04718000      -0.00843100       0.06884100
P        7.59013497       6.34022549       2.81481064       0.00000000 NULL       0.04585700      -0.01603500      -0.10374500
P        9.18937649       3.40313696       2.81481064       0.00000000 NULL      -0.00904200       0.04772900      -0.10374300
P       10.93334901       6.25666501       2.81481064       0.00000000 NULL      -0.03681400      -0.03169600      -0.10374500
P        5.88467874       0.99657888       0.88893439       0.00000000 NULL       0.00837200       0.01566300      -0.03918200
P        5.43221816       4.59799184       0.88893439       0.00000000 NULL      -0.01775000      -0.00058200      -0.03918300
P        2.53953334       2.40544301       0.88893439       0.00000000 NULL       0.00938100      -0.01508000      -0.03918200
18
Lattice="9.224929351291655 -1.0996020850755537e-14 -1.323886456144955e-15 4.612464675645835 7.989023166335272 -7.979500105192874e-16 4.612464675645834 2.663007722111754 4.763554181139607" Properties=species:S:1:pos:R:3:initial_magmoms:R:1:castep_labels:S:1:forces:R:3 n_minim_iter=3 energy=-95.670054893563 stress="-0.00043721221764947486 2.8484736311777636e-08 2.8484736311777636e-08 2.8484736311777636e-08 -0.0004371837329131631 2.8484736311777636e-08 2.8484736311777636e-08 2.8484736311777636e-08 0.0012856300886957717" free_energy=-95.670054893563 pbc="T T T"
P        7.46402309       4.33408457      -0.21501898       0.00000000 NULL       0.05172900       0.03403500       0.06422800
P       10.96441982       4.29699133      -0.21501898       0.00000000 NULL      -0.05534100       0.02778200       0.06423000
P        9.24634514       7.34697044      -0.21501898       0.00000000 NULL       0.00361200      -0.06181500       0.06423100
P        7.03749036       3.99599572       3.66091667       0.00000000 NULL      -0.11621500      -0.07341900      -0.02319300
P       11.47047971       4.09664757       3.66091667       0.00000000 NULL       0.12169200      -0.06393600      -0.02319500
P        9.16681797       7.88540304       3.66091667       0.00000000 NULL      -0.00547400       0.13735600      -0.02319300
P       12.11383547       7.49023777       1.35272701       0.00000000 NULL       0.03218300      -0.10115200       0.00843100
P        5.90620477       6.74577037       1.35272701       0.00000000 NULL       0.07150600       0.07844500       0.00843200
P        9.65474780       1.74203819       1.35272701       0.00000000 NULL      -0.10369200       0.02270300       0.00843200
P       13.41587225       5.19423635       4.18528646       0.00000000 NULL       0.00434600       0.03917000       0.09140700
P        7.24358194       9.02136801       4.18528646       0.00000000 NULL      -0.03609500      -0.01582100       0.09140800
P        7.01533386       1.76244197       4.18528646       0.00000000 NULL       0.03175100      -0.02334900       0.09140600
P        7.58013832       6.33137263       2.82284321       0.00000000 NULL       0.02118400      -0.00252500      -0.06243800
P        9.17666000       3.39890604       2.82284321       0.00000000 NULL      -0.00840600       0.01960800      -0.06243700
P       10.91798973       6.24776767       2.82284321       0.00000000 NULL      -0.01277700      -0.01708300      -0.06243700
P        5.87670031       0.99533510       0.89137962       0.00000000 NULL       0.00697500       0.02529000      -0.07843700
P        5.42459371       4.59170422       0.89137962       0.00000000 NULL      -0.02539200      -0.00660200      -0.07843600
P        2.53609999       2.40198385       0.89137962       0.00000000 NULL       0.01841500      -0.01868900      -0.07843700
18
Lattice="9.227041361002899 -8.699543947513268e-15 -1.3187954558254085e-15 4.6135206805014555 7.990852220398254 -7.991447321718364e-16 4.6135206805014555 2.663617406799415 4.744962445507071" Properties=species:S:1:pos:R:3:initial_magmoms:R:1:castep_labels:S:1:forces:R:3 n_minim_iter=4 energy=-95.681985107606 stress="-8.623568827509672e-05 2.858325763178546e-08 2.858325763178546e-08 2.858325763178546e-08 -8.623568827509672e-05 -2.858325763178546e-08 2.858325763178546e-08 -2.858325763178546e-08 -0.00028943406677945955" free_energy=-95.681985107606 pbc="T T T"
P        7.47334967       4.33937335      -0.20379919       0.00000000 NULL      -0.07537800      -0.00861600      -0.05554600
P       10.95940032       4.30242399      -0.20379919       0.00000000 NULL       0.04515000      -0.06097300      -0.05554300
P        9.24837408       7.33990709      -0.20379919       0.00000000 NULL       0.03022900       0.06958600      -0.05554500
P        7.02533416       3.98663199       3.64213576       0.00000000 NULL      -0.08900300      -0.07465800      -0.07035500
P       11.48889106       4.09080186       3.64213576       0.00000000 NULL       0.10915800      -0.03975000      -0.07035400
P        9.16689885       7.90427059       3.64213576       0.00000000 NULL      -0.02015300       0.11440700      -0.07035300
P       12.11995436       7.48020326       1.34895146       0.00000000 NULL       0.00767400       0.02502100       0.06227300
P        5.91605949       6.75608674       1.34895146       0.00000000 NULL      -0.02550600      -0.00586600       0.06227400
P        9.64511022       1.74541444       1.34895146       0.00000000 NULL       0.01783000      -0.01915400       0.06227200
P       13.41804608       5.20041712       4.17844991       0.00000000 NULL      -0.04105600       0.05140400      -0.01708600
P        7.24136635       9.02016022       4.17844991       0.00000000 NULL      -0.02399100      -0.06125900      -0.01708800
P        7.02171165       1.76112711       4.17844991       0.00000000 NULL       0.06504700       0.00985100      -0.01708800
P        7.58580883       6.33175843       2.80187603       0.00000000 NULL      -0.00480900       0.06242400       0.10568800
P        9.17771465       3.40362394       2.80187603       0.00000000 NULL      -0.05165600      -0.03537800       0.10568900
P       10.91760059       6.24632206       2.80187603       0.00000000 NULL       0.05646700      -0.02704600       0.10568900
P        5.87908772       0.99777151       0.88096037       0.00000000 NULL       0.05871000      -0.02193500      -0.02497500
P        5.42340202       4.59255357       0.88096037       0.00000000 NULL      -0.01035900       0.06181700      -0.02497700
P        2.53807229       2.40052714       0.88096037       0.00000000 NULL      -0.04835400      -0.03987500      -0.02497700
18
Lattice="9.246180543660056 -5.1924367963617674e-15 -1.33121726501971e-15 4.623090271830032 8.007427238787024 -8.07493727658835e-16 4.623090271830033 2.669142412929007 4.734713676509716" Properties=species:S:1:pos:R:3:initial_magmoms:R:1:castep_labels:S:1:forces:R:3 n_minim_iter=5 energy=-95.713362445611 stress="-0.0003481963675283503 -0.0 -2.852665635985174e-08 -0.0 -0.00034825342084107 -2.852665635985174e-08 -2.852665635985174e-08 -2.852665635985174e-08 -0.00037044715948903465" free_energy=-95.713362445611 pbc="T T T"
P        7.48177020       4.35488808      -0.19849054       0.00000000 NULL      -0.10557000       0.06938200       0.03210700
P       10.98003227       4.30195902      -0.19849054       0.00000000 NULL      -0.00730000      -0.12611900       0.03210500
P        9.27673915       7.35800737      -0.19849054       0.00000000 NULL       0.11287100       0.05673000       0.03210500
P        6.98208774       3.94942325       3.60341041       0.00000000 NULL      -0.01308500      -0.01495100       0.00018500
P       11.58101635       4.07195373       3.60341041       0.00000000 NULL       0.01949100      -0.00385500       0.00018600
P        9.17543754       7.99347749       3.60341041       0.00000000 NULL      -0.00640800       0.01880700       0.00018500
P       12.15449659       7.47710980       1.36822365       0.00000000 NULL      -0.07803300       0.05960100      -0.09971900
P        5.93974575       6.78754792       1.36822365       0.00000000 NULL      -0.01259800      -0.09737900      -0.09972100
P        9.64429928       1.75019676       1.36822365       0.00000000 NULL       0.09063500       0.03778000      -0.09972200
P       13.43131361       5.23801775       4.18589696       0.00000000 NULL       0.03551900      -0.10871200       0.04404300
P        7.24044784       9.01284992       4.18589696       0.00000000 NULL       0.07638900       0.08511400       0.04404100
P        7.06678017       1.76398680       4.18589696       0.00000000 NULL      -0.11190800       0.02359400       0.04404400
P        7.60797120       6.36227170       2.80735307       0.00000000 NULL       0.10101900       0.02815800       0.02911100
P        9.17848656       3.40756049       2.80735307       0.00000000 NULL      -0.07489500       0.07340800       0.02910800
P       10.95208385       6.24502229       2.80735307       0.00000000 NULL      -0.02612600      -0.10156500       0.02910900
P        5.91204827       0.99768052       0.85486071       0.00000000 NULL       0.21335500      -0.04340300      -0.00572100
P        5.42613973       4.62114373       0.85486071       0.00000000 NULL      -0.06908400       0.20647300      -0.00572300
P        2.53108281       2.38860299       0.85486071       0.00000000 NULL      -0.14427000      -0.16306300      -0.00572200
18
Lattice="9.282223120187906 -3.737769055046692e-15 -1.361873855095766e-15 4.641111560093955 8.038641025677988 -8.294892221640761e-16 4.641111560093957 2.679547008559329 4.7295816846898395" Properties=species:S:1:pos:R:3:initial_magmoms:R:1:castep_labels:S:1:forces:R:3 n_minim_iter=6 energy=-95.739317363564 stress="0.0005222090317763524 2.8336265222006212e-08 2.8336265222006212e-08 2.8336265222006212e-08 0.0005222090317763524 0.0 2.8336265222006212e-08 0.0 -0.00028809480851213715" free_energy=-95.739317363564 pbc="T T T"
P        7.49230384       4.38857377      -0.18602215       0.00000000 NULL      -0.08418000      -0.09212500      -0.04510000
P       11.01767794       4.29423858      -0.18602215       0.00000000 NULL       0.12187300      -0.02684100      -0.04509800
P        9.33668756       7.39446970      -0.18602215       0.00000000 NULL      -0.03769000       0.11896700      -0.04509800
P        6.95088555       3.91821414       3.57085517       0.00000000 NULL       0.10052500      -0.00063000       0.02811800
P       11.69573048       4.06053639       3.57085517       0.00000000 NULL      -0.04971500       0.08737200       0.02811800
P        9.20005332       8.09853152       3.57085517       0.00000000 NULL      -0.05080800      -0.08674200       0.02811900
P       12.20005458       7.49327899       1.37300609       0.00000000 NULL       0.04814100      -0.03231700       0.03310600
P        5.97504898       6.81891770       1.37300609       0.00000000 NULL       0.00391500       0.05784900       0.03310800
P        9.67156579       1.76508536       1.37300609       0.00000000 NULL      -0.05205800      -0.02553300       0.03310700
P       13.47494384       5.26910517       4.20610385       0.00000000 NULL      -0.01385000      -0.02424200      -0.05476500
P        7.26379538       9.03509110       4.20610385       0.00000000 NULL       0.02791900       0.00012500      -0.05476500
P        7.10793013       1.77308578       4.20610385       0.00000000 NULL      -0.01406600       0.02411600      -0.05476800
P        7.65830957       6.40649840       2.81527665       0.00000000 NULL       0.01558300       0.05790400       0.02023800
P        9.18710109       3.42904144       2.81527665       0.00000000 NULL      -0.05793800      -0.01545800       0.02023900
P       11.00125869       6.24174221       2.81527665       0.00000000 NULL       0.04235500      -0.04244600       0.02023900
P        5.98421651       0.99382290       0.82835438       0.00000000 NULL       0.13092300       0.03817800       0.01840000
P        5.42943899       4.68557207       0.82835438       0.00000000 NULL      -0.09852900       0.09429700       0.01840100
P        2.50967918       2.35924606       0.82835438       0.00000000 NULL      -0.03240100      -0.13247400       0.01839900
18
Lattice="9.297263274330076 -2.146556215370237e-15 -1.375652595494161e-15 4.648631637165038 8.05166618124194 -8.344796889774298e-16 4.6486316371650425 2.6838887270806473 4.733186468675954" Properties=species:S:1:pos:R:3:initial_magmoms:R:1:castep_labels:S:1:forces:R:3 n_minim_iter=7 energy=-95.752631011707 stress="0.00043362055370458556 2.8223155018522887e-08 2.8223155018522887e-08 2.8223155018522887e-08 0.00043362055370458556 2.8223155018522887e-08 2.8223155018522887e-08 2.8223155018522887e-08 0.0002663983602198375" free_energy=-95.752631011707 pbc="T T T"
P        7.49014967       4.38723355      -0.18332461       0.00000000 NULL      -0.12374500      -0.03548300      -0.00968000
P       11.04999600       4.29304312      -0.18332461       0.00000000 NULL       0.09260100      -0.08942400      -0.00967900
P        9.35164414       7.42305569      -0.18332461       0.00000000 NULL       0.03114500       0.12490900      -0.00967800
P        6.95266197       3.90401546       3.56781265       0.00000000 NULL       0.03082200       0.03016200      -0.02515600
P       11.73721899       4.06917417       3.56781265       0.00000000 NULL      -0.04153000       0.01161300      -0.02515700
P        9.20190885       8.13014274       3.56781265       0.00000000 NULL       0.01071000      -0.04177300      -0.02515600
P       12.23247061       7.48554397       1.38301680       0.00000000 NULL       0.01464600       0.02722200      -0.04351400
P        5.99562000       6.85085831       1.38301680       0.00000000 NULL      -0.03090100      -0.00093000      -0.04351200
P        9.66369920       1.76693008       1.38301680       0.00000000 NULL       0.01625300      -0.02629600      -0.04351200
P       13.49261887       5.28009922       4.21470272       0.00000000 NULL       0.04985200       0.01292500      -0.03760000
P        7.27551705       9.04490110       4.21470272       0.00000000 NULL      -0.03612000       0.03671100      -0.03759800
P        7.12365389       1.77833204       4.21470272       0.00000000 NULL      -0.01373100      -0.04963600      -0.03760100
P        7.68258110       6.43191544       2.81638886       0.00000000 NULL       0.01739400      -0.00142100       0.03818600
P        9.18303383       3.43735268       2.81638886       0.00000000 NULL      -0.00746700       0.01577300       0.03818700
P       11.02617488       6.23406424       2.81638886       0.00000000 NULL      -0.00992600      -0.01435200       0.03818700
P        6.03170288       1.00389237       0.81858673       0.00000000 NULL       0.05477300      -0.05718300       0.07776100
P        5.41201553       4.72166173       0.81858673       0.00000000 NULL       0.02213300       0.07602900       0.07776200
P        2.50217649       2.32611207       0.81858673       0.00000000 NULL      -0.07690900      -0.01884700       0.07776000
18
Lattice="9.308756495178654 2.2506647034963153e-15 -1.3860295551121845e-15 4.654378247589324 8.061619602468113 -8.442706535402404e-16 4.654378247589331 2.68720653415604 4.716826905245237" Properties=species:S:1:pos:R:3:initial_magmoms:R:1:castep_labels:S:1:forces:R:3 n_minim_iter=8 energy=-95.761695879359 stress="0.0006383346627539537 -0.0 -0.0 -0.0 0.0006384194161944608 2.8251146835758075e-08 -0.0 2.8251146835758075e-08 0.0003257922253099621" free_energy=-95.761695879359 pbc="T T T"
P        7.46423409       4.37671453      -0.17178151       0.00000000 NULL      -0.00823700       0.05457800       0.01389800
P       11.09504998       4.27585908      -0.17178151       0.00000000 NULL      -0.04315100      -0.03441900       0.01389700
P        9.36698541       7.47066560      -0.17178151       0.00000000 NULL       0.05138200      -0.02015200       0.01389600
P        6.95210364       3.89530401       3.53933175       0.00000000 NULL       0.03801700      -0.03807700       0.03317000
P       11.76802894       4.07304636       3.53933175       0.00000000 NULL       0.01396600       0.05196000       0.03317000
P        9.20613690       8.15488884       3.53933175       0.00000000 NULL      -0.05198000      -0.01388400       0.03316800
P       12.27219622       7.47216864       1.37645373       0.00000000 NULL      -0.10553600       0.03032100       0.02563400
P        6.01032701       6.89194937       1.37645373       0.00000000 NULL       0.02651100      -0.10655600       0.02563400
P        9.64374624       1.75912119       1.37645373       0.00000000 NULL       0.07902300       0.07623400       0.02563700
P       13.52271739       5.30201508       4.19927357       0.00000000 NULL      -0.05425700      -0.04263200      -0.13344400
P        7.26447454       9.06000926       4.19927357       0.00000000 NULL       0.06404700      -0.02566700      -0.13344100
P        7.13907754       1.76121487       4.19927357       0.00000000 NULL      -0.00979400       0.06830700      -0.13344200
P        7.70829924       6.44557129       2.80192075       0.00000000 NULL       0.01984000      -0.01675100       0.04924900
P        9.18133489       3.45279732       2.80192075       0.00000000 NULL       0.00458600       0.02555500       0.04925200
P       11.03663535       6.22487060       2.80192075       0.00000000 NULL      -0.02442500      -0.00880600       0.04925100
P        6.07407168       1.00058464       0.82837547       0.00000000 NULL       0.08695800       0.03229700       0.01148900
P        5.40518893       4.76000806       0.82837547       0.00000000 NULL      -0.07145000       0.05915400       0.01149100
P        2.48387412       2.30102690       0.82837547       0.00000000 NULL      -0.01549900      -0.09146000       0.01149100
18
Lattice="9.32743338974962 4.517499221595759e-15 -1.4080649227232111e-15 4.663716694874805 8.077794267630374 -8.571268722532278e-16 4.663716694874814 2.6925980892101284 4.666148073057432" Properties=species:S:1:pos:R:3:initial_magmoms:R:1:castep_labels:S:1:forces:R:3 n_minim_iter=9 energy=-95.768871269535 stress="0.00048869176028733 2.8443732046291254e-08 2.8443732046291254e-08 2.8443732046291254e-08 0.00048869176028733 -0.0 2.8443732046291254e-08 -0.0 9.540027728326086e-05" free_energy=-95.768871269535 pbc="T T T"
P        7.45403138       4.38517976      -0.15035889       0.00000000 NULL       0.03337700      -0.01330500      -0.03517400
P       11.13017401       4.26279066      -0.15035889       0.00000000 NULL      -0.00516700       0.03555800      -0.03517200
P        9.39809477       7.50761812      -0.15035889       0.00000000 NULL      -0.02821000      -0.02225300      -0.03517200
P        6.96348778       3.88397614       3.49181601       0.00000000 NULL       0.02801900       0.01110400      -0.00475400
P       11.80950087       4.08856925       3.49181601       0.00000000 NULL      -0.02362300       0.01871400      -0.00475400
P        9.20931150       8.18304314       3.49181601       0.00000000 NULL      -0.00439300      -0.02981700      -0.00475400
P       12.30050740       7.46849158       1.36725534       0.00000000 NULL      -0.07723200      -0.01054000      -0.09194500
P        6.03670964       6.91830610       1.36725534       0.00000000 NULL       0.04774200      -0.06161600      -0.09194400
P        9.64508312       1.76879085       1.36725534       0.00000000 NULL       0.02948700       0.07215400      -0.09194500
P       13.55361989       5.32515971       4.11981228       0.00000000 NULL       0.01483900      -0.01523200       0.06618000
P        7.26633324       9.07519929       4.11981228       0.00000000 NULL       0.00577000       0.02046600       0.06618000
P        7.16234702       1.75522954       4.11981228       0.00000000 NULL      -0.02060900      -0.00523700       0.06617900
P        7.74144700       6.45027912       2.77042497       0.00000000 NULL      -0.00436400      -0.00907700       0.08401400
P        9.19803770       3.47915020       2.77042497       0.00000000 NULL       0.01004400       0.00075800       0.08401500
P       11.04281546       6.22615921       2.77042497       0.00000000 NULL      -0.00567800       0.00831900       0.08401500
P        6.12035616       1.00843483       0.83953039       0.00000000 NULL       0.06697200       0.01409300      -0.01832200
P        5.39392513       4.79616650       0.83953039       0.00000000 NULL      -0.04569200       0.05095600      -0.01832200
P        2.47686879       2.27319294       0.83953039       0.00000000 NULL      -0.02128200      -0.06504600      -0.01832300
18
Lattice="9.329742815632041 5.17069579665457e-15 -1.408764237155461e-15 4.664871407816015 8.079794289112709 -8.622403414329912e-16 4.664871407816024 2.6932647630375732 4.664197582938828" Properties=species:S:1:pos:R:3:initial_magmoms:R:1:castep_labels:S:1:forces:R:3 n_minim_iter=10 energy=-95.772421735652 stress="0.0006362371685892156 -2.844153636965649e-08 -2.844153636965649e-08 -2.844153636965649e-08 0.000636208727052846 2.844153636965649e-08 -2.844153636965649e-08 2.844153636965649e-08 2.3350501359487978e-05" free_energy=-95.772421735652 pbc="T T T"
P        7.45754452       4.38311985      -0.14966381       0.00000000 NULL      -0.00028300       0.01367600       0.01026700
P       11.13482023       4.26686309      -0.14966381       0.00000000 NULL      -0.01170300      -0.00708100       0.01026500
P        9.39686368       7.50960564      -0.14966381       0.00000000 NULL       0.01198300      -0.00659600       0.01026600
P        6.96830486       3.88233229       3.48677240       0.00000000 NULL       0.02311900       0.01717100       0.02501600
P       11.81313481       4.09356289       3.48677240       0.00000000 NULL      -0.02642900       0.01143800       0.02501600
P        9.20778877       8.18369340       3.48677240       0.00000000 NULL       0.00330800      -0.02860500       0.02501600
P       12.29765700       7.46220629       1.35994054       0.00000000 NULL      -0.03529200       0.02545200      -0.02265200
P        6.04819692       6.91898022       1.35994054       0.00000000 NULL      -0.00439500      -0.04329000      -0.02265400
P        9.64337453       1.77840207       1.35994054       0.00000000 NULL       0.03969000       0.01783700      -0.02265200
P       13.55995394       5.33200294       4.11414357       0.00000000 NULL       0.01850300       0.00483700       0.03473700
P        7.26185866       9.07726312       4.11414357       0.00000000 NULL      -0.01343900       0.01360700       0.03473800
P        7.16741584       1.75032252       4.11414357       0.00000000 NULL      -0.00506500      -0.01844300       0.03474000
P        7.74478543       6.44594420       2.77804466       0.00000000 NULL      -0.00244800      -0.00457500       0.01912500
P        9.20474148       3.48420883       2.77804466       0.00000000 NULL       0.00518600       0.00016900       0.01912300
P       11.03970152       6.22943554       2.77804466       0.00000000 NULL      -0.00273800       0.00440700       0.01912500
P        6.13098645       1.01442654       0.84404349       0.00000000 NULL       0.04482300      -0.04167700      -0.06649300
P        5.38573043       4.80237675       0.84404349       0.00000000 NULL       0.01368500       0.05965400      -0.06649200
P        2.47789734       2.26299100       0.84404349       0.00000000 NULL      -0.05850400      -0.01797800      -0.06649200
18
Lattice="9.329470017349418 5.938064743808966e-15 -1.4103276800473447e-15 4.664735008674703 8.07955803886985 -8.457976485655747e-16 4.664735008674713 2.6931860129566205 4.670930700975461" Properties=species:S:1:pos:R:3:initial_magmoms:R:1:castep_labels:S:1:forces:R:3 n_minim_iter=11 energy=-95.773982247681 stress="0.0006310400671666596 0.0 -0.0 0.0 0.0006310400671666596 -0.0 -0.0 -0.0 0.0003105212464818206" free_energy=-95.773982247681 pbc="T T T"
P        7.45921978       4.38305748      -0.14875611       0.00000000 NULL      -0.00000100       0.02100600      -0.00657800
P       11.13349101       4.26834508      -0.14875611       0.00000000 NULL      -0.01819100      -0.01050400      -0.00657800
P        9.39569925       7.50771351      -0.14875611       0.00000000 NULL       0.01819200      -0.01050200      -0.00657800
P        6.97231289       3.88435096       3.49401738       0.00000000 NULL       0.00945200      -0.02167900      -0.00436000
P       11.80883698       4.09602461       3.49401738       0.00000000 NULL       0.01404800       0.01902500      -0.00436000
P        9.20726017       8.17874051       3.49401738       0.00000000 NULL      -0.02350000       0.00265300      -0.00436000
P       12.29436709       7.46194137       1.36082678       0.00000000 NULL      -0.01674800       0.00281700      -0.03190200
P        6.04952569       6.91626354       1.36082678       0.00000000 NULL       0.00593400      -0.01591300      -0.03190200
P        9.64451726       1.78091116       1.36082678       0.00000000 NULL       0.01081400       0.01309600      -0.03190200
P       13.56287207       5.33676744       4.11936331       0.00000000 NULL      -0.00082400      -0.02857100       0.04528900
P        7.25572781       9.07740804       4.11936331       0.00000000 NULL       0.02515500       0.01357200       0.04528900