22
Lattice="5.064400438035543 1.183537289372641 0.0 0.4819049630602694 6.520686948063605 0.0 0.0 0.0 13.058763678362256" Properties=species:S:1:pos:R:3:initial_magmoms:R:1:castep_labels:S:1:forces:R:3 n_minim_iter=1 energy=-116.990670530842 stress="-0.00039408087091837447 -8.732969901616096e-05 0.0 -8.732969901616096e-05 -5.037798092394046e-05 0.0 0.0 0.0 -0.0007634564743766246" free_energy=-116.990670530842 pbc="T T T"
P        0.15599383       3.74742763       1.56559464       0.00000000 NULL       0.00821100       0.00480100       0.00575700
P        5.39031157       3.95679660       8.09497648       0.00000000 NULL      -0.00821000      -0.00480100       0.00575700
P        1.62165154       5.07393222       0.49756671       0.00000000 NULL       0.01538000      -0.02025200      -0.02151000
P        3.92465386       2.63029201       7.02694855       0.00000000 NULL      -0.01538000       0.02025100      -0.02150900
P        1.63599764       3.87974207      10.50539598       0.00000000 NULL       0.02468300       0.02362400       0.01331800
P        3.91030776       3.82448216       3.97601414       0.00000000 NULL      -0.02468300      -0.02362400       0.01331700
P        3.66781915       5.49819880       8.51252510       0.00000000 NULL       0.01231300      -0.02046100      -0.02802700
P        1.87848624       2.20602543       1.98314326       0.00000000 NULL      -0.01231300       0.02046100      -0.02802800
P        4.08646257       7.16949625       4.19560794       0.00000000 NULL      -0.01980200       0.00154700       0.02331000
P        1.45984283       0.53472798      10.72498978       0.00000000 NULL       0.01980200      -0.00154700       0.02331100
P        2.84936649       4.29973669       5.92276890       0.00000000 NULL      -0.01437400      -0.01844600       0.01734000
P        2.69693890       3.40448754      12.45215074       0.00000000 NULL       0.01437400       0.01844600       0.01734100
P        1.71010441       1.42958139      12.89149219       0.00000000 NULL      -0.02323600      -0.01703700      -0.00649400
P        3.83620098       6.27464284       6.36211035       0.00000000 NULL       0.02323600       0.01703800      -0.00649600
P        0.38037292       4.24693386       3.75287372       0.00000000 NULL       0.01570200      -0.00990200      -0.02021800
P        5.16593248       3.45729037      10.28225556       0.00000000 NULL      -0.01570200       0.00990200      -0.02021800
P        5.41995572       6.59685233      11.54436403       0.00000000 NULL      -0.00985400      -0.03789900       0.00255900
P        0.12634968       1.10737190       5.01498219       0.00000000 NULL       0.00985400       0.03789900       0.00255900
P        3.73839672       1.56183255       0.62099931       0.00000000 NULL       0.00458400       0.00330100       0.01683300
P        1.80790868       6.14239168       7.15038114       0.00000000 NULL      -0.00458500      -0.00330100       0.01683300
P        3.49276323       0.86450149       9.70929279       0.00000000 NULL       0.01387200      -0.00334400      -0.00286700
P        2.05354217       6.83972274       3.17991095       0.00000000 NULL      -0.01387200       0.00334400      -0.00286800
22
Lattice="5.066440754983507 1.1840251216364508 0.0 0.48264305045187983 6.521047114349328 0.0 0.0 0.0 13.068455733074211" Properties=species:S:1:pos:R:3:initial_magmoms:R:1:castep_labels:S:1:forces:R:3 n_minim_iter=2 energy=-116.990846008651 stress="0.00016691254010345316 -7.405241471407085e-05 0.0 -7.405241471407085e-05 0.0003622251946978215 0.0 0.0 0.0 4.673645397135663e-05" free_energy=-116.990846008651 pbc="T T T"
P        0.15639051       3.74763536       1.56676982       0.00000000 NULL       0.01561400       0.00558900       0.01388800
P        5.39269329       3.95743687       8.10099769       0.00000000 NULL      -0.01561400      -0.00558900       0.01388800
P        1.62273866       5.07427186       0.49788664       0.00000000 NULL       0.00887400      -0.02623000      -0.02441100
P        3.92634514       2.63080036       7.03211451       0.00000000 NULL      -0.00887300       0.02623000      -0.02441000
P        1.63701024       3.88012507      10.51322352       0.00000000 NULL       0.01993400       0.02191100       0.02139200
P        3.91207356       3.82494716       3.97899565       0.00000000 NULL      -0.01993400      -0.02191100       0.02139200
P        3.66971901       5.49873242       8.51877868       0.00000000 NULL       0.01079900      -0.01532900      -0.03440900
P        1.87936479       2.20633981       1.98455081       0.00000000 NULL      -0.01079900       0.01532900      -0.03441000
P        4.08859098       7.17019770       4.19877536       0.00000000 NULL      -0.02096000      -0.00123700       0.02623000
P        1.46049282       0.53487453      10.73300323       0.00000000 NULL       0.02096000       0.00123700       0.02623100
P        2.85078991       4.30014677       5.92720450       0.00000000 NULL      -0.00752300      -0.01461200       0.01410000
P        2.69829389       3.40492546      12.46143236       0.00000000 NULL       0.00752300       0.01461200       0.01410100
P        1.71082749       1.42975747      12.90104519       0.00000000 NULL      -0.01266300      -0.01017500      -0.00063800
P        3.83825631       6.27531476       6.36681733       0.00000000 NULL       0.01266300       0.01017600      -0.00063900
P        0.38091513       4.24715138       3.75561266       0.00000000 NULL       0.00749800      -0.01301900      -0.02746200
P        5.16816867       3.45792085      10.28984052       0.00000000 NULL      -0.00749800       0.01301900      -0.02746100
P        5.42256912       6.59754848      11.55293799       0.00000000 NULL      -0.00481400      -0.03723100      -0.00103300
P        0.12651469       1.10752375       5.01871012       0.00000000 NULL       0.00481400       0.03723100      -0.00103300
P        3.73997175       1.56223392       0.62149883       0.00000000 NULL      -0.00999300       0.00619000       0.01428400
P        1.80911205       6.14283831       7.15572670       0.00000000 NULL       0.00999100      -0.00619000       0.01428400
P        3.49420629       0.86483263       9.71649233       0.00000000 NULL       0.00894300      -0.00935700      -0.00194300
P        2.05487751       6.84023960       3.18226447       0.00000000 NULL      -0.00894300       0.00935700      -0.00194300
22
Lattice="5.066244079260131 1.1843505564935592 0.0 0.48454825092341475 6.5146075890778885 0.0 0.0 0.0 13.07626355926402" Properties=species:S:1:pos:R:3:initial_magmoms:R:1:castep_labels:S:1:forces:R:3 n_minim_iter=3 energy=-116.991010250821 stress="-5.0085758830102404e-05 0.00010535930812283312 0.0 0.00010535930812283312 -0.00025731440694636416 0.0 0.0 0.0 0.00015386514894840783" free_energy=-116.991010250821 pbc="T T T"
P        0.15762489       3.74394766       1.56781484       0.00000000 NULL       0.01054600       0.00795600       0.01819200
P        5.39316743       3.95501048       8.10594662       0.00000000 NULL      -0.01054600      -0.00795600       0.01819200
P        1.62418121       5.06940907       0.49796675       0.00000000 NULL       0.00544200      -0.01734900      -0.02237600
P        3.92661112       2.62954907       7.03609853       0.00000000 NULL      -0.00544200       0.01734800      -0.02237400
P        1.63819026       3.87690309      10.51968262       0.00000000 NULL       0.02461400       0.01689000       0.01828800
P        3.91260207       3.82205504       3.98155084       0.00000000 NULL      -0.02461400      -0.01689000       0.01828700
P        3.67107226       5.49413010       8.52356709       0.00000000 NULL       0.00915800      -0.01543100      -0.03729000
P        1.87972007       2.20482804       1.98543531       0.00000000 NULL      -0.00915800       0.01543000      -0.03729200
P        4.09010868       7.16418014       4.20151795       0.00000000 NULL      -0.02695700       0.00610100       0.03030300
P        1.46068364       0.53477800      10.73964973       0.00000000 NULL       0.02695700      -0.00610100       0.03030400
P        2.85168571       4.29651826       5.93088246       0.00000000 NULL      -0.01387300      -0.01277600       0.00530900
P        2.69910661       3.40243988      12.46901424       0.00000000 NULL       0.01387300       0.01277600       0.00531100
P        1.71093024       1.42871871      12.90873384       0.00000000 NULL      -0.01361000      -0.01675200       0.00243000
P        3.83986209       6.27023943       6.37060206       0.00000000 NULL       0.01361100       0.01675300       0.00242800
P        0.38223599       4.24286531       3.75762099       0.00000000 NULL       0.01165100      -0.01589600      -0.03010200
P        5.16855634       3.45609283      10.29575277       0.00000000 NULL      -0.01165100       0.01589600      -0.03010200
P        5.42390322       6.59217256      11.55983904       0.00000000 NULL      -0.00899900      -0.02924800      -0.00026200
P        0.12688910       1.10678558       5.02170726       0.00000000 NULL       0.00899900       0.02924800      -0.00026200
P        3.73997474       1.56182931       0.62200698       0.00000000 NULL      -0.01009000       0.00440400       0.01506200
P        1.81081759       6.13712883       7.16013876       0.00000000 NULL       0.01008800      -0.00440300       0.01506300
P        3.49417822       0.86493644       9.72227758       0.00000000 NULL       0.00836000      -0.00348900       0.00044500
P        2.05661411       6.83402170       3.18414580       0.00000000 NULL      -0.00836000       0.00348900       0.00044400
22
Lattice="5.067597367089743 1.1816123792191218 0.0 0.481774778115055 6.511940445578327 0.0 0.0 0.0 13.078211141268696" Properties=species:S:1:pos:R:3:initial_magmoms:R:1:castep_labels:S:1:forces:R:3 n_minim_iter=4 energy=-116.991885334396 stress="0.0005854275755385 6.693632247095456e-05 -0.0 6.693632247095456e-05 -0.00025022725973379383 -0.0 -0.0 -0.0 -0.00029613251505290213" free_energy=-116.991885334396 pbc="T T T"
P        0.15713869       3.74309422       1.56946090       0.00000000 NULL      -0.00846200      -0.00123000      -0.00593200
P        5.39223346       3.95045860       8.10856647       0.00000000 NULL       0.00846200       0.00123000      -0.00593300
P        1.62324580       5.06477778       0.49586248       0.00000000 NULL      -0.00055500       0.01421200      -0.00663100
P        3.92612634       2.62877504       7.03496805       0.00000000 NULL       0.00055500      -0.01421200      -0.00663100
P        1.63919530       3.87655806      10.52303181       0.00000000 NULL       0.00818100      -0.00028900      -0.00301300
P        3.91017684       3.81699476       3.98392624       0.00000000 NULL      -0.00818100       0.00028900      -0.00301300
P        3.67091210       5.48889611       8.52152939       0.00000000 NULL       0.00061100       0.00246000      -0.01099200
P        1.87846004       2.20465671       1.98242382       0.00000000 NULL      -0.00061100      -0.00246000      -0.01099100
P        4.08614781       7.15988822       4.20477414       0.00000000 NULL      -0.00304400      -0.00548000       0.00412000
P        1.46322433       0.53366460      10.74387971       0.00000000 NULL       0.00304400       0.00548000       0.00412000
P        2.84971889       4.29227618       5.93273355       0.00000000 NULL      -0.01058700       0.00887700      -0.00187200
P        2.69965325       3.40127663      12.47183912       0.00000000 NULL       0.01058800      -0.00887700      -0.00187200
P        1.70955622       1.42606793      12.91066690       0.00000000 NULL       0.01087400      -0.00532700       0.00114100
P        3.83981592       6.26748489       6.37156133       0.00000000 NULL      -0.01087500       0.00532600       0.00114200
P        0.38144979       4.23977909       3.75555129       0.00000000 NULL      -0.01868400       0.01047900       0.00827600
P        5.16792235       3.45377373      10.29465686       0.00000000 NULL       0.01868400      -0.01047900       0.00827600
P        5.42223122       6.58409375      11.56154144       0.00000000 NULL      -0.00352400      -0.01390100       0.00366100
P        0.12714092       1.10945907       5.02243587       0.00000000 NULL       0.00352400       0.01390100       0.00366200
P        3.73988888       1.56001592       0.62351544       0.00000000 NULL      -0.02251200      -0.00147500       0.00634100
P        1.80948326       6.13353690       7.16262101       0.00000000 NULL       0.02251200       0.00147400       0.00634000
P        3.49596558       0.86248902       9.72364052       0.00000000 NULL       0.00647300      -0.01148400       0.00490000
P        2.05340656       6.83106380       3.18453495       0.00000000 NULL      -0.00647300       0.01148400       0.00490000
22
Lattice="5.060054473945386 1.180605314807123 0.0 0.47909511637377356 6.514787141425854 0.0 0.0 0.0 13.089149028624762" Properties=species:S:1:pos:R:3:initial_magmoms:R:1:castep_labels:S:1:forces:R:3 n_minim_iter=5 energy=-116.992184961354 stress="-2.3863277688213195e-05 -3.0112060877320406e-05 0.0 -3.0112060877320406e-05 -4.652395936644727e-05 -0.0 0.0 -0.0 2.29908060731303e-05" free_energy=-116.992184961354 pbc="T T T"
P        0.15610340       3.74496849       1.57120983       0.00000000 NULL      -0.02233000      -0.00235900      -0.00355100
P        5.38304618       3.95042396       8.11578435       0.00000000 NULL       0.02233000       0.00235900      -0.00355100
P        1.61964389       5.06602653       0.49550483       0.00000000 NULL       0.00639500       0.01806800      -0.00867400
P        3.91950570       2.62936592       7.04007934       0.00000000 NULL      -0.00639500      -0.01806800      -0.00867400
P        1.63645319       3.87845994      10.53241299       0.00000000 NULL       0.01446200      -0.00211400       0.00289000
P        3.90269640       3.81693251       3.98783848       0.00000000 NULL      -0.01446200       0.00211400       0.00289000
P        3.66435362       5.48980580       8.52747962       0.00000000 NULL      -0.00080300       0.01505000      -0.00838600
P        1.87479596       2.20558665       1.98290510       0.00000000 NULL       0.00080300      -0.01505000      -0.00838600
P        4.07739568       7.16197931       4.20919780       0.00000000 NULL       0.00301000      -0.01392300       0.00213900
P        1.46175391       0.53341314      10.75377232       0.00000000 NULL      -0.00301000       0.01392300       0.00213900
P        2.84393896       4.29298332       5.93801090       0.00000000 NULL      -0.01486500       0.01489900      -0.00187000
P        2.69521062       3.40240913      12.48258541       0.00000000 NULL       0.01486500      -0.01489900      -0.00187000
P        1.70630658       1.42572035      12.92147433       0.00000000 NULL      -0.01150800       0.00255100      -0.00242900
P        3.83284301       6.26967210       6.37689982       0.00000000 NULL       0.01150800      -0.00255100      -0.00242900
P        0.37982694       4.24123413       3.75786154       0.00000000 NULL      -0.01635900       0.01997600       0.00915600
P        5.15932265       3.45415832      10.30243605       0.00000000 NULL       0.01635900      -0.01997600       0.00915600
P        5.41227230       6.58431950      11.57122677       0.00000000 NULL      -0.00808500      -0.01342800       0.00065600
P        0.12687729       1.11107295       5.02665226       0.00000000 NULL       0.00808500       0.01342800       0.00065600
P        3.73371452       1.55973701       0.62455091       0.00000000 NULL      -0.00041900       0.00163600       0.01063800
P        1.80543507       6.13565544       7.16912542       0.00000000 NULL       0.00041900      -0.00163600       0.01063800
P        3.49108072       0.86156282       9.73177381       0.00000000 NULL       0.01040100      -0.02099000      -0.00057000
P        2.04806887       6.83382963       3.18719929       0.00000000 NULL      -0.01040100       0.02099000      -0.00057000
22
Lattice="5.058441709684753 1.1833540836771925 0.0 0.48178127575840457 6.517780604716379 0.0 0.0 0.0 13.089591306930648" Properties=species:S:1:pos:R:3:initial_magmoms:R:1:castep_labels:S:1:forces:R:3 n_minim_iter=6 energy=-116.992342848641 stress="-5.8264722718371954e-05 0.00034756050702905813 -0.0 0.00034756050702905813 0.00016474933939023264 -0.0 -0.0 -0.0 -8.1301806528914e-05" free_energy=-116.992342848641 pbc="T T T"
P        0.15708453       3.74665637       1.57136589       0.00000000 NULL      -0.01755500       0.00831700      -0.00708400
P        5.38313845       3.95447831       8.11616154       0.00000000 NULL       0.01755500      -0.00831700      -0.00708400
P        1.62157750       5.06922361       0.49479093       0.00000000 NULL      -0.00023700       0.00800200      -0.00027800
P        3.91864548       2.63191107       7.03958659       0.00000000 NULL       0.00023700      -0.00800100      -0.00027900
P        1.63840501       3.88110698      10.53319447       0.00000000 NULL       0.00734400      -0.01503800      -0.00446700
P        3.90181797       3.82002770       3.98839881       0.00000000 NULL      -0.00734400       0.01503800      -0.00446700
P        3.66538859       5.49405575       8.52684096       0.00000000 NULL       0.00302200       0.01369600       0.00047800
P        1.87483439       2.20707893       1.98204531       0.00000000 NULL      -0.00302300      -0.01369600       0.00048000
P        4.07855902       7.16635800       4.20989621       0.00000000 NULL      -0.00193000      -0.00233500      -0.00204800
P        1.46166396       0.53477668      10.75469186       0.00000000 NULL       0.00193000       0.00233500      -0.00204800
P        2.84389314       4.29639709       5.93832833       0.00000000 NULL      -0.01075300       0.02217300       0.00227000
P        2.69632984       3.40473759      12.48312398       0.00000000 NULL       0.01075300      -0.02217300       0.00226900
P        1.70558814       1.42693581      12.92182263       0.00000000 NULL      -0.00733600       0.01108400      -0.00568800
P        3.83463485       6.27419888       6.37702698       0.00000000 NULL       0.00733500      -0.01108500      -0.00568600
P        0.38107533       4.24373157       3.75787383       0.00000000 NULL      -0.01835700       0.00293100       0.00730700
P        5.15914765       3.45740311      10.30266949       0.00000000 NULL       0.01835700      -0.00293100       0.00730700
P        5.41248596       6.58842635      11.57164593       0.00000000 NULL      -0.00658000      -0.00866400       0.00094700
P        0.12773702       1.11270833       5.02685028       0.00000000 NULL       0.00658000       0.00866400       0.00094800
P        3.73261426       1.56220235       0.62523006       0.00000000 NULL       0.00443900      -0.00064300       0.01010800
P        1.80760872       6.13893234       7.17002571       0.00000000 NULL      -0.00443800       0.00064200       0.01010800
P        3.49054059       0.86257940       9.73207529       0.00000000 NULL       0.00734900      -0.01799500      -0.00154600
P        2.04968239       6.83855528       3.18727964       0.00000000 NULL      -0.00735000       0.01799500      -0.00154500
22
Lattice="5.0533931373166086 1.1781776665860637 0.0 0.4749892007892407 6.516269084959893 0.0 0.0 0.0 13.096879447469716" Properties=species:S:1:pos:R:3:initial_magmoms:R:1:castep_labels:S:1:forces:R:3 n_minim_iter=7 energy=-116.992761348786 stress="-6.109335725231958e-06 1.0378794282247343e-06 -0.0 1.0378794282247343e-06 -3.316496536554492e-05 -0.0 -0.0 -0.0 -9.977795412251424e-06" free_energy=-116.992761348786 pbc="T T T"
P        0.15139019       3.74608338       1.57240326       0.00000000 NULL      -0.00379200       0.01001100      -0.00500600
P        5.37699214       3.94836337       8.12084298       0.00000000 NULL       0.00379200      -0.01001000      -0.00500600
P        1.61631591       5.06776750       0.49313117       0.00000000 NULL      -0.00545600      -0.00502600       0.00676700
P        3.91206642       2.62667924       7.04157089       0.00000000 NULL       0.00545600       0.00502700       0.00676500
P        1.63586475       3.87934765      10.54011957       0.00000000 NULL       0.00527300      -0.01022600      -0.00303400
P        3.89251759       3.81509910       3.99167984       0.00000000 NULL      -0.00527300       0.01022500      -0.00303300
P        3.65759649       5.49052014       8.52915168       0.00000000 NULL       0.00486000      -0.01077500       0.00927200
P        1.87078584       2.20392661       1.98071196       0.00000000 NULL      -0.00486000       0.01077500       0.00927400
P        4.06757987       7.15986756       4.21367365       0.00000000 NULL       0.00063700       0.01682900      -0.01424900
P        1.46080247       0.53457918      10.76211338       0.00000000 NULL      -0.00063700      -0.01682900      -0.01425000
P        2.83534439       4.29409079       5.94198276       0.00000000 NULL      -0.00625100      -0.00488900       0.00742300
P        2.69303794       3.40035596      12.49042249       0.00000000 NULL       0.00625200       0.00488900       0.00742100
P        1.70109726       1.42480799      12.92869552       0.00000000 NULL      -0.00904000       0.00193100      -0.00396300
P        3.82728507       6.26963876       6.38025579       0.00000000 NULL       0.00903900      -0.00193200      -0.00396100
P        0.37507578       4.24410035       3.75977677       0.00000000 NULL      -0.00815700      -0.00059800      -0.00466600
P        5.15330655       3.45034640      10.30821650       0.00000000 NULL       0.00815700       0.00059800      -0.00466600
P        5.40063689       6.57899226      11.57817581       0.00000000 NULL       0.00696000      -0.00997800       0.00021400
P        0.12774544       1.11545449       5.02973609       0.00000000 NULL      -0.00696000       0.00997800       0.00021400
P        3.72771247       1.55864402       0.62746901       0.00000000 NULL       0.00686700      -0.00649700       0.00702400
P        1.80066987       6.13580273       7.17590873       0.00000000 NULL      -0.00686500       0.00649700       0.00702300
P        3.48858027       0.85634482       9.73739532       0.00000000 NULL       0.00987500      -0.00009500       0.00021900
P        2.03980206       6.83810193       3.18895559       0.00000000 NULL      -0.00987500       0.00009500       0.00022000
22
Lattice="5.046812302319667 1.17748334633206 0.0 0.47280310539807224 6.519118577259581 0.0 0.0 0.0 13.096249101271505" Properties=species:S:1:pos:R:3:initial_magmoms:R:1:castep_labels:S:1:forces:R:3 n_minim_iter=8 energy=-116.993148339923 stress="-5.333040732156642e-05 -3.0218203351750785e-06 -0.0 -3.0218203351750785e-06 -1.687969952851704e-05 -0.0 -0.0 -0.0 -2.530774530709128e-05" free_energy=-116.993148339923 pbc="T T T"
P        0.14776846       3.75005606       1.57141166       0.00000000 NULL      -0.00841100       0.00083600      -0.00650800
P        5.37184694       3.94654586       8.11953621       0.00000000 NULL       0.00841100      -0.00083600      -0.00650800
P        1.61281150       5.06939947       0.49274500       0.00000000 NULL       0.00504500      -0.00037500       0.00613500
P        3.90680390       2.62720244       7.04086955       0.00000000 NULL      -0.00504500       0.00037500       0.00613400
P        1.63634012       3.87898606      10.54001368       0.00000000 NULL       0.01620200      -0.00379800       0.00027600
P        3.88327529       3.81761586       3.99188913       0.00000000 NULL      -0.01620100       0.00379700       0.00027600
P        3.65315028       5.49071392       8.52848127       0.00000000 NULL       0.00648600      -0.00435000      -0.00288300
P        1.86646513       2.20588800       1.98035672       0.00000000 NULL      -0.00648600       0.00435000      -0.00288300
P        4.06020808       7.16445999       4.21169226       0.00000000 NULL      -0.00970200       0.01176100      -0.00382000
P        1.45940732       0.53214193      10.75981681       0.00000000 NULL       0.00970200      -0.01176100      -0.00382000
P        2.82750631       4.29538789       5.94367421       0.00000000 NULL      -0.00130600       0.01117500       0.00755900
P        2.69210910       3.40121403      12.49179876       0.00000000 NULL       0.00130600      -0.01117500       0.00755800
P        1.69504390       1.42532888      12.92691738       0.00000000 NULL       0.02829100       0.01380800       0.01392300
P        3.82457150       6.27127303       6.37879283       0.00000000 NULL      -0.02829200      -0.01380800       0.01392300
P        0.37036274       4.24716320       3.75838250       0.00000000 NULL       0.00835500       0.00921500      -0.00328500
P        5.14925267       3.44943872      10.30650705       0.00000000 NULL      -0.00835500      -0.00921500      -0.00328500
P        5.39273185       6.57563046      11.57771883       0.00000000 NULL       0.00488100      -0.00140900      -0.00366700
P        0.12688356       1.12097146       5.02959428       0.00000000 NULL      -0.00488100       0.00140900      -0.00366700
P        3.72368379       1.55741481       0.63070996       0.00000000 NULL      -0.02717700      -0.00454500      -0.00720800
P        1.79593162       6.13918711       7.17883451       0.00000000 NULL       0.02717700       0.00454500      -0.00720800
P        3.48759602       0.85332497       9.73686255       0.00000000 NULL       0.00246200      -0.00077600      -0.00052100
P        2.03201939       6.84327694       3.18873800       0.00000000 NULL      -0.00246200       0.00077600      -0.00052100
22
Lattice="5.0445851641715205 1.1775883906413682 0.0 0.47239061041893027 6.520555567794643 0.0 0.0 0.0 13.09524005041769" Properties=species:S:1:pos:R:3:initial_magmoms:R:1:castep_labels:S:1:forces:R:3 n_minim_iter=9 energy=-116.993560545922 stress="-5.3888927036154347e-05 -4.888259376198049e-06 -0.0 -4.888259376198049e-06 -1.0154355225918655e-05 -0.0 -0.0 -0.0 -3.3273224449579966e-05" free_energy=-116.993560545922 pbc="T T T"
P        0.14394135       3.75343344       1.56953328       0.00000000 NULL      -0.00101900      -0.00215000      -0.00002400
P        5.37303442       3.94471051       8.11715330       0.00000000 NULL       0.00101900       0.00215000      -0.00002400
P        1.61228592       5.07007877       0.49306436       0.00000000 NULL       0.00278600       0.00289600       0.00434400
P        3.90468985       2.62806518       7.04068439       0.00000000 NULL      -0.00278600      -0.00289500       0.00434300
P        1.64117459       3.87750690      10.53971089       0.00000000 NULL      -0.00227300      -0.01371800       0.00037700
P        3.87580118       3.82063705       3.99209087       0.00000000 NULL       0.00227300       0.01371800       0.00037700
P        3.65374196       5.48977635       8.52711937       0.00000000 NULL       0.01323400      -0.00135700      -0.00270300
P        1.86323381       2.20836761       1.97949934       0.00000000 NULL      -0.01323400       0.00135700      -0.00270300
P        4.05639346       7.16985256       4.20903613       0.00000000 NULL      -0.01162600      -0.00517800       0.01051900
P        1.46058231       0.52829139      10.75665616       0.00000000 NULL       0.01162600       0.00517800       0.01051900
P        2.82257230       4.29770392       5.94626918       0.00000000 NULL       0.00335500      -0.00695700      -0.00139000
P        2.69440347       3.40044003      12.49388921       0.00000000 NULL      -0.00335500       0.00695700      -0.00139100
P        1.69410052       1.42764965      12.92649686       0.00000000 NULL       0.00059900      -0.01071300      -0.00480100
P        3.82287525       6.27049430       6.37887684       0.00000000 NULL      -0.00060000       0.01071300      -0.00480100
P        0.36766248       4.25052766       3.75634882       0.00000000 NULL      -0.01216600       0.00697900      -0.00111900
P        5.14931329       3.44761629      10.30396885       0.00000000 NULL       0.01216600      -0.00697900      -0.00111900
P        5.39128159       6.57137324      11.57645495       0.00000000 NULL       0.01553000       0.00833400      -0.00669900
P        0.12569418       1.12677071       5.02883493       0.00000000 NULL      -0.01553000      -0.00833400      -0.00669900
P        3.71953620       1.55600702       0.63319802       0.00000000 NULL      -0.00011700      -0.01199100       0.00167700
P        1.79743957       6.14213694       7.18081805       0.00000000 NULL       0.00011800       0.01199100       0.00167700
P        3.49011703       0.85056095       9.73599037       0.00000000 NULL      -0.00780200      -0.00457900      -0.00018000
P        2.02685874       6.84758300       3.18837035       0.00000000 NULL       0.00780200       0.00457900      -0.00018000
22
Lattice="5.045006481835635 1.1780951973249436 0.0 0.4731265365400049 6.520370308089054 0.0 0.0 0.0 13.095888077109851" Properties=species:S:1:pos:R:3:initial_magmoms:R:1:castep_labels:S:1:forces:R:3 n_minim_iter=10 energy=-116.994006927567 stress="-4.5148246836436506e-05 -2.857185076992059e-06 -0.0 -2.857185076992059e-06 7.79232293725107e-06 -0.0 -0.0 -0.0 -3.133458344767325e-05" free_energy=-116.994006927567 pbc="T T T"
P        0.14042310       3.75550268       1.56786880       0.00000000 NULL       0.00116500       0.00309000      -0.00551000
P        5.37770992       3.94296282       8.11581284       0.00000000 NULL      -0.00116500      -0.00309000      -0.00551000
P        1.61387804       5.07027499       0.49448089       0.00000000 NULL      -0.00822700       0.00397300      -0.00646200
P        3.90425497       2.62819050       7.04242493       0.00000000 NULL       0.00822700      -0.00397200      -0.00646300