28
Lattice="6.31359 3.7460766472120434e-16 0.0 -1.7492535174770432 9.107738345582513 0.0 0.0 0.0 10.709689999999998" Properties=species:S:1:pos:R:3:initial_magmoms:R:1:castep_labels:S:1 n_minim_iter=1 pbc="T T T"
P        3.22008040       6.98836217       7.39159992       0.00000000 NULL
P        1.34425608       2.11937618       7.39159992       0.00000000 NULL
P       -1.44082140       7.65974274       2.77117620       0.00000000 NULL
P        6.00515788       1.44799561       2.77117620       0.00000000 NULL
P        2.47386054       7.97545885       5.39751669       0.00000000 NULL
P        2.09047594       1.13227950       5.39751669       0.00000000 NULL
P        5.16613205       5.82473475       0.29454325       0.00000000 NULL
P       -0.60179557       3.28300360       0.29454325       0.00000000 NULL
P        2.16935276       8.44572872       0.19552038       0.00000000 NULL
P        2.39498372       0.66200963       0.19552038       0.00000000 NULL
P        1.25055179       2.74752505      10.46180994       0.00000000 NULL
P        3.31378469       6.36021330      10.46180994       0.00000000 NULL
P        1.32085970       4.18253393       7.17639941       0.00000000 NULL
P        3.24347678       4.92520442       7.17639941       0.00000000 NULL
P        3.02478742       2.58869429       2.82259235       0.00000000 NULL
P        1.53954906       6.51904406       2.82259235       0.00000000 NULL
P        0.27131055       2.95595200       5.81040415       0.00000000 NULL
P        4.29302593       6.15178635       5.81040415       0.00000000 NULL
P        4.01888270       8.24502969      10.09765478       0.00000000 NULL
P        0.54545378       0.86270866      10.09765478       0.00000000 NULL
P        2.45197439       8.78870793       2.99636242       0.00000000 NULL
P        2.11236209       0.31903042       2.99636242       0.00000000 NULL
P        4.68292486       5.29592489       2.18982852       0.00000000 NULL
P       -0.11858838       3.81181346       2.18982852       0.00000000 NULL
P        5.33784008       0.32158149       1.24982618       0.00000000 NULL
P       -0.77350360       8.78615686       1.24982618       0.00000000 NULL
P       -0.63846818       3.56721422       7.50463534       0.00000000 NULL
P        5.20280466       5.54052413       7.50463534       0.00000000 NULL
28
Lattice="6.356259451794009 0.00022074581804844222 0.0 -1.760757145917886 9.159672012390361 0.0 0.0 0.0 10.775106720122775" Properties=species:S:1:pos:R:3:initial_magmoms:R:1:castep_labels:S:1 n_minim_iter=2 pbc="T T T"
P        3.24199703       7.02866988       7.43693329       0.00000000 NULL
P        1.35350527       2.13122289       7.43693329       0.00000000 NULL
P       -1.45032147       7.70303971       2.78852279       0.00000000 NULL
P        6.04582377       1.45685306       2.78852279       0.00000000 NULL
P        2.49080358       8.02107825       5.43049303       0.00000000 NULL
P        2.10469873       1.13881451       5.43049303       0.00000000 NULL
P        5.20160199       5.85808345       0.29618232       0.00000000 NULL
P       -0.60609968       3.30180931       0.29618232       0.00000000 NULL
P        2.18402350       8.49377824       0.19659889       0.00000000 NULL
P        2.41147880       0.66611452       0.19659889       0.00000000 NULL
P        1.25941650       2.76352617      10.52561321       0.00000000 NULL
P        3.33608580       6.39636659      10.52561321       0.00000000 NULL
P        1.33010234       4.20663756       7.22022027       0.00000000 NULL
P        3.26539997       4.95325520       7.22022027       0.00000000 NULL
P        3.04530103       2.60350952       2.83986798       0.00000000 NULL
P        1.55020127       6.55638324       2.83986798       0.00000000 NULL
P        0.27319486       2.97276246       5.84534995       0.00000000 NULL
P        4.32230745       6.18713030       5.84534995       0.00000000 NULL
P        4.04646108       8.29199313      10.15899718       0.00000000 NULL
P        0.54904122       0.86789964      10.15899718       0.00000000 NULL
P        2.46882557       8.83876785       3.01482892       0.00000000 NULL
P        2.12667673       0.32112491       3.01482892       0.00000000 NULL
P        4.71458992       5.32635229       2.20345098       0.00000000 NULL
P       -0.11908762       3.83354048       2.20345098       0.00000000 NULL
P        5.37371271       0.32380860       1.25733042       0.00000000 NULL
P       -0.77821041       8.83608416       1.25733042       0.00000000 NULL
P       -0.64288962       3.58722316       7.55081836       0.00000000 NULL
P        5.23839193       5.57266961       7.55081836       0.00000000 NULL
28
Lattice="6.777220313639272 0.0031196526112793536 0.0 -1.8732073974771468 9.66080595754582 0.0 0.0 0.0 11.42606696705796" Properties=species:S:1:pos:R:3:initial_magmoms:R:1:castep_labels:S:1 n_minim_iter=3 pbc="T T T"
P        3.45900967       7.41831055       7.88804545       0.00000000 NULL
P        1.44500324       2.24561507       7.88804545       0.00000000 NULL
P       -1.54315404       8.12051174       2.96139591       0.00000000 NULL
P        6.44716695       1.54341387       2.96139591       0.00000000 NULL
P        2.65884425       8.46171915       5.75869708       0.00000000 NULL
P        2.24516866       1.20220646       5.75869708       0.00000000 NULL
P        5.55233330       6.18054068       0.31248572       0.00000000 NULL
P       -0.64832038       3.48338494       0.31248572       0.00000000 NULL
P        2.32955681       8.95775109       0.20723932       0.00000000 NULL
P        2.57445610       0.70617452       0.20723932       0.00000000 NULL
P        1.34722909       2.91841424      11.16049302       0.00000000 NULL
P        3.55678383       6.74551138      11.16049302       0.00000000 NULL
P        1.42182959       4.43943543       7.65620594       0.00000000 NULL
P        3.48218332       5.22449018       7.65620594       0.00000000 NULL
P        3.24792515       2.74673796       3.01178244       0.00000000 NULL
P        1.65608776       6.91718766       3.01178244       0.00000000 NULL
P        0.29217046       3.13509310       6.19293198       0.00000000 NULL
P        4.61184245       6.52883251       6.19293198       0.00000000 NULL
P        4.31947702       8.74554339      10.76919609       0.00000000 NULL
P        0.58453589       0.91838223      10.76919609       0.00000000 NULL
P        2.63598841       9.32208619       3.19862235       0.00000000 NULL
P        2.26802451       0.34183943       3.19862235       0.00000000 NULL
P        5.02757631       5.62070347       2.33902920       0.00000000 NULL
P       -0.12356340       4.04322215       2.33902920       0.00000000 NULL
P        5.72742315       0.34613887       1.33205953       0.00000000 NULL
P       -0.82341024       9.31778675       1.33205953       0.00000000 NULL
P       -0.68611026       3.77999909       8.01053314       0.00000000 NULL
P        5.59012318       5.88392653       8.01053314       0.00000000 NULL
28
Lattice="6.843097166318039 -0.0001808599388380715 0.0 -1.8962205359580158 9.673273388009392 0.0 0.0 0.0 11.576306776627327" Properties=species:S:1:pos:R:3:initial_magmoms:R:1:castep_labels:S:1 n_minim_iter=4 pbc="T T T"
P        3.48917734       7.42606286       7.99148237       0.00000000 NULL
P        1.45769929       2.24702967       7.99148237       0.00000000 NULL
P       -1.56221430       8.12898770       3.00265124       0.00000000 NULL
P        6.50909093       1.54410483       3.00265124       0.00000000 NULL
P        2.68069541       8.46997480       5.83487865       0.00000000 NULL
P        2.26618122       1.20311773       5.83487865       0.00000000 NULL
P        5.60412639       6.18424893       0.31655363       0.00000000 NULL
P       -0.65724976       3.48884361       0.31655363       0.00000000 NULL
P        2.34618684       8.96621478       0.20926019       0.00000000 NULL
P        2.60068978       0.70687776       0.20926019       0.00000000 NULL
P        1.35910948       2.92304793      11.30711851       0.00000000 NULL
P        3.58776715       6.75004461      11.30711851       0.00000000 NULL
P        1.43369481       4.44320850       7.75625216       0.00000000 NULL
P        3.51318181       5.22988403       7.75625216       0.00000000 NULL
P        3.27728768       2.74677835       3.05141612       0.00000000 NULL
P        1.66958895       6.92631419       3.05141612       0.00000000 NULL
P        0.29415816       3.13870070       6.27284320       0.00000000 NULL
P        4.65271847       6.53439183       6.27284320       0.00000000 NULL
P        4.35704809       8.75154065      10.90836657       0.00000000 NULL
P        0.58982854       0.92155188      10.90836657       0.00000000 NULL
P        2.65641165       9.32974856       3.24122624       0.00000000 NULL
P        2.29046498       0.34334397       3.24122624       0.00000000 NULL
P        5.07373679       5.62554672       2.36992599       0.00000000 NULL
P       -0.12686016       4.04754582       2.36992599       0.00000000 NULL
P        5.78101927       0.34517860       1.35028702       0.00000000 NULL
P       -0.83414264       9.32791393       1.35028702       0.00000000 NULL
P       -0.69460334       3.78258551       8.11737804       0.00000000 NULL
P        5.64147997       5.89050702       8.11737804       0.00000000 NULL
28
Lattice="6.860467585341026 0.00045897558022292545 0.0 -1.9001102107839367 9.615259064189761 0.0 0.0 0.0 11.652224931964465" Properties=species:S:1:pos:R:3:initial_magmoms:R:1:castep_labels:S:1 n_minim_iter=5 pbc="T T T"
P        3.49922013       7.38245686       8.04306655       0.00000000 NULL
P        1.46113724       2.23326118       8.04306655       0.00000000 NULL
P       -1.56542895       8.07822832       3.02473224       0.00000000 NULL
P        6.52578632       1.53748972       3.02473224       0.00000000 NULL
P        2.68873459       8.41885322       5.87372556       0.00000000 NULL
P        2.27162278       1.19686482       5.87372556       0.00000000 NULL
P        5.61960936       6.14657029       0.31890618       0.00000000 NULL
P       -0.65925199       3.46914776       0.31890618       0.00000000 NULL
P        2.35149335       8.91167928       0.20988150       0.00000000 NULL
P        2.60886402       0.70403876       0.20988150       0.00000000 NULL
P        1.36275499       2.90776255      11.38130268       0.00000000 NULL
P        3.59760238       6.70795549      11.38130268       0.00000000 NULL
P        1.43777636       4.41562575       7.80629701       0.00000000 NULL
P        3.52258101       5.20009230       7.80629701       0.00000000 NULL
P        3.28477538       2.72856860       3.07142111       0.00000000 NULL
P        1.67558199       6.88714945       3.07142111       0.00000000 NULL
P        0.29623467       3.12000245       6.31298717       0.00000000 NULL
P        4.66412270       6.49571560       6.31298717       0.00000000 NULL
P        4.36856678       8.69708165      10.97714903       0.00000000 NULL
P        0.59179060       0.91863639      10.97714903       0.00000000 NULL
P        2.66328701       9.27159694       3.26306805       0.00000000 NULL
P        2.29707036       0.34412110       3.26306805       0.00000000 NULL
P        5.08749163       5.59316398       2.38522243       0.00000000 NULL
P       -0.12713426       4.02255407       2.38522243       0.00000000 NULL
P        5.79359162       0.34514911       1.36028311       0.00000000 NULL
P       -0.83323424       9.27056893       1.36028311       0.00000000 NULL
P       -0.69552919       3.75735569       8.17200484       0.00000000 NULL
P        5.65588656       5.85836235       8.17200484       0.00000000 NULL
28
Lattice="6.878845918883944 0.008148875757627096 0.0 -1.894108992123218 9.469524896634475 0.0 0.0 0.0 11.780748070450318" Properties=species:S:1:pos:R:3:initial_magmoms:R:1:castep_labels:S:1 n_minim_iter=6 pbc="T T T"
P        3.51840042       7.27767087       8.12943446       0.00000000 NULL
P        1.46633650       2.20000291       8.12943446       0.00000000 NULL
P       -1.56040194       7.95106562       3.06396470       0.00000000 NULL
P        6.54513887       1.52660816       3.06396470       0.00000000 NULL
P        2.70685285       8.29428732       5.94003778       0.00000000 NULL
P        2.27788407       1.18338646       5.94003778       0.00000000 NULL
P        5.64335278       6.05793910       0.32345807       0.00000000 NULL
P       -0.65861586       3.41973468       0.32345807       0.00000000 NULL
P        2.36473363       8.77844880       0.21034191       0.00000000 NULL
P        2.62000329       0.69922497       0.21034191       0.00000000 NULL
P        1.36957677       2.87130955      11.50705783       0.00000000 NULL
P        3.61516015       6.60636423      11.50705783       0.00000000 NULL
P        1.44660512       4.34896360       7.89020751       0.00000000 NULL
P        3.53813181       5.12871018       7.89020751       0.00000000 NULL
P        3.29388731       2.68634165       3.10520574       0.00000000 NULL
P        1.69084962       6.79133213       3.10520574       0.00000000 NULL
P        0.30331143       3.07380273       6.38074067       0.00000000 NULL
P        4.68142550       6.40387105       6.38074067       0.00000000 NULL
P        4.38903753       8.56635970      11.09119555       0.00000000 NULL
P        0.59569940       0.91131408      11.09119555       0.00000000 NULL
P        2.67910190       9.12972390       3.30048753       0.00000000 NULL
P        2.30563502       0.34794987       3.30048753       0.00000000 NULL
P        5.10837158       5.51745520       2.41057583       0.00000000 NULL
P       -0.12363466       3.96021858       2.41057583       0.00000000 NULL
P        5.80419467       0.34998335       1.37840888       0.00000000 NULL
P       -0.81945775       9.12769043       1.37840888       0.00000000 NULL
P       -0.69153665       3.69397083       8.26529193       0.00000000 NULL
P        5.67627357       5.78370295       8.26529193       0.00000000 NULL
28
Lattice="6.899853389878507 0.036028810014057264 0.0 -1.8597108519574672 9.346493180644424 0.0 0.0 0.0 11.907666539972952" Properties=species:S:1:pos:R:3:initial_magmoms:R:1:castep_labels:S:1 n_minim_iter=7 pbc="T T T"
P        3.56218937       7.20800800       8.21286861       0.00000000 NULL
P        1.47795317       2.17451400       8.21286861       0.00000000 NULL
P       -1.53176558       7.84035549       3.10662307       0.00000000 NULL
P        6.57190812       1.54216650       3.10662307       0.00000000 NULL
P        2.75259123       8.20110744       6.00684833       0.00000000 NULL
P        2.28755131       1.18141456       6.00684833       0.00000000 NULL
P        5.68929267       6.00168123       0.32953973       0.00000000 NULL
P       -0.64915014       3.38084076       0.32953973       0.00000000 NULL
P        2.40498542       8.67648943       0.20957868       0.00000000 NULL
P        2.63515712       0.70603257       0.20957868       0.00000000 NULL
P        1.38637603       2.85239511      11.63172882       0.00000000 NULL
P        3.65376650       6.53012688      11.63172882       0.00000000 NULL
P        1.46903803       4.30052193       7.97110588       0.00000000 NULL
P        3.57110451       5.08200007       7.97110588       0.00000000 NULL
P        3.31033172       2.65871622       3.13821876       0.00000000 NULL
P        1.72981081       6.72380577       3.13821876       0.00000000 NULL
P        0.32193440       3.03754097       6.44755541       0.00000000 NULL
P        4.71820813       6.34498102       6.44755541       0.00000000 NULL
P        4.43587584       8.47231285      11.19826555       0.00000000 NULL
P        0.60426670       0.91020914      11.19826555       0.00000000 NULL
P        2.72225991       9.01915670       3.33830420       0.00000000 NULL
P        2.31788263       0.36336529       3.33830420       0.00000000 NULL
P        5.14806292       5.47507645       2.43427272       0.00000000 NULL
P       -0.10792038       3.90744555       2.43427272       0.00000000 NULL
P        5.81451504       0.37454400       1.39910635       0.00000000 NULL
P       -0.77437251       9.00797800       1.39910635       0.00000000 NULL
P       -0.67474620       3.63449303       8.35881028       0.00000000 NULL
P        5.71488874       5.74802896       8.35881028       0.00000000 NULL
28
Lattice="6.8686805121592265 0.06494321656523101 0.0 -1.809363250151488 9.25144393856745 0.0 0.0 0.0 11.924278977386114" Properties=species:S:1:pos:R:3:initial_magmoms:R:1:castep_labels:S:1 n_minim_iter=8 pbc="T T T"
P        3.58071529       7.16315841       8.21953911       0.00000000 NULL
P        1.47860196       2.15322875       8.21953911       0.00000000 NULL
P       -1.49028968       7.75276294       3.12093654       0.00000000 NULL
P        6.54960693       1.56362422       3.12093654       0.00000000 NULL
P        2.77972286       8.13258054       6.01882729       0.00000000 NULL
P        2.27959440       1.18380662       6.01882729       0.00000000 NULL
P        5.69417736       5.96357701       0.33384321       0.00000000 NULL
P       -0.63486010       3.35281015       0.33384321       0.00000000 NULL
P        2.43053245       8.60032237       0.20674367       0.00000000 NULL
P        2.62878481       0.71606479       0.20674367       0.00000000 NULL
P        1.39395590       2.84422947      11.64908847       0.00000000 NULL
P        3.66536136       6.47215769      11.64908847       0.00000000 NULL
P        1.48080736       4.26736799       7.97701163       0.00000000 NULL
P        3.57850989       5.04901917       7.97701163       0.00000000 NULL
P        3.30119632       2.63856188       3.14179300       0.00000000 NULL
P        1.75812094       6.67782528       3.14179300       0.00000000 NULL
P        0.33970217       3.01053076       6.45563879       0.00000000 NULL
P        4.71961509       6.30585640       6.45563879       0.00000000 NULL
P        4.44980370       8.40572953      11.19955081       0.00000000 NULL
P        0.60951356       0.91065763      11.19955081       0.00000000 NULL
P        2.74563672       8.93510451       3.34524481       0.00000000 NULL
P        2.31368054       0.38128265       3.34524481       0.00000000 NULL
P        5.14935430       5.45103134       2.43456691       0.00000000 NULL
P       -0.09003704       3.86535581       2.43456691       0.00000000 NULL
P        5.78030820       0.40081216       1.40834077       0.00000000 NULL
P       -0.72099094       8.91557500       1.40834077       0.00000000 NULL
P       -0.65093706       3.58422805       8.37463615       0.00000000 NULL
P        5.71025432       5.73215911       8.37463615       0.00000000 NULL
28
Lattice="6.894943993150675 0.06689932373378941 0.0 -1.8138180491229654 9.276316939101584 0.0 0.0 0.0 11.9860361194636" Properties=species:S:1:pos:R:3:initial_magmoms:R:1:castep_labels:S:1 n_minim_iter=9 pbc="T T T"
P        3.59680949       7.18640785       8.26109004       0.00000000 NULL
P        1.48431645       2.15680842       8.26109004       0.00000000 NULL
P       -1.49416581       7.77109576       3.14015878       0.00000000 NULL
P        6.57529175       1.57212051       3.14015878       0.00000000 NULL
P        2.79330275       8.15451147       6.05112062       0.00000000 NULL
P        2.28782319       1.18870479       6.05112062       0.00000000 NULL
P        5.71912843       5.97953530       0.33666702       0.00000000 NULL
P       -0.63800249       3.36368096       0.33666702       0.00000000 NULL
P        2.44177448       8.62263710       0.20686552       0.00000000 NULL
P        2.63935147       0.72057917       0.20686552       0.00000000 NULL
P        1.40076525       2.85631090      11.70967840       0.00000000 NULL
P        3.68036069       6.48690537      11.70967840       0.00000000 NULL
P        1.48750978       4.28015118       8.01670966       0.00000000 NULL
P        3.59361616       5.06306509       8.01670966       0.00000000 NULL
P        3.31271490       2.64386095       3.15781216       0.00000000 NULL
P        1.76841104       6.69935532       3.15781216       0.00000000 NULL
P        0.34335361       3.01885994       6.48838124       0.00000000 NULL
P        4.73777233       6.32435632       6.48838124       0.00000000 NULL
P        4.46794318       8.42828833      11.25297064       0.00000000 NULL
P        0.61318277       0.91492793      11.25297064       0.00000000 NULL
P        2.75713648       8.95680393       3.36319662       0.00000000 NULL
P        2.32398947       0.38641233       3.36319662       0.00000000 NULL
P        5.17012852       5.46897930       2.44648136       0.00000000 NULL
P       -0.08900258       3.87423697       2.44648136       0.00000000 NULL
P        5.79969677       0.40487359       1.41791206       0.00000000 NULL
P       -0.71857083       8.93834267       1.41791206       0.00000000 NULL
P       -0.65128568       3.58969387       8.41937945       0.00000000 NULL
P        5.73241162       5.75352240       8.41937945       0.00000000 NULL
28
Lattice="6.881617698683275 0.06875228644691792 0.0 -1.8074528326570045 9.247710452656985 0.0 0.0 0.0 11.97790956100058" Properties=species:S:1:pos:R:3:initial_magmoms:R:1:castep_labels:S:1 n_minim_iter=10 pbc="T T T"
P        3.59244984       7.16719084       8.25464416       0.00000000 NULL
P        1.48171502       2.14927190       8.25464416       0.00000000 NULL
P       -1.48903485       7.74567579       3.13969656       0.00000000 NULL
P        6.56319971       1.57078695       3.13969656       0.00000000 NULL
P        2.79098124       8.12996948       6.04774076       0.00000000 NULL
P        2.28318362       1.18649326       6.04774076       0.00000000 NULL
P        5.71072494       5.96198867       0.33721820       0.00000000 NULL
P       -0.63656008       3.35447408       0.33721820       0.00000000 NULL
P        2.43963033       8.59619260       0.20618271       0.00000000 NULL
P        2.63453453       0.72027014       0.20618271       0.00000000 NULL
P        1.39917150       2.85035651      11.70195894       0.00000000 NULL
P        3.67499336       6.46610623      11.70195894       0.00000000 NULL
P        1.48576911       4.26787026       8.01025180       0.00000000 NULL
P        3.58839576       5.04859249       8.01025180       0.00000000 NULL
P        3.30594749       2.63506702       3.15549089       0.00000000 NULL
P        1.76821738       6.68139573       3.15549089       0.00000000 NULL
P        0.34466651       3.00982887       6.48386402       0.00000000 NULL
P        4.72949835       6.30663387       6.48386402       0.00000000 NULL
P        4.46111222       8.40315568      11.24266541       0.00000000 NULL
P        0.61305264       0.91330706      11.24266541       0.00000000 NULL
P        2.75365398       8.92834222       3.36128116       0.00000000 NULL
P        2.32051089       0.38812052       3.36128116       0.00000000 NULL
P        5.16171594       5.45504045       2.44427414       0.00000000 NULL
P       -0.08755108       3.86142229       2.44427414       0.00000000 NULL
P        5.78699965       0.40621104       1.41843964       0.00000000 NULL
P       -0.71283478       8.91025171       1.41843964       0.00000000 NULL
P       -0.64804299       3.57622405       8.41436102       0.00000000 NULL
P        5.72220785       5.74023869       8.41436102       0.00000000 NULL
28
Lattice="6.879950669436117 0.07068236247936188 0.0 -1.8042067105196933 9.236999382823655 0.0 0.0 0.0 11.988280140393922" Properties=species:S:1:pos:R:3:initial_magmoms:R:1:castep_labels:S:1 n_minim_iter=11 pbc="T T T"
P        3.59410196       7.16196122       8.26101900       0.00000000 NULL
P        1.48164200       2.14572053       8.26101900       0.00000000 NULL
P       -1.48648545       7.73516480       3.14419941       0.00000000 NULL
P        6.56222941       1.57251695       3.14419941       0.00000000 NULL
P        2.79332897       8.12111861       6.05372467       0.00000000 NULL
P        2.28241499       1.18656314       6.05372467       0.00000000 NULL
P        5.71208093       5.95590798       0.33828004       0.00000000 NULL
P       -0.63633698       3.35177377       0.33828004       0.00000000 NULL
P        2.44157054       8.58627905       0.20578573       0.00000000 NULL
P        2.63417342       0.72140270       0.20578573       0.00000000 NULL
P        1.40003763       2.85003441      11.71229840       0.00000000 NULL
P        3.67570633       6.45764734      11.71229840       0.00000000 NULL
P        1.48656623       4.26395660       8.01613754       0.00000000 NULL
P        3.58917773       5.04372515       8.01613754       0.00000000 NULL
P        3.30475132       2.63132214       3.15804119       0.00000000 NULL
P        1.77099264       6.67635961       3.15804119       0.00000000 NULL
P        0.34653085       3.00660918       6.48923382       0.00000000 NULL
P        4.72921311       6.30107257       6.48923382       0.00000000 NULL
P        4.46179267       8.39424437      11.24955463       0.00000000 NULL
P        0.61395128       0.91343738      11.24955463       0.00000000 NULL
P        2.75477649       8.91707359       3.36456423       0.00000000 NULL
P        2.32096747       0.39060816       3.36456423       0.00000000 NULL
P        5.16193220       5.45163511       2.44588446       0.00000000 NULL
P       -0.08618825       3.85604664       2.44588446       0.00000000 NULL
P        5.78403966       0.40831582       1.42120113       0.00000000 NULL
P       -0.70829571       8.89936593       1.42120113       0.00000000 NULL
P       -0.64595682       3.56955740       8.42240382       0.00000000 NULL
P        5.72170077       5.73812435       8.42240382       0.00000000 NULL
28
Lattice="6.818747432768594 0.13076501070754995 0.0 -1.700576760492267 8.908477813877575 0.0 0.0 0.0 12.28843256456776" Properties=species:S:1:pos:R:3:initial_magmoms:R:1:castep_labels:S:1 n_minim_iter=12 pbc="T T T"
P        3.64074444       7.00083053       8.44381802       0.00000000 NULL
P        1.47742623       2.03841230       8.44381802       0.00000000 NULL
P       -1.40543753       7.41447378       3.27823576       0.00000000 NULL
P        6.52360820       1.62476905       3.27823576       0.00000000 NULL
P        2.86226323       7.85110822       6.22898413       0.00000000 NULL
P        2.25590744       1.18813461       6.22898413       0.00000000 NULL
P        5.74598260       5.77207860       0.37106133       0.00000000 NULL
P       -0.62781193       3.26716422       0.37106133       0.00000000 NULL
P        2.49969420       8.28388731       0.19298759       0.00000000 NULL
P        2.61847647       0.75535552       0.19298759       0.00000000 NULL
P        1.42571135       2.83767799      12.01214131       0.00000000 NULL
P        3.69245932       6.20156484      12.01214131       0.00000000 NULL
P        1.50964075       4.14419697       8.18386385       0.00000000 NULL
P        3.60852992       4.89504586       8.18386385       0.00000000 NULL
P        3.26347891       2.51875236       3.23129426       0.00000000 NULL
P        1.85469176       6.52049047       3.23129426       0.00000000 NULL
P        0.40314786       2.90819027       6.64422310       0.00000000 NULL
P        4.71502281       6.13105256       6.64422310       0.00000000 NULL
P        4.47717802       8.12343516      11.44182350       0.00000000 NULL
P        0.64099264       0.91580767      11.44182350       0.00000000 NULL
P        2.78618744       8.57431180       3.46022570       0.00000000 NULL
P        2.33198323       0.46493103       3.46022570       0.00000000 NULL
P        5.16175385       5.34685882       2.49146888       0.00000000 NULL
P       -0.04358318       3.69238401       2.49146888       0.00000000 NULL
P        5.68642902       0.47173071       1.50539730       0.00000000 NULL
P       -0.56825835       8.56751212       1.50539730       0.00000000 NULL
P       -0.58152030       3.36861122       8.65662154       0.00000000 NULL
P        5.69969097       5.67063160       8.65662154       0.00000000 NULL
28
Lattice="6.7954682074548005 0.16196534839021193 0.0 -1.6491185918953495 9.677112364684538 0.0 0.0 0.0 12.178054603390597" Properties=species:S:1:pos:R:3:initial_magmoms:R:1:castep_labels:S:1 n_minim_iter=13 pbc="T T T"
P        3.66272601       7.66942170       8.35740169       0.00000000 NULL
P        1.48362361       2.16965602       8.35740169       0.00000000 NULL
P       -1.36657252       8.01843675       3.27600445       0.00000000 NULL
P        6.51292213       1.82064097       3.27600445       0.00000000 NULL
P        2.90722609       8.52603572       6.19446603       0.00000000 NULL
P        2.23912352       1.31304200       6.19446603       0.00000000 NULL
P        5.78543231       6.27470594       0.38878811       0.00000000 NULL
P       -0.63908270       3.56437177       0.38878811       0.00000000 NULL
P        2.56212450       8.98000946       0.18241294       0.00000000 NULL
P        2.58422511       0.85906826       0.18241294       0.00000000 NULL
P        1.44657262       3.14123178      11.90810728       0.00000000 NULL
P        3.69977700       6.69784594      11.90810728       0.00000000 NULL
P        1.52399614       4.52945340       8.08691627       0.00000000 NULL
P        3.62235347       5.30962432       8.08691627       0.00000000 NULL
P        3.24306227       2.71549488       3.19483716       0.00000000 NULL
P        1.90328734       7.12358284       3.19483716       0.00000000 NULL
P        0.43296151       3.15878468       6.57966303       0.00000000 NULL
P        4.71338810       6.68029304       6.57966303       0.00000000 NULL
P        4.48079681       8.83784793      11.27377442       0.00000000 NULL
P        0.66555280       1.00122979      11.27377442       0.00000000 NULL
P        2.80701788       9.28153978       3.42956009       0.00000000 NULL