6
Lattice="5.205049999999999 6.616913591945424e-16 -3.474110230117109e-16 1.0523313389875988 5.097562579849762 1.2858320456309495e-15 1.0523313389875983 0.8572795175200681 5.024959311708416" Properties=species:S:1:pos:R:3:initial_magmoms:R:1:castep_labels:S:1 n_minim_iter=1 pbc="T T T"
P        2.32854568       3.46917142       3.95317871       0.00000000 NULL
P        3.86830483       4.16243540       0.89176596       0.00000000 NULL
P        4.85855340       1.37465476       2.75493746       0.00000000 NULL
P        2.55366291       1.97141301       0.41316120       0.00000000 NULL
P        2.44698912       0.76083938       2.00293119       0.00000000 NULL
P        1.23984779       2.35155767       1.87385155       0.00000000 NULL
6
Lattice="5.209174906327524 -0.0016241301717487722 -0.0013705129198234847 1.0515747013012238 5.101930663003411 -0.0013705129198231924 1.0515747013012222 0.8566631242162852 5.02949566656619" Properties=species:S:1:pos:R:3:initial_magmoms:R:1:castep_labels:S:1 n_minim_iter=2 pbc="T T T"
P        2.32814386       3.47082575       3.95564110       0.00000000 NULL
P        3.86984375       4.16474029       0.89063423       0.00000000 NULL
P        4.86112183       1.37371424       2.75615412       0.00000000 NULL
P        2.55528963       1.97251114       0.41205616       0.00000000 NULL
P        2.44839346       0.75998066       2.00446862       0.00000000 NULL
P        1.23929073       2.35333370       1.87511988       0.00000000 NULL
6
Lattice="5.3831394508476595 -0.07147442459949123 -0.06031328279869103 1.0183381512209921 5.286424722854954 -0.060313282798689964 1.0183381512209915 0.8295870384235492 5.221274689975015" Properties=species:S:1:pos:R:3:initial_magmoms:R:1:castep_labels:S:1 n_minim_iter=3 pbc="T T T"
P        2.30931650       3.53978872       4.05892703       0.00000000 NULL
P        3.93357617       4.26110947       0.84134422       0.00000000 NULL
P        4.96838603       1.33234647       2.80676482       0.00000000 NULL
P        2.62367931       2.01851915       0.36388285       0.00000000 NULL
P        2.50727807       0.72219305       2.06942439       0.00000000 NULL
P        1.21418845       2.42834751       1.92857413       0.00000000 NULL
6
Lattice="5.398540813997148 -0.1107493039703317 -0.09345516424301989 0.9829880934302745 5.309448439988584 -0.09345516424301883 0.9829880934302738 0.8007891880085953 5.2495441022044425" Properties=species:S:1:pos:R:3:initial_magmoms:R:1:castep_labels:S:1 n_minim_iter=4 pbc="T T T"
P        2.26091943       3.52262465       4.05432281       0.00000000 NULL
P        3.90698187       4.24918334       0.79881669       0.00000000 NULL
P        4.95132948       1.28645001       2.79061952       0.00000000 NULL
P        2.62092154       2.01566573       0.33108807       0.00000000 NULL
P        2.50392602       0.68950817       2.07284596       0.00000000 NULL
P        1.18150084       2.43227956       1.93127660       0.00000000 NULL
6
Lattice="5.371903726433495 -0.15732073516062178 -0.1327541990440593 0.9319930353716095 5.292777006619527 -0.13275419904405908 0.931993035371608 0.7592461709484948 5.239719207272872" Properties=species:S:1:pos:R:3:initial_magmoms:R:1:castep_labels:S:1 n_minim_iter=5 pbc="T T T"
P        2.18252705       3.47240281       4.01397417       0.00000000 NULL
P        3.84194816       4.19820561       0.73993122       0.00000000 NULL
P        4.88825627       1.21942536       2.74789859       0.00000000 NULL
P        2.59534140       1.99695656       0.28911100       0.00000000 NULL
P        2.48043154       0.64455200       2.05893899       0.00000000 NULL
P        1.13272304       2.41622963       1.91989336       0.00000000 NULL
6
Lattice="5.265768778200953 -0.2824229598521891 -0.23832099302453907 0.7880164066301717 5.214126359862148 -0.23832099302453916 0.7880164066301699 0.6419559124065694 5.179942393391238" Properties=species:S:1:pos:R:3:initial_magmoms:R:1:castep_labels:S:1 n_minim_iter=6 pbc="T T T"
P        1.95126818       3.31866337       3.87491199       0.00000000 NULL
P        3.64462875       4.02826262       0.57070001       0.00000000 NULL
P        4.68192965       1.02588384       2.61973552       0.00000000 NULL
P        2.51114318       1.93838213       0.17277337       0.00000000 NULL
P        2.40604392       0.51799534       2.00889260       0.00000000 NULL
P        0.99374052       2.35894730       1.88171820       0.00000000 NULL
6
Lattice="5.253672756132747 -0.3969857632420374 -0.3349941568559549 0.6733738801026187 5.22544187053534 -0.3349941568559536 0.6733738801026181 0.5485626186903771 5.20735469128492" Properties=species:S:1:pos:R:3:initial_magmoms:R:1:castep_labels:S:1 n_minim_iter=7 pbc="T T T"
P        1.76425335       3.25555756       3.80145990       0.00000000 NULL
P        3.54501638       3.92720070       0.41508521       0.00000000 NULL
P        4.56281558       0.85951529       2.56988127       0.00000000 NULL
P        2.47584640       1.91646325       0.07876254       0.00000000 NULL
P        2.37744155       0.42025531       1.99499562       0.00000000 NULL
P        0.89223620       2.34386062       1.87592172       0.00000000 NULL
6
Lattice="5.176034573899587 -0.43235566850794543 -0.3648408483238388 0.6230378799100549 5.156557876577361 -0.36484084832383845 0.6230378799100534 0.5075565017381958 5.144471243640202" Properties=species:S:1:pos:R:3:initial_magmoms:R:1:castep_labels:S:1 n_minim_iter=8 pbc="T T T"
P        1.67774129       3.18710762       3.72605713       0.00000000 NULL
P        3.46048939       3.84095055       0.35788899       0.00000000 NULL
P        4.46125730       0.79214455       2.51508706       0.00000000 NULL
P        2.42168014       1.87872218       0.04761915       0.00000000 NULL
P        2.32952879       0.38191744       1.95546261       0.00000000 NULL
P        0.84500326       2.29830288       1.84395571       0.00000000 NULL
6
Lattice="5.181047225752525 -0.46162559946506154 -0.38954011149674245 0.5953858239018511 5.167384664436752 -0.38954011149674217 0.5953858239018496 0.4850298123249955 5.159297612066686" Properties=species:S:1:pos:R:3:initial_magmoms:R:1:castep_labels:S:1 n_minim_iter=9 pbc="T T T"
P        1.63562456       3.17892386       3.71636495       0.00000000 NULL
P        3.44395968       3.82473799       0.32049043       0.00000000 NULL
P        4.44203764       0.75310741       2.50864983       0.00000000 NULL
P        2.41256170       1.87240281       0.02576702       0.00000000 NULL
P        2.32149640       0.35908959       1.95159405       0.00000000 NULL
P        0.82102288       2.29394263       1.84140131       0.00000000 NULL
6
Lattice="5.169664101891049 -0.49163958766115634 -0.41486724309845036 0.5636902588111267 5.162304689056824 -0.41486724309844947 0.5636902588111256 0.4592090867209825 5.158549364572085" Properties=species:S:1:pos:R:3:initial_magmoms:R:1:castep_labels:S:1 n_minim_iter=10 pbc="T T T"
P        1.58592442       3.15922704       3.69461573       0.00000000 NULL
P        3.41462148       3.79578255       0.28009302       0.00000000 NULL
P        4.40774870       0.70943783       2.49289122       0.00000000 NULL
P        2.39390947       1.85931114       0.00253492       0.00000000 NULL
P        2.30490406       0.33356145       1.94010333       0.00000000 NULL
P        0.79266735       2.28075076       1.83240315       0.00000000 NULL
6
Lattice="5.15451761592684 -0.5382158337066938 -0.45417034088744396 0.5150135984894628 5.156887542881234 -0.45417034088744374 0.515013598489461 0.4195547475133425 5.1598191482167755" Properties=species:S:1:pos:R:3:initial_magmoms:R:1:castep_labels:S:1 n_minim_iter=11 pbc="T T T"
P        1.51037332       3.13077213       3.66383666       0.00000000 NULL
P        3.37147964       3.75396597       0.21800312       0.00000000 NULL
P        4.35807344       0.64254853       2.47001784       0.00000000 NULL
P        2.36540091       1.83898446      -0.03323561       0.00000000 NULL
P        2.27923342       0.29429611       1.92264785       0.00000000 NULL
P        0.74902290       2.26065095       1.81838167       0.00000000 NULL
6
Lattice="5.1313801725182 -0.6153107798082172 -0.5192264684831056 0.434832895298211 5.149814577616138 -0.5192264684831054 0.4348328952982092 0.3542357058773256 5.163787696457197" Properties=species:S:1:pos:R:3:initial_magmoms:R:1:castep_labels:S:1 n_minim_iter=12 pbc="T T T"
P        1.38649440       3.08683201       3.61741386       0.00000000 NULL
P        3.30340168       3.68929530       0.11497452       0.00000000 NULL
P        4.28097460       0.53197364       2.43451067       0.00000000 NULL
P        2.31705248       1.80377983      -0.09223364       0.00000000 NULL
P        2.23498095       0.22937230       1.89291032       0.00000000 NULL
P        0.67649305       2.22625597       1.79360041       0.00000000 NULL
6
Lattice="5.122115787703126 -0.6838248405035254 -0.5770416651993906 0.3658606636248731 5.154593342829213 -0.5770416651993892 0.36586066362487224 0.29804762204805674 5.178221434846799" Properties=species:S:1:pos:R:3:initial_magmoms:R:1:castep_labels:S:1 n_minim_iter=13 pbc="T T T"
P        1.28068563       3.05938007       3.59093030       0.00000000 NULL
P        3.25512474       3.64669546       0.02275155       0.00000000 NULL
P        4.22949408       0.43456132       2.41190358       0.00000000 NULL
P        2.27600177       1.77278339      -0.14365421       0.00000000 NULL
P        2.19632517       0.17297689       1.86810501       0.00000000 NULL
P        0.61344701       2.19735477       1.77169306       0.00000000 NULL
6
Lattice="5.1059359276082885 -0.7020608127788158 -0.5924299856946147 0.34473011085094546 5.1424344655380345 -0.5924299856946127 0.34473011085094507 0.28083366156257644 5.16882365484033" Properties=species:S:1:pos:R:3:initial_magmoms:R:1:castep_labels:S:1 n_minim_iter=14 pbc="T T T"
P        1.24698904       3.04230417       3.57512749       0.00000000 NULL
P        3.23158886       3.62614844      -0.00371839       0.00000000 NULL
P        4.20461299       0.40529060       2.39772852       0.00000000 NULL
P        2.25718605       1.75870074      -0.15777438       0.00000000 NULL
P        2.17872927       0.15643767       1.85512156       0.00000000 NULL
P        0.59369188       2.18222051       1.76018564       0.00000000 NULL
6
Lattice="5.101767608358607 -0.717556653795901 -0.6055060621611829 0.32871153806310816 5.141485097308758 -0.6055060621611825 0.32871153806310643 0.2677841648478551 5.170086869504105" Properties=species:S:1:pos:R:3:initial_magmoms:R:1:castep_labels:S:1 n_minim_iter=15 pbc="T T T"
P        1.22232229       3.03447180       3.56935139       0.00000000 NULL
P        3.21893123       3.61665827      -0.02499933       0.00000000 NULL
P        4.19275974       0.38255070       2.39097908       0.00000000 NULL
P        2.24605159       1.75002179      -0.16909011       0.00000000 NULL
P        2.16797843       0.14374433       1.84800504       0.00000000 NULL
P        0.57908712       2.17386625       1.75353332       0.00000000 NULL
6
Lattice="5.0911093444897 -0.7494694317688428 -0.6324354766134082 0.29530294296750254 5.137498901078325 -0.6324354766134053 0.2953029429675029 0.24056792294429422 5.170686285698497" Properties=species:S:1:pos:R:3:initial_magmoms:R:1:castep_labels:S:1 n_minim_iter=16 pbc="T T T"
P        1.17059606       3.01675533       3.55649764       0.00000000 NULL
P        3.19112286       3.59607058      -0.06924340       0.00000000 NULL
P        4.16697504       0.33505671       2.37567662       0.00000000 NULL
P        2.22186441       1.73116300      -0.19235180       0.00000000 NULL
P        2.14461904       0.11747150       1.83232520       0.00000000 NULL
P        0.54863415       2.15545571       1.73885515       0.00000000 NULL
6
Lattice="5.064549196888052 -0.8287621028541465 -0.6993461418174971 0.2122779136843779 5.127518237723631 -0.6993461418174945 0.21227791368437804 0.172931757024916 5.1721004351883755" Properties=species:S:1:pos:R:3:initial_magmoms:R:1:castep_labels:S:1 n_minim_iter=17 pbc="T T T"
P        1.04093512       2.97297462       3.52875380       0.00000000 NULL
P        3.12203204       3.54885510      -0.18102706       0.00000000 NULL
P        4.10676616       0.21509115       2.33718528       0.00000000 NULL
P        2.16034159       1.68272488      -0.24929132       0.00000000 NULL
P        2.08474282       0.05285698       1.79216030       0.00000000 NULL
P        0.47324848       2.10819810       1.70068269       0.00000000 NULL
