4
Lattice="3.58481 -4.509282106382603e-16 3.6356922730925166e-16 -0.6685751277016815 4.8682555295627905 -2.2957741671464237e-15 -0.9744746817911937 -0.9486546693052851 5.1060600444817785" Properties=species:S:1:pos:R:3:initial_magmoms:R:1:castep_labels:S:1 n_minim_iter=1 pbc="T T T"
P        3.02865122       1.02204744       1.04264367       0.00000000 NULL
P        1.42547396      -0.09286790       2.38659391       0.00000000 NULL
P       -0.74670730       3.48762089       2.86509863       0.00000000 NULL
P        1.06979220       1.88176376       3.72550191       0.00000000 NULL
4
Lattice="3.5838908731516317 0.0012012921129211263 -0.00048271650270133944 -0.6667723257899003 4.866593629192847 -0.00046890046302778404 -0.9752302936580118 -0.9492872639737824 5.105248509002244" Properties=species:S:1:pos:R:3:initial_magmoms:R:1:castep_labels:S:1 n_minim_iter=2 pbc="T T T"
P        3.02811083       1.02262969       1.04190993       0.00000000 NULL
P        1.42487801      -0.09231188       2.38581247       0.00000000 NULL
P       -0.74588498       3.48571921       2.86426996       0.00000000 NULL
P        1.06964282       1.88111735       3.72441559       0.00000000 NULL
4
Lattice="3.419739273847438 0.2204880174096934 -0.09126171667879204 -0.33836119955086347 4.5676328964908155 -0.09018940540297117 -1.117940457948202 -1.0704700122700659 4.956115614024006" Properties=species:S:1:pos:R:3:initial_magmoms:R:1:castep_labels:S:1 n_minim_iter=3 pbc="T T T"
P        2.93161252       1.12931831       0.90410266       0.00000000 NULL
P        1.32009931       0.00847807       2.23868499       0.00000000 NULL
P       -0.60243281       3.13709374       2.71087684       0.00000000 NULL
P        1.04027029       1.76109937       3.52192687       0.00000000 NULL
4
Lattice="3.408836775323168 0.17854343441873963 -0.0433471273961378 -0.39328958034030104 4.576667766420012 -0.193373567779026 -1.0356292885499585 -1.1581560387535872 5.07153239317478" Properties=species:S:1:pos:R:3:initial_magmoms:R:1:castep_labels:S:1 n_minim_iter=4 pbc="T T T"
P        2.92540537       1.08208716       0.94466930       0.00000000 NULL
P        1.34645481      -0.03531602       2.28604422       0.00000000 NULL
P       -0.60767975       3.05677084       2.69898439       0.00000000 NULL
P        1.07106788       1.68413820       3.60381401       0.00000000 NULL
4
Lattice="3.3754680367027166 0.18466824309838692 -0.03342843052983278 -0.37874860260183835 4.502437105276516 -0.23530787860205582 -1.0140515412331548 -1.1876210728510521 5.108418043041061" Properties=species:S:1:pos:R:3:initial_magmoms:R:1:castep_labels:S:1 n_minim_iter=5 pbc="T T T"
P        2.90367639       1.06873408       0.95150574       0.00000000 NULL
P        1.33932217      -0.04175297       2.28830000       0.00000000 NULL
P       -0.59104174       2.95887068       2.68881738       0.00000000 NULL
P        1.07730841       1.63292675       3.62859054       0.00000000 NULL
4
Lattice="3.373697094906493 0.18800548755215787 -0.022352993868895103 -0.3738862622258804 4.468023383793432 -0.27588017643911306 -0.9986778700987675 -1.2223311704924125 5.164764918343332" Properties=species:S:1:pos:R:3:initial_magmoms:R:1:castep_labels:S:1 n_minim_iter=6 pbc="T T T"
P        2.90816254       1.06167448       0.96341742       0.00000000 NULL
P        1.34526956      -0.05176704       2.30027554       0.00000000 NULL
P       -0.58242929       2.89309608       2.69087622       0.00000000 NULL
P        1.09272274       1.59724854       3.66933898       0.00000000 NULL
4
Lattice="3.3674224817091996 0.20422524004903458 0.019793170223417884 -0.35068923083489556 4.310864274874084 -0.42834368494404435 -0.9412331652866334 -1.3483715810090546 5.359658673051638" Properties=species:S:1:pos:R:3:initial_magmoms:R:1:castep_labels:S:1 n_minim_iter=7 pbc="T T T"
P        2.92758209       1.03279160       1.00803297       0.00000000 NULL
P        1.36542307      -0.08885047       2.32964682       0.00000000 NULL
P       -0.54582022       2.62836682       2.69264073       0.00000000 NULL
P        1.15447926       1.45251779       3.81229990       0.00000000 NULL
4
Lattice="3.445352930526079 0.2562858267911879 0.02123714326938303 -0.29452394466626186 4.250039846806489 -0.5591184980712743 -0.9741374907423952 -1.4894433323231178 5.44082799695902" Properties=species:S:1:pos:R:3:initial_magmoms:R:1:castep_labels:S:1 n_minim_iter=8 pbc="T T T"
P        3.02578076       1.06285944       1.01871405       0.00000000 NULL
P        1.38588085      -0.11235747       2.24556909       0.00000000 NULL
P       -0.52997740       2.42558388       2.66400299       0.00000000 NULL
P        1.21933937       1.38337815       3.85755804       0.00000000 NULL
4
Lattice="3.3343159686981454 0.17789133964350318 0.060131717643458676 -0.3802768422006471 4.291595027906329 -0.5978240269928841 -0.8678082748332189 -1.5063695544921407 5.249558806300785" Properties=species:S:1:pos:R:3:initial_magmoms:R:1:castep_labels:S:1 n_minim_iter=9 pbc="T T T"
P        2.92110841       0.99773644       1.03327970       0.00000000 NULL
P        1.35897813      -0.15142046       2.12313685       0.00000000 NULL
P       -0.54941711       2.40677323       2.56657307       0.00000000 NULL
P        1.19335670       1.37201848       3.70737945       0.00000000 NULL
4
Lattice="3.4390827637956725 0.22942658102809013 0.026984098268783105 -0.3298300262113364 4.38997437313655 -0.618696193567083 -0.9571395006295466 -1.5697980947115493 5.390277525281894" Properties=species:S:1:pos:R:3:initial_magmoms:R:1:castep_labels:S:1 n_minim_iter=10 pbc="T T T"
P        3.02128362       1.06426703       1.01739270       0.00000000 NULL
P        1.37718841      -0.14498985       2.15279359       0.00000000 NULL
P       -0.55348075       2.44597607       2.63832622       0.00000000 NULL
P        1.21654763       1.41256737       3.79079122       0.00000000 NULL
