12
Lattice="3.1549023749344918 0.0 0.0 0.0 10.199915409038505 0.0 0.0 0.0 8.286892191961476" Properties=species:S:1:pos:R:3:initial_magmoms:R:1:castep_labels:S:1:forces:R:3 n_minim_iter=1 energy=-62.376149021501 stress="-3.153710985364239e-05 -0.0 -0.0 -0.0 -7.30490963078423e-05 0.0 -0.0 0.0 3.2849593616873644e-05" free_energy=-62.376149021501 pbc="T T T"
P        0.78661193       1.15645942       4.03882133       0.00000000 NULL       0.00000000      -0.00189500       0.00071200
P        2.36406312       9.04345598       8.18226742       0.00000000 NULL      -0.00000000       0.00189500       0.00071200
P        2.36406312       6.25641713       4.03882133       0.00000000 NULL      -0.00000000      -0.00189500       0.00071200
P        0.78661193       3.94349828       8.18226742       0.00000000 NULL       0.00000000       0.00189500       0.00071200
P        2.36406312       1.42166287       2.30952038       0.00000000 NULL      -0.00000100      -0.00017200      -0.00220800
P        0.78661193       8.77825253       6.45296647       0.00000000 NULL       0.00000100       0.00017200      -0.00220900
P        0.78661193       6.52162058       2.30952038       0.00000000 NULL       0.00000100      -0.00017300      -0.00220800
P        2.36406312       3.67829483       6.45296647       0.00000000 NULL      -0.00000100       0.00017300      -0.00220900
P        0.78661193       2.06564667       7.06790640       0.00000000 NULL       0.00000000      -0.00461800       0.00149600
P        2.36406312       8.13426874       2.92446031       0.00000000 NULL      -0.00000000       0.00461800       0.00149700
P        2.36406312       7.16560437       7.06790640       0.00000000 NULL      -0.00000000      -0.00461800       0.00149700
P        0.78661193       3.03431104       2.92446031       0.00000000 NULL       0.00000000       0.00461800       0.00149700
