60
Lattice="12.176429999999982 -2.77659982199784e-07 -4.6135582034225767e-07 -5.82178176087004 10.694498804231108 -4.6135585916515746e-07 -5.821782126671109 -3.7759170863754066 10.005736388506953" Properties=species:S:1:pos:R:3:initial_magmoms:R:1:castep_labels:S:1 n_minim_iter=1 pbc="T T T"
P       -3.11522741       5.43358128       6.11208961       0.00000000 NULL
P       -5.38182732       6.78038993       3.89364585       0.00000000 NULL
P        6.12150161       0.03900377       3.36560115       0.00000000 NULL
P        3.46209872       1.61921558       6.64013430       0.00000000 NULL
P       -1.55691987       5.52128760       8.93036617       0.00000000 NULL
P        6.12657818       8.19097724       1.07536870       0.00000000 NULL
P        3.83436065       9.51789122       1.31308499       0.00000000 NULL
P        0.70445474       4.14246680       8.69264989       0.00000000 NULL
P        4.87725131       7.40107048       3.94841683       0.00000000 NULL
P       -1.65336452       4.04634019       6.05731823       0.00000000 NULL
P        2.65367077       1.47978139       8.48525010       0.00000000 NULL
P        0.56378004       9.95679790       1.52048497       0.00000000 NULL
P        9.02413438       0.38026677       0.21638468       0.00000000 NULL
P       -9.80240504       4.33174873       9.78935096       0.00000000 NULL
P       -1.15171208      -0.78560037       2.73958560       0.00000000 NULL
P        0.39353227       5.53142761       7.26615004       0.00000000 NULL
P        5.86102166       3.28224760       1.00365593       0.00000000 NULL
P       -5.74126551       2.94109412       9.00207959       0.00000000 NULL
P       -1.02105803       0.13635740       6.49725067       0.00000000 NULL
P        1.14081482       6.08698539       3.50848485       0.00000000 NULL
P       -3.59071620       1.38072433       3.82772735       0.00000000 NULL
P        3.46233859       4.42502289       6.17800821       0.00000000 NULL
P       -3.42252172       8.55600766       2.47972412       0.00000000 NULL
P        3.32928976      -2.69111239       7.52601142       0.00000000 NULL
P        0.94412775       8.97872968       4.09129378       0.00000000 NULL
P        1.61278661       1.34620568       5.91444138       0.00000000 NULL
P        7.23346913       5.25702438       2.39368260       0.00000000 NULL
P       -4.66302192       5.09068598       7.61205256       0.00000000 NULL
P       -2.82227052       1.35793171       7.37273955       0.00000000 NULL
P        3.07491126       5.08904694       2.63299595       0.00000000 NULL
P        0.48715606       6.64073547       0.95487796       0.00000000 NULL
P       -0.22217523      -0.17298918       9.05085754       0.00000000 NULL
P        5.61547082      -0.92209126       5.88482441       0.00000000 NULL
P        2.85991636       0.71525317       4.12091120       0.00000000 NULL
P       -3.35887857       4.41372246       3.28685208       0.00000000 NULL
P       -6.16106990       6.07877887       6.71888353       0.00000000 NULL
P        0.76694480       5.20827746       5.26987667       0.00000000 NULL
P       -1.61406871      -0.61213792       4.73585899       0.00000000 NULL
P        7.05407524       1.53868547       0.39328008       0.00000000 NULL
P       -7.84304904       3.15531729       9.61245556       0.00000000 NULL
P       -5.64583634       5.02338567       9.36523464       0.00000000 NULL
P        7.64426163       4.36164551       0.64050060       0.00000000 NULL
P        2.27481508       7.50479207       4.35750444       0.00000000 NULL
P       -0.31799239       1.81022437       5.64823082       0.00000000 NULL
P        0.48935760       3.32399050       6.84569216       0.00000000 NULL
P        3.21833907       8.93764369       3.16004284       0.00000000 NULL
P       -3.69017065       5.80745748       9.21495937       0.00000000 NULL
P        7.39786732       6.45417670       0.79077563       0.00000000 NULL
P       -2.49669203       3.79367260       0.65375262       0.00000000 NULL
P       -7.11788415       6.53957587       9.35198300       0.00000000 NULL
P        0.72139095       1.85352204       3.61095688       0.00000000 NULL
P        7.63767629      -2.25611973       6.39477874       0.00000000 NULL
P       -8.37844280       6.83577062       7.81210128       0.00000000 NULL
P       -1.63384857       2.82814661       2.19363440       0.00000000 NULL
P        5.87127296      -1.60340736       7.82599624       0.00000000 NULL
P        2.13921577       0.61417258       2.17973944       0.00000000 NULL
P        3.92174357       3.34039670       4.48770128       0.00000000 NULL
P       -4.76298816       1.26563740       5.51803438       0.00000000 NULL
P        1.38671165      -2.42851676       7.07515903       0.00000000 NULL
P       -2.26310189       6.97540279       2.93057663       0.00000000 NULL
60
Lattice="12.250594306288587 -0.006141828539056484 0.009031119416241422 -5.862635213421697 10.756700559043262 -0.009032046964744713 -5.847915466705625 -3.7983154231566076 10.114400221737704" Properties=species:S:1:pos:R:3:initial_magmoms:R:1:castep_labels:S:1 n_minim_iter=2 pbc="T T T"
P       -3.13244894       5.46273361       6.17526482       0.00000000 NULL
P       -5.41497583       6.81900604       3.93010288       0.00000000 NULL
P        6.16119328       0.03505701       3.40759261       0.00000000 NULL
P        3.48768593       1.62364967       6.71583825       0.00000000 NULL
P       -1.56249718       5.54874232       9.02612646       0.00000000 NULL
P        6.16053566       8.23286719       1.08827224       0.00000000 NULL
P        3.85383610       9.56788025       1.32606140       0.00000000 NULL
P        0.71291494       4.16107435       8.78833730       0.00000000 NULL
P        4.90607357       7.43782883       3.99271912       0.00000000 NULL
P       -1.66099365       4.06683115       6.12167977       0.00000000 NULL
P        2.67542497       1.48292572       8.58107822       0.00000000 NULL
P        0.56331810      10.01106972       1.53332067       0.00000000 NULL
P        9.07913911       0.37816306       0.22512310       0.00000000 NULL
P       -9.85668487       4.35665495       9.88927637       0.00000000 NULL
P       -1.15587365      -0.79042280       2.76952319       0.00000000 NULL
P        0.39846400       5.55912868       7.34487628       0.00000000 NULL
P        5.89565006       3.29688660       1.01794721       0.00000000 NULL
P       -5.77109798       2.95610892       9.09645214       0.00000000 NULL
P       -1.02272169       0.13464746       6.56906201       0.00000000 NULL
P        1.14728592       6.11836851       3.54533734       0.00000000 NULL
P       -3.61042269       1.38846454       3.86700138       0.00000000 NULL
P        3.48573633       4.44507738       6.24739800       0.00000000 NULL
P       -3.44590956       8.60414131       2.50099324       0.00000000 NULL
P        3.35661413      -2.71103855       7.61340613       0.00000000 NULL
P        0.94815655       9.02620998       4.13362131       0.00000000 NULL
P        1.62642874       1.35004705       5.98077768       0.00000000 NULL
P        7.27635303       5.28149080       2.42383080       0.00000000 NULL
P       -4.68817013       5.11765022       7.69056819       0.00000000 NULL
P       -2.83472246       1.36360441       7.45193735       0.00000000 NULL
P        3.09302458       5.11448454       2.66246198       0.00000000 NULL
P        0.48747161       6.67690703       0.96305215       0.00000000 NULL
P       -0.21669014      -0.17781606       9.15134718       0.00000000 NULL
P        5.65446967      -0.93255672       5.95483743       0.00000000 NULL
P        2.88010947       0.71596205       4.16859359       0.00000000 NULL
P       -3.37881795       4.43835134       3.31917400       0.00000000 NULL
P       -6.19689187       6.11284515       6.78619386       0.00000000 NULL
P        0.77293127       5.23420382       5.32682567       0.00000000 NULL
P       -1.62029331      -0.61688249       4.78757382       0.00000000 NULL
P        7.09647660       1.54342737       0.40225044       0.00000000 NULL
P       -7.88529049       3.17242704       9.71214904       0.00000000 NULL
P       -5.67609934       5.04981176       9.46338826       0.00000000 NULL
P        7.68911835       4.38136232       0.65101082       0.00000000 NULL
P        2.28835279       7.54306118       4.40461876       0.00000000 NULL
P       -0.31698679       1.81801332       5.70978032       0.00000000 NULL
P        0.49583159       3.33910778       6.92064220       0.00000000 NULL
P        3.23569868       8.98421948       3.19375662       0.00000000 NULL
P       -3.70853391       5.83741390       9.31232792       0.00000000 NULL
P        7.44013522       6.48603292       0.80207090       0.00000000 NULL
P       -2.51319855       3.81568311       0.65733845       0.00000000 NULL
P       -7.15764714       6.57540532       9.44802942       0.00000000 NULL
P        0.72758017       1.86187639       3.65072468       0.00000000 NULL
P        7.69008565      -2.27522930       6.47270636       0.00000000 NULL
P       -8.42713348       6.87441736       7.88963607       0.00000000 NULL
P       -1.64361219       2.84366297       2.21573185       0.00000000 NULL
P        5.91365158      -1.61875588       7.91821877       0.00000000 NULL
P        2.15350418       0.61551520       2.20521232       0.00000000 NULL
P        3.94725514       3.35501849       4.53892840       0.00000000 NULL
P       -4.78847682       1.27263669       5.57547109       0.00000000 NULL
P        1.40150295      -2.44577137       7.15593256       0.00000000 NULL
P       -2.27815103       7.01380603       2.95846693       0.00000000 NULL
60
Lattice="12.537379172343709 -0.02400801730644925 0.04983046566116519 -6.015444272150954 11.000040136757642 -0.049831412663309066 -5.945966379236281 -3.8925945046840615 10.569420026696916" Properties=species:S:1:pos:R:3:initial_magmoms:R:1:castep_labels:S:1 n_minim_iter=3 pbc="T T T"
P       -3.19347420       5.57517769       6.43872812       0.00000000 NULL
P       -5.53789941       6.96822995       4.08086002       0.00000000 NULL
P        6.31633785       0.02211597       3.58514099       0.00000000 NULL
P        3.59087626       1.64157974       7.03410901       0.00000000 NULL
P       -1.57708882       5.65455596       9.42676809       0.00000000 NULL
P        6.29637265       8.40183718       1.14265038       0.00000000 NULL
P        3.93433362       9.76746079       1.37988114       0.00000000 NULL
P        0.75166725       4.23291907       9.18953733       0.00000000 NULL
P        5.02303840       7.58503283       4.17868857       0.00000000 NULL
P       -1.68567912       4.14566271       6.39073009       0.00000000 NULL
P        2.76451596       1.49478217       8.98348601       0.00000000 NULL
P        0.56706034      10.22618095       1.58593266       0.00000000 NULL
P        9.29219637       0.37485615       0.26371052       0.00000000 NULL
P      -10.05950693       4.44792192      10.30570875       0.00000000 NULL
P       -1.17069532      -0.81070867       2.89497127       0.00000000 NULL
P        0.42365842       5.66760612       7.67444799       0.00000000 NULL
P        6.03149680       3.35761393       1.07881345       0.00000000 NULL
P       -5.88076328       3.01017825       9.49060568       0.00000000 NULL
P       -1.02619829       0.12566122       6.87024271       0.00000000 NULL
P        1.17698046       6.24221280       3.69917643       0.00000000 NULL
P       -3.68417362       1.41623017       4.03080710       0.00000000 NULL
P        3.58130935       4.52477185       6.53861207       0.00000000 NULL
P       -3.53104658       8.79236618       2.58815357       0.00000000 NULL
P        3.46458582      -2.79009920       7.98126559       0.00000000 NULL
P        0.96980373       9.21384547       4.31022988       0.00000000 NULL
P        1.68282722       1.36449263       6.25918889       0.00000000 NULL
P        7.44569754       5.38169021       2.55159397       0.00000000 NULL
P       -4.77918321       5.22001280       8.01782480       0.00000000 NULL
P       -2.87870041       1.38271104       7.78312010       0.00000000 NULL
P        3.16675740       5.21618843       2.78629901       0.00000000 NULL
P        0.49230576       6.82028872       0.99641066       0.00000000 NULL
P       -0.19112091      -0.19929584       9.57300845       0.00000000 NULL
P        5.80774883      -0.97247328       6.25009883       0.00000000 NULL
P        2.96049922       0.71935621       4.36915134       0.00000000 NULL
P       -3.45194353       4.53331402       3.45340386       0.00000000 NULL
P       -6.32938387       6.24308325       7.06618443       0.00000000 NULL
P        0.80119173       5.33586181       5.56522402       0.00000000 NULL
P       -1.64257038      -0.63773597       5.00419525       0.00000000 NULL
P        7.26128137       1.56579102       0.44142841       0.00000000 NULL
P       -8.04249579       3.23358767      10.12799086       0.00000000 NULL
P       -5.78640461       5.14909447       9.87327265       0.00000000 NULL
P        7.86498178       4.46314495       0.69614620       0.00000000 NULL
P        2.34661817       7.69461363       4.60197779       0.00000000 NULL
P       -0.30978773       1.84736850       5.96744107       0.00000000 NULL
P        0.52586979       3.39758001       7.23469026       0.00000000 NULL
P        3.30861760       9.16975283       3.33472833       0.00000000 NULL
P       -3.77206641       5.95186678       9.71914891       0.00000000 NULL
P        7.60695958       6.61614899       0.85026969       0.00000000 NULL
P       -2.57473277       3.90136631       0.67122489       0.00000000 NULL
P       -7.30383130       6.71138738       9.84836341       0.00000000 NULL
P        0.75427428       1.89445377       3.81738374       0.00000000 NULL
P        7.89466919      -2.34835342       6.80186645       0.00000000 NULL
P       -8.60820341       7.02110461       8.21188895       0.00000000 NULL
P       -1.67906454       2.90382454       2.30769941       0.00000000 NULL
P        6.08053565      -1.67838811       8.30664328       0.00000000 NULL
P        2.21007298       0.62143204       2.31260695       0.00000000 NULL
P        4.04959426       3.41405004       4.75429031       0.00000000 NULL
P       -4.88361090       1.29646563       5.81512897       0.00000000 NULL
P        1.46090591      -2.51515423       7.49547070       0.00000000 NULL
P       -2.33156646       7.16400036       3.07394858       0.00000000 NULL
60
Lattice="12.521050755710302 0.00939843937051172 0.07570532323578386 -5.978296621673477 11.001671223826806 -0.0757062732609353 -5.927256665187065 -3.9274159105862276 10.689881335120095" Properties=species:S:1:pos:R:3:initial_magmoms:R:1:castep_labels:S:1 n_minim_iter=4 pbc="T T T"
P       -3.16139029       5.56838645       6.50307204       0.00000000 NULL
P       -5.50334669       6.95997174       4.11110254       0.00000000 NULL
P        6.31552380       0.03608991       3.64088237       0.00000000 NULL
P        3.60592001       1.64613101       7.12470379       0.00000000 NULL
P       -1.54090858       5.64839415       9.53110429       0.00000000 NULL
P        6.31319125       8.43088415       1.15877549       0.00000000 NULL
P        3.95786534       9.79110465       1.39170102       0.00000000 NULL
P        0.77989229       4.23007003       9.29817876       0.00000000 NULL
P        5.04535911       7.60539128       4.23024396       0.00000000 NULL
P       -1.65976064       4.14017922       6.45963601       0.00000000 NULL
P        2.78379183       1.49410693       9.09576898       0.00000000 NULL
P        0.59678006      10.24300413       1.59411100       0.00000000 NULL
P        9.28192367       0.40139482       0.28421370       0.00000000 NULL
P      -10.01257686       4.41676668      10.40566687       0.00000000 NULL
P       -1.16406422      -0.81811138       2.92858290       0.00000000 NULL
P        0.45351515       5.67010694       7.76129767       0.00000000 NULL
P        6.03425766       3.37715354       1.10009584       0.00000000 NULL
P       -5.84621204       2.98712394       9.58978459       0.00000000 NULL
P       -1.01179034       0.11454129       6.95223276       0.00000000 NULL
P        1.19985410       6.24976671       3.73764767       0.00000000 NULL
P       -3.66774639       1.40354371       4.07085253       0.00000000 NULL
P        3.60184167       4.53335031       6.61902795       0.00000000 NULL
P       -3.49780571       8.79378331       2.60169418       0.00000000 NULL
P        3.46864710      -2.79504775       8.08818629       0.00000000 NULL
P        1.00076246       9.22623760       4.35377576       0.00000000 NULL
P        1.69761892       1.36278703       6.33610431       0.00000000 NULL
P        7.45469338       5.40724165       2.59282484       0.00000000 NULL
P       -4.74233288       5.20530903       8.09705524       0.00000000 NULL
P       -2.85564247       1.36753371       7.86861177       0.00000000 NULL
P        3.18193173       5.22939966       2.82126864       0.00000000 NULL
P        0.51166793       6.83158427       1.00095889       0.00000000 NULL
P       -0.17174779      -0.21171093       9.68892152       0.00000000 NULL
P        5.81071179      -0.96603537       6.33878951       0.00000000 NULL
P        2.96711825       0.72362169       4.42679683       0.00000000 NULL
P       -3.42723777       4.52711805       3.48311712       0.00000000 NULL
P       -6.29078069       6.22862947       7.13105762       0.00000000 NULL
P        0.82586479       5.33898146       5.62791758       0.00000000 NULL
P       -1.63291735      -0.64939560       5.06196300       0.00000000 NULL
P        7.25644992       1.58679165       0.45998321       0.00000000 NULL
P       -8.00303132       3.20456362      10.22989736       0.00000000 NULL
P       -5.74618664       5.12947175       9.97585478       0.00000000 NULL
P        7.86804720       4.48930232       0.71402537       0.00000000 NULL
P        2.37421311       7.70670612       4.65438715       0.00000000 NULL
P       -0.29365091       1.84256524       6.03549301       0.00000000 NULL
P        0.54928411       3.39576166       7.31887092       0.00000000 NULL
P        3.33535466       9.18966425       3.37100898       0.00000000 NULL
P       -3.73062360       5.93960329       9.82221526       0.00000000 NULL
P        7.61590297       6.64690072       0.86766464       0.00000000 NULL
P       -2.55896171       3.89980998       0.66920015       0.00000000 NULL
P       -7.25688129       6.69130459       9.94497460       0.00000000 NULL
P        0.76678641       1.89472295       3.86234005       0.00000000 NULL
P        7.89130462      -2.33865033       6.90324630       0.00000000 NULL
P       -8.56087732       6.99913468       8.28503692       0.00000000 NULL
P       -1.66513075       2.90169625       2.32913789       0.00000000 NULL
P        6.08495907      -1.67495053       8.42076045       0.00000000 NULL
P        2.21335856       0.62554572       2.34482595       0.00000000 NULL
P        4.06263252       3.42523247       4.81568526       0.00000000 NULL
P       -4.86131355       1.27844219       5.87419532       0.00000000 NULL
P        1.46729214      -2.52445579       7.59194096       0.00000000 NULL
P       -2.30326041       7.16537823       3.09793963       0.00000000 NULL
60
Lattice="12.446902222687424 0.05905357876474918 0.10705025336054293 -5.89923294162845 10.960287987236342 -0.10705120409938669 -5.881445860887575 -3.960232822145572 10.772155122802836" Properties=species:S:1:pos:R:3:initial_magmoms:R:1:castep_labels:S:1 n_minim_iter=5 pbc="T T T"
P       -3.10456339       5.53816877       6.54209341       0.00000000 NULL
P       -5.43218225       6.92123473       4.12301003       0.00000000 NULL
P        6.28735196       0.05767163       3.68677305       0.00000000 NULL
P        3.61000689       1.64854467       7.19243183       0.00000000 NULL
P       -1.48591824       5.61971674       9.60078088       0.00000000 NULL
P        6.31243805       8.44092567       1.17137268       0.00000000 NULL
P        3.97637880       9.78783899       1.39761422       0.00000000 NULL
P        0.81398325       4.21195203       9.37453934       0.00000000 NULL
P        5.05618953       7.60679242       4.26758082       0.00000000 NULL
P       -1.61789745       4.11754452       6.50457294       0.00000000 NULL
P        2.79665048       1.49000818       9.17762410       0.00000000 NULL
P        0.63775812      10.22779311       1.59452966       0.00000000 NULL
P        9.22956537       0.43909294       0.30748259       0.00000000 NULL
P       -9.90862249       4.35598791      10.46467177       0.00000000 NULL
P       -1.15139655      -0.82500251       2.95189897       0.00000000 NULL
P        0.49213200       5.65339310       7.82025539       0.00000000 NULL
P        6.01380056       3.39320372       1.11929263       0.00000000 NULL
P       -5.77652352       2.94401355       9.65286159       0.00000000 NULL
P       -0.98990351       0.09977922       7.01032506       0.00000000 NULL
P        1.22715008       6.23738676       3.76182916       0.00000000 NULL
P       -3.63089696       1.38031951       4.09525154       0.00000000 NULL
P        3.61455151       4.53006604       6.67690272       0.00000000 NULL
P       -3.43580365       8.76167674       2.60229876       0.00000000 NULL
P        3.45661450      -2.78875932       8.16985549       0.00000000 NULL
P        1.04054282       9.20938145       4.38058864       0.00000000 NULL
P        1.70960531       1.35684977       6.39156522       0.00000000 NULL
P        7.43720333       5.42450584       2.62769119       0.00000000 NULL
P       -4.67299669       5.16538502       8.14446267       0.00000000 NULL
P       -2.81408516       1.34194863       7.92491261       0.00000000 NULL
P        3.19031708       5.22912152       2.84724159       0.00000000 NULL
P        0.53786354       6.82149249       1.00010007       0.00000000 NULL
P       -0.14732517      -0.22634543       9.77205413       0.00000000 NULL
P        5.78882166      -0.95073193       6.40897430       0.00000000 NULL
P        2.96268753       0.72855078       4.47023075       0.00000000 NULL
P       -3.37879063       4.50099480       3.49819809       0.00000000 NULL
P       -6.21201363       6.18449018       7.16690550       0.00000000 NULL
P        0.85631678       5.32425905       5.67037478       0.00000000 NULL
P       -1.61459684      -0.66250574       5.10177959       0.00000000 NULL
P        7.22015022       1.61180720       0.48010611       0.00000000 NULL
P       -7.91789391       3.15182526      10.29204825       0.00000000 NULL
P       -5.66852718       5.08299099      10.04060821       0.00000000 NULL
P        7.84081887       4.51074190       0.73154573       0.00000000 NULL
P        2.40327362       7.69547029       4.69045147       0.00000000 NULL
P       -0.27160286       1.82989996       6.08170248       0.00000000 NULL
P        0.57799888       3.38189121       7.37734784       0.00000000 NULL
P        3.36016918       9.18370755       3.39480585       0.00000000 NULL
P       -3.65947230       5.90082471       9.88835153       0.00000000 NULL
P        7.59855109       6.66630677       0.88380216       0.00000000 NULL
P       -2.52563700       3.88212205       0.66259819       0.00000000 NULL
P       -7.16347521       6.63791644      10.00250542       0.00000000 NULL
P        0.78034752       1.88871991       3.89374676       0.00000000 NULL
P        7.85121062      -2.31277162       6.98545831       0.00000000 NULL
P       -8.46067604       6.94115579       8.32393608       0.00000000 NULL
P       -1.63908698       2.88778159       2.34116758       0.00000000 NULL
P        6.06289753      -1.66050849       8.50884806       0.00000000 NULL
P        2.20825323       0.62991241       2.37035706       0.00000000 NULL
P        4.06334075       3.42971955       4.86156971       0.00000000 NULL
P       -4.81190039       1.24839266       5.91058466       0.00000000 NULL
P        1.46700879      -2.52590903       7.66375939       0.00000000 NULL
P       -2.25367536       7.13988952       3.10839499       0.00000000 NULL
60
Lattice="12.265278963643242 0.16590353880327277 0.18674722366856777 -5.718549634364103 10.851856143740825 -0.18674817427092816 -5.762253176661758 -4.029986648422949 10.915185008161078" Properties=species:S:1:pos:R:3:initial_magmoms:R:1:castep_labels:S:1 n_minim_iter=6 pbc="T T T"
P       -2.97089755       5.46064205       6.60071274       0.00000000 NULL
P       -5.26430578       6.82338012       4.12772362       0.00000000 NULL
P        6.21930767       0.10343395       3.78053911       0.00000000 NULL
P        3.62030240       1.64775765       7.32139263       0.00000000 NULL
P       -1.35531287       5.54290376       9.71895638       0.00000000 NULL
P        6.30078141       8.44757426       1.19622706       0.00000000 NULL
P        4.01030574       9.76193637       1.40389464       0.00000000 NULL
P        0.89420467       4.15961153       9.51128881       0.00000000 NULL
P        5.07421227       7.59409452       4.33646696       0.00000000 NULL
P       -1.51847429       4.05754887       6.57871669       0.00000000 NULL
P        2.82897357       1.47387964       9.32923313       0.00000000 NULL
P        0.72639095      10.17713524       1.58595051       0.00000000 NULL
P        9.10126417       0.52060839       0.36465145       0.00000000 NULL
P       -9.65649196       4.21252185      10.55053279       0.00000000 NULL
P       -1.11828492      -0.83941709       2.99307055       0.00000000 NULL
P        0.58189318       5.60424728       7.92211369       0.00000000 NULL
P        5.95937151       3.42069252       1.16103577       0.00000000 NULL
P       -5.60716400       2.83959786       9.75414834       0.00000000 NULL
P       -0.93547949       0.06350480       7.11548884       0.00000000 NULL
P        1.28752201       6.19650791       3.79969527       0.00000000 NULL
P       -3.54161649       1.32500873       4.13251515       0.00000000 NULL
P        3.64153836       4.51069980       6.78266900       0.00000000 NULL
P       -3.29385644       8.67557565       2.58731161       0.00000000 NULL
P        3.43231738      -2.77500815       8.32787253       0.00000000 NULL
P        1.12708663       9.15492091       4.42178672       0.00000000 NULL
P        1.73958733       1.33706833       6.49339703       0.00000000 NULL
P        7.38818127       5.45078378       2.70080993       0.00000000 NULL
P       -4.50728586       5.06513933       8.21437382       0.00000000 NULL
P       -2.71230412       1.27958510       8.01842632       0.00000000 NULL
P        3.20513279       5.21736240       2.89675777       0.00000000 NULL
P        0.59391743       6.78743924       0.99085928       0.00000000 NULL
P       -0.08484171      -0.26314890       9.92432481       0.00000000 NULL
P        5.73839031      -0.91982126       6.54898500       0.00000000 NULL
P        2.95151782       0.73613226       4.55294690       0.00000000 NULL
P       -3.26386756       4.43464287       3.51509704       0.00000000 NULL
P       -6.02536110       6.07551677       7.21333947       0.00000000 NULL
P        0.92603266       5.27928254       5.74361482       0.00000000 NULL
P       -1.56823930      -0.69253257       5.17156943       0.00000000 NULL
P        7.12910119       1.66194517       0.52894752       0.00000000 NULL
P       -7.71113303       3.02607542      10.38623672       0.00000000 NULL
P       -5.48236974       4.96740439      10.14366160       0.00000000 NULL
P        7.76854705       4.54764320       0.77152223       0.00000000 NULL
P        2.46698155       7.65356768       4.75425347       0.00000000 NULL
P       -0.21967301       1.79606606       6.16093037       0.00000000 NULL
P        0.64601252       3.34213973       7.48093901       0.00000000 NULL
P        3.41098977       9.15310194       3.43424456       0.00000000 NULL
P       -3.48986024       5.80143203       9.99533462       0.00000000 NULL
P        7.54841298       6.69641897       0.91984895       0.00000000 NULL
P       -2.44766529       3.83646350       0.64132586       0.00000000 NULL
P       -6.94098065       6.50638273      10.08711066       0.00000000 NULL
P        0.81267180       1.86998690       3.94941376       0.00000000 NULL
P        7.75687208      -2.25624183       7.15251816       0.00000000 NULL
P       -8.22095489       6.79887719       8.37110171       0.00000000 NULL
P       -1.57878881       2.85211573       2.35733487       0.00000000 NULL
P        6.01262831      -1.63122467       8.68034407       0.00000000 NULL
P        2.19557714       0.63685846       2.42158790       0.00000000 NULL
P        4.06194848       3.43126618       4.94852606       0.00000000 NULL
P       -4.69068364       1.17815548       5.96665819       0.00000000 NULL
P        1.47070601      -2.52908038       7.79943502       0.00000000 NULL
P       -2.13997573       7.07028477       3.11574924       0.00000000 NULL
60
Lattice="12.281153628226837 0.158544089642643 0.2390365173790465 -5.732603383971704 10.862280085505128 -0.23903746824580854 -5.724593309724532 -4.0544372955328924 10.959096611534806" Properties=species:S:1:pos:R:3:initial_magmoms:R:1:castep_labels:S:1 n_minim_iter=7 pbc="T T T"
P       -2.95359309       5.45428941       6.60810501       0.00000000 NULL
P       -5.25455274       6.82151452       4.11195365       0.00000000 NULL
P        6.24254383       0.09678789       3.82377004       0.00000000 NULL
P        3.65689007       1.63317816       7.37436259       0.00000000 NULL
P       -1.32056503       5.52551367       9.75191174       0.00000000 NULL
P        6.30837496       8.44839244       1.20718331       0.00000000 NULL
P        4.01420674       9.75911934       1.40123361       0.00000000 NULL
P        0.92752521       4.13724024       9.55786145       0.00000000 NULL