22
Lattice="7.846180000000001 5.115306611900117e-16 -9.793474487549007e-16 0.12449119137774017 7.8451923198650375 -9.793474487549005e-16 0.49213473466673086 0.4843872677777453 8.154485087769139" Properties=species:S:1:pos:R:3:initial_magmoms:R:1:castep_labels:S:1 n_minim_iter=1 pbc="T T T"
P        0.77818633       4.01612179       3.00276519       0.00000000 NULL
P        4.02796331       0.71436669       3.00276519       0.00000000 NULL
P        3.36092449       5.01165783       0.94385719       0.00000000 NULL
P        5.06435297       3.28098409       0.94385719       0.00000000 NULL
P        1.30691770       7.33000600       8.06570069       0.00000000 NULL
P        7.34981947       1.19045185       8.06570069       0.00000000 NULL
P        3.88366250       5.26823050       3.91778485       0.00000000 NULL
P        5.32918735       3.79958539       3.91778485       0.00000000 NULL
P        4.68414501       8.05893946       5.53027719       0.00000000 NULL
P        8.13224585       4.55568844       5.53027719       0.00000000 NULL
P        1.57451230       3.46378694       0.55371400       0.00000000 NULL
P        3.48833287       1.51935602       0.55371400       0.00000000 NULL
P        4.88030057       6.24323093       1.52673081       0.00000000 NULL
P        6.31987818       4.78062819       1.52673081       0.00000000 NULL
P        0.90345940       5.36150989       7.79224655       0.00000000 NULL
P        5.37516969       0.81827743       7.79224655       0.00000000 NULL
P        0.76783215       2.41087446       6.98756849       0.00000000 NULL
P        2.42275376       0.72948342       6.98756849       0.00000000 NULL
P        2.23170272       7.93066735       2.70478888       0.00000000 NULL
P        7.96507828       2.10559009       2.70478888       0.00000000 NULL
P        1.33287653       5.27464503       1.53126715       0.00000000 NULL
P        5.29512910       1.24901874       1.53126715       0.00000000 NULL
22
Lattice="7.86765642173762 0.003658894027523522 0.0005688154228155723 0.12849037985577286 7.8666079844046655 0.0005688154228155768 0.4942988465883989 0.4865173110099344 8.165019505437387" Properties=species:S:1:pos:R:3:initial_magmoms:R:1:castep_labels:S:1 n_minim_iter=2 pbc="T T T"
P        0.78237516       4.02753088       3.00733749       0.00000000 NULL
P        4.03943743       0.71837398       3.00733749       0.00000000 NULL
P        3.37255917       5.02677515       0.94553782       0.00000000 NULL
P        5.07965299       3.29237744       0.94553782       0.00000000 NULL
P        1.31442702       7.35137225       8.07672878       0.00000000 NULL
P        7.37130218       1.19762122       8.07672878       0.00000000 NULL
P        3.89705592       5.28466754       3.92343811       0.00000000 NULL
P        5.34583483       3.81271633       3.92343811       0.00000000 NULL
P        4.70110362       8.08346992       5.53835136       0.00000000 NULL
P        8.15704229       4.57225570       5.53835136       0.00000000 NULL
P        1.58054104       3.47361605       0.55471315       0.00000000 NULL
P        3.49825640       1.52522805       0.55471315       0.00000000 NULL
P        4.89667359       6.26289371       1.52962488       0.00000000 NULL
P        6.33979826       4.79668717       1.52962488       0.00000000 NULL
P        0.90866226       5.37696533       7.80231957       0.00000000 NULL
P        5.39070574       0.82323441       7.80231957       0.00000000 NULL
P        0.77171194       2.41838103       6.99663355       0.00000000 NULL
P        2.43032094       0.73324362       6.99663355       0.00000000 NULL
P        2.24158001       7.95351843       2.70894643       0.00000000 NULL
P        7.98808320       2.11510357       2.70894643       0.00000000 NULL
P        1.33914894       5.29013319       1.53385151       0.00000000 NULL
P        5.31071484       1.25504462       1.53385151       0.00000000 NULL
22
Lattice="8.183372997106462 0.05923355346302563 0.009395835259543234 0.18906735157804835 8.181403043500202 0.009395835259543243 0.526706279519929 0.5184145675692075 8.315364104152222" Properties=species:S:1:pos:R:3:initial_magmoms:R:1:castep_labels:S:1 n_minim_iter=3 pbc="T T T"
P        0.84495218       4.19536513       3.07335126       0.00000000 NULL
P        4.20824343       0.77828018       3.07335126       0.00000000 NULL
P        3.54486215       5.24969806       0.97015347       0.00000000 NULL
P        5.30528168       3.46112174       0.97015347       0.00000000 NULL
P        1.42694708       7.66639254       8.23481803       0.00000000 NULL
P        7.68806810       1.30512885       8.23481803       0.00000000 NULL
P        4.09550259       5.52731131       4.00480236       0.00000000 NULL
P        5.59159671       4.00728812       4.00480236       0.00000000 NULL
P        4.95251837       8.44544971       5.65476602       0.00000000 NULL
P        8.52296559       4.81789546       5.65476602       0.00000000 NULL
P        1.66995359       3.61815526       0.56933995       0.00000000 NULL
P        3.64419607       1.61233602       0.56933995       0.00000000 NULL
P        5.13885226       6.55324436       1.57207734       0.00000000 NULL
P        6.63395489       5.03422851       1.57207734       0.00000000 NULL
P        0.98648873       5.60468930       7.94619197       0.00000000 NULL
P        5.61963587       0.89743790       7.94619197       0.00000000 NULL
P        0.82985669       2.52935094       7.12611386       0.00000000 NULL
P        2.54219944       0.78962036       7.12611386       0.00000000 NULL
P        2.38875290       8.29012556       2.76911999       0.00000000 NULL
P        8.32698307       2.25691716       2.76911999       0.00000000 NULL
P        1.43280236       5.51852642       1.57144458       0.00000000 NULL
P        5.54056526       1.34506245       1.57144458       0.00000000 NULL
22
Lattice="8.231933996964448 0.08117638911031433 0.017061020601837944 0.2117779167732115 8.229609775104487 0.017061020601837937 0.5390731924068953 0.5305867934297122 8.285498699151544" Properties=species:S:1:pos:R:3:initial_magmoms:R:1:castep_labels:S:1 n_minim_iter=4 pbc="T T T"
P        0.86267438       4.22217593       3.07089858       0.00000000 NULL
P        4.23533204       0.79557475       3.07089858       0.00000000 NULL
P        3.58196629       5.28939547       0.97352880       0.00000000 NULL
P        5.34556280       3.49759135       0.97352880       0.00000000 NULL
P        1.46282630       7.72546619       8.21271329       0.00000000 NULL
P        7.74770359       1.34006627       8.21271329       0.00000000 NULL
P        4.13981123       5.57311665       3.99753331       0.00000000 NULL
P        5.63809930       4.05086441       3.99753331       0.00000000 NULL
P        5.00878632       8.51365674       5.64742049       0.00000000 NULL
P        8.59205680       4.87307412       5.64742049       0.00000000 NULL
P        1.69003638       3.64015785       0.57123989       0.00000000 NULL
P        3.66651454       1.63206717       0.57123989       0.00000000 NULL
P        5.18720843       6.60807717       1.57905901       0.00000000 NULL
P        6.68954804       5.08170860       1.57905901       0.00000000 NULL
P        1.01045702       5.64649973       7.91861753       0.00000000 NULL
P        5.66182133       0.92073979       7.91861753       0.00000000 NULL
P        0.84989314       2.55317281       7.10162844       0.00000000 NULL
P        2.56633622       0.80927632       7.10162844       0.00000000 NULL
P        2.42748340       8.34855186       2.76832790       0.00000000 NULL
P        8.38601654       2.29471577       2.76832790       0.00000000 NULL
P        1.45865624       5.56032564       1.57357010       0.00000000 NULL
P        5.58276943       1.37024988       1.57357010       0.00000000 NULL
22
Lattice="8.247662577194586 0.09790812494508061 0.026258062959131134 0.2287571034806856 8.24507090180512 0.026258062959131107 0.5506511023221106 0.5419824372551898 8.220714694469002" Properties=species:S:1:pos:R:3:initial_magmoms:R:1:castep_labels:S:1 n_minim_iter=5 pbc="T T T"
P        0.87469297       4.23144777       3.05707207       0.00000000 NULL
P        4.24479340       0.80744471       3.05707207       0.00000000 NULL
P        3.60235739       5.30611716       0.97437458       0.00000000 NULL
P        5.36260592       3.51771457       0.97437458       0.00000000 NULL
P        1.48981481       7.75518089       8.15741235       0.00000000 NULL
P        7.77784277       1.36657991       8.15741235       0.00000000 NULL
P        4.16559550       5.59492428       3.97475135       0.00000000 NULL
P        5.66031329       4.07629942       3.97475135       0.00000000 NULL
P        5.04098006       8.54642587       5.61894736       0.00000000 NULL
P        8.62533261       4.90474388       5.61894736       0.00000000 NULL
P        1.70116218       3.64618288       0.57162662       0.00000000 NULL
P        3.67271534       1.64309598       0.57162662       0.00000000 NULL
P        5.21090922       6.63392848       1.58200058       0.00000000 NULL
P        6.71577214       5.10499624       1.58200058       0.00000000 NULL
P        1.02783303       5.66689720       7.85816020       0.00000000 NULL
P        5.68249193       0.93778998       7.85816020       0.00000000 NULL
P        0.86684747       2.56772420       7.04755876       0.00000000 NULL
P        2.58115479       0.82599763       7.04755876       0.00000000 NULL
P        2.45244045       8.37342109       2.75780093       0.00000000 NULL
P        8.41127862       2.31927509       2.75780093       0.00000000 NULL
P        1.47614706       5.58037635       1.57058956       0.00000000 NULL
P        5.60309514       1.38742036       1.57058956       0.00000000 NULL
22
Lattice="8.301211295486802 0.1646913581983963 0.07236895235426155 0.2963815592479018 8.29755326509693 0.07236895235426159 0.6060554764396799 0.5965146039796528 7.872542804308187" Properties=species:S:1:pos:R:3:initial_magmoms:R:1:castep_labels:S:1 n_minim_iter=6 pbc="T T T"
P        0.92314401       4.26131713       2.97885591       0.00000000 NULL
P        4.27542775       0.85541573       2.97885591       0.00000000 NULL
P        3.68396718       5.36693810       0.97622313       0.00000000 NULL
P        5.42471407       3.59834907       0.97622313       0.00000000 NULL
P        1.60431685       7.87853439       7.85684769       0.00000000 NULL
P        7.90299749       1.47911035       7.85684769       0.00000000 NULL
P        4.27091844       5.67949756       3.84898105       0.00000000 NULL
P        5.74654703       4.18026723       3.84898105       0.00000000 NULL
P        5.16936720       8.67490326       5.46000599       0.00000000 NULL
P        8.75583088       5.03107637       5.46000599       0.00000000 NULL
P        1.74341053       3.66057526       0.57205600       0.00000000 NULL
P        3.68777624       1.68511066       0.57205600       0.00000000 NULL
P        5.29938671       6.73343107       1.59243046       0.00000000 NULL
P        6.81666603       5.19188383       1.59243046       0.00000000 NULL
P        1.09874461       5.75042961       7.53330405       0.00000000 NULL
P        5.76713895       1.00736727       7.53330405       0.00000000 NULL
P        0.94522650       2.63178152       6.75647714       0.00000000 NULL
P        2.64644764       0.90335043       6.75647714       0.00000000 NULL
P        2.55340593       8.46915135       2.69721428       0.00000000 NULL
P        8.50859879       2.41870895       2.69721428       0.00000000 NULL
P        1.54941176       5.66367732       1.55140040       0.00000000 NULL
P        5.68754808       1.45935415       1.55140040       0.00000000 NULL
22
Lattice="8.508874094452452 0.17257589193983458 0.09738709744652402 0.30755997636325205 8.505064823660215 0.09738709744652341 0.6455686325620633 0.6354057213651338 7.419366015017703" Properties=species:S:1:pos:R:3:initial_magmoms:R:1:castep_labels:S:1 n_minim_iter=7 pbc="T T T"
P        0.94574013       4.34119975       2.85799925       0.00000000 NULL
P        4.35565884       0.87674156       2.85799925       0.00000000 NULL
P        3.79892698       5.49897129       0.94418600       0.00000000 NULL
P        5.55855464       3.71119950       0.94418600       0.00000000 NULL
P        1.66084941       8.12055405       7.43041522       0.00000000 NULL
P        8.14588365       1.53179580       7.43041522       0.00000000 NULL
P        4.40049978       5.83318176       3.64639841       0.00000000 NULL
P        5.90226788       4.30739383       3.64639841       0.00000000 NULL
P        5.31063319       8.91089673       5.19619225       0.00000000 NULL
P        8.99403603       5.16858019       5.19619225       0.00000000 NULL
P        1.78418423       3.71741272       0.55148467       0.00000000 NULL
P        3.74525348       1.72497741       0.55148467       0.00000000 NULL
P        5.42595832       6.92093359       1.55687895       0.00000000 NULL
P        7.00615320       5.31546451       1.55687895       0.00000000 NULL
P        1.11589744       5.91527617       7.09093665       0.00000000 NULL
P        5.93223691       1.02190241       7.09093665       0.00000000 NULL
P        1.01145081       2.72361850       6.36655854       0.00000000 NULL
P        2.73932380       0.96810928       6.36655854       0.00000000 NULL
P        2.63155768       8.70507914       2.57442394       0.00000000 NULL
P        8.74573687       2.49310753       2.57442394       0.00000000 NULL
P        1.61409546       5.85683709       1.49857991       0.00000000 NULL
P        5.88170983       1.52096493       1.49857991       0.00000000 NULL
22
Lattice="8.297360559070727 0.16364715565133228 0.15148883068161484 0.295276390545842 8.293719581222984 0.15148883068161406 0.6879782705131443 0.6771477225032546 7.168812862685607" Properties=species:S:1:pos:R:3:initial_magmoms:R:1:castep_labels:S:1 n_minim_iter=8 pbc="T T T"
P        0.93851983       4.23879532       2.80232296       0.00000000 NULL
P        4.25315274       0.87114696       2.80232296       0.00000000 NULL
P        3.71479670       5.36615798       0.97213799       0.00000000 NULL
P        5.42442320       3.62918709       0.97213799       0.00000000 NULL
P        1.66788055       7.98278418       7.23317085       0.00000000 NULL
P        8.00824268       1.54101198       7.23317085       0.00000000 NULL
P        4.31884407       5.71235026       3.57950073       0.00000000 NULL
P        5.78015600       4.22766557       3.57950073       0.00000000 NULL
P        5.20840128       8.72341697       5.10814360       0.00000000 NULL
P        8.80495781       5.06933580       5.10814360       0.00000000 NULL
P        1.73566157       3.61438135       0.56590180       0.00000000 NULL
P        3.64146520       1.67809561       0.56590180       0.00000000 NULL
P        5.29468784       6.75904710       1.58967989       0.00000000 NULL
P        6.84220428       5.18677912       1.58967989       0.00000000 NULL
P        1.13138691       5.82286150       6.88320150       0.00000000 NULL
P        5.84007963       1.03885623       6.88320150       0.00000000 NULL
P        1.04437712       2.70622062       6.16565380       0.00000000 NULL
P        2.72245054       1.00130748       6.16565380       0.00000000 NULL
P        2.58327253       8.51384787       2.55779550       0.00000000 NULL
P        8.55376356       2.44786262       2.55779550       0.00000000 NULL
P        1.59169637       5.74054593       1.50104403       0.00000000 NULL
P        5.76507791       1.50041380       1.50104403       0.00000000 NULL
22
Lattice="8.48882835062053 0.18731097825573925 0.15916988427639836 0.3219751525975973 8.484787809367056 0.15916988427639767 0.7094314416314645 0.6982631655134065 7.280752704944241" Properties=species:S:1:pos:R:3:initial_magmoms:R:1:castep_labels:S:1 n_minim_iter=9 pbc="T T T"
P        0.97152598       4.33658465       2.85215522       0.00000000 NULL
P        4.35145344       0.90259739       2.85215522       0.00000000 NULL
P        3.81491590       5.49803820       0.99240998       0.00000000 NULL
P        5.55787536       3.72720122       0.99240998       0.00000000 NULL
P        1.72704178       8.17542764       7.35087295       0.00000000 NULL
P        8.20180057       1.59710919       7.35087295       0.00000000 NULL
P        4.43289295       5.85671488       3.64025366       0.00000000 NULL
P        5.92631200       4.33940953       3.64025366       0.00000000 NULL
P        5.35077728       8.93756090       5.19573027       0.00000000 NULL
P        9.02133379       5.20829616       5.19573027       0.00000000 NULL
P        1.78359105       3.69742511       0.57716429       0.00000000 NULL
P        3.72525897       1.72470145       0.57716429       0.00000000 NULL
P        5.43306182       6.92989282       1.62315188       0.00000000 NULL
P        7.01522400       5.32242496       1.62315188       0.00000000 NULL
P        1.17238142       5.96314539       6.99244286       0.00000000 NULL
P        5.98099630       1.07761977       6.99244286       0.00000000 NULL
P        1.08142269       2.77572789       6.26225419       0.00000000 NULL
P        2.79253684       1.03724555       6.26225419       0.00000000 NULL
P        2.66320550       8.71777473       2.60408639       0.00000000 NULL
P        8.75893300       2.52454993       2.60408639       0.00000000 NULL
P        1.64534387       5.88247652       1.53060590       0.00000000 NULL
P        5.90784183       1.55180261       1.53060590       0.00000000 NULL
22
Lattice="8.486702805152222 0.18656312958078386 0.166394587329416 0.3211936731555174 8.482674397182913 0.1663945873294153 0.7167605406551861 0.7054768856621726 7.256154302372927" Properties=species:S:1:pos:R:3:initial_magmoms:R:1:castep_labels:S:1 n_minim_iter=10 pbc="T T T"
P        0.97326467       4.33498415       2.84888018       0.00000000 NULL
P        4.34988074       0.90436126       2.84888018       0.00000000 NULL
P        3.81579931       5.49719020       0.99713573       0.00000000 NULL
P        5.55704148       3.72809796       0.99713573       0.00000000 NULL
P        1.73189441       8.18219876       7.33305573       0.00000000 NULL
P        8.20864783       1.60185378       7.33305573       0.00000000 NULL
P        4.43492826       5.85851671       3.63514184       0.00000000 NULL
P        5.92814590       4.34141600       3.63514184       0.00000000 NULL
P        5.35246875       8.93912852       5.18990332       0.00000000 NULL
P        9.02292805       5.20996255       5.18990332       0.00000000 NULL
P        1.78186724       3.69361875       0.57933013       0.00000000 NULL
P        3.72142574       1.72303824       0.57933013       0.00000000 NULL
P        5.43177711       6.92987939       1.62962412       0.00000000 NULL
P        7.01519019       5.32114063       1.62962412       0.00000000 NULL
P        1.17695432       5.96877745       6.97280335       0.00000000 NULL
P        5.98670021       1.08210273       6.97280335       0.00000000 NULL
P        1.08971484       2.78204294       6.24269524       0.00000000 NULL
P        2.79898266       1.04543647       6.24269524       0.00000000 NULL
P        2.66447016       8.71941640       2.60473488       0.00000000 NULL
P        8.76059454       2.52578839       2.60473488       0.00000000 NULL
P        1.64794698       5.88653008       1.53317409       0.00000000 NULL
P        5.91193618       1.55434108       1.53317409       0.00000000 NULL
22
Lattice="8.496327011286013 0.18671537714306416 0.18064613180273711 0.3214986037451776 8.492294976186352 0.18064613180273642 0.7321851370572717 0.7206586592324538 7.219895986284582" Properties=species:S:1:pos:R:3:initial_magmoms:R:1:castep_labels:S:1 n_minim_iter=11 pbc="T T T"
P        0.97897284       4.33913571       2.84695826       0.00000000 NULL
P        4.35412234       0.91000283       2.84695826       0.00000000 NULL
P        3.82447988       5.50500371       1.00786709       0.00000000 NULL
P        5.56499174       3.73665347       1.00786709       0.00000000 NULL
P        1.74521320       8.20870067       7.31003198       0.00000000 NULL
P        8.23535773       1.61475040       7.31003198       0.00000000 NULL
P        4.44676185       5.87216400       3.63098593       0.00000000 NULL
P        5.94197923       4.35303157       3.63098593       0.00000000 NULL
P        5.36568543       8.95726354       5.18672432       0.00000000 NULL
P        9.04127049       5.22288983       5.18672432       0.00000000 NULL
P        1.78193431       3.69236235       0.58436111       0.00000000 NULL
P        3.72017057       1.72312524       0.58436111       0.00000000 NULL
P        5.43919299       6.94194694       1.64466617       0.00000000 NULL
P        7.02737388       5.32836410       1.64466617       0.00000000 NULL
P        1.18865244       5.98945561       6.94578619       0.00000000 NULL
P        6.00756137       1.09347129       6.94578619       0.00000000 NULL
P        1.10801197       2.79900348       6.21462196       0.00000000 NULL
P        2.81623138       1.06346219       6.21462196       0.00000000 NULL
P        2.67239739       8.73699758       2.61008652       0.00000000 NULL
P        8.77829928       2.53343567       2.61008652       0.00000000 NULL
P        1.65653638       5.90414188       1.54059553       0.00000000 NULL
P        5.92968205       1.56264995       1.54059553       0.00000000 NULL
22
Lattice="8.590626207756126 0.16828459848956728 0.3261619942938423 0.3045663406786894 8.586874733661883 0.32616199429384163 0.8881957315423223 0.8742132455759082 6.912278519978978" Properties=species:S:1:pos:R:3:initial_magmoms:R:1:castep_labels:S:1 n_minim_iter=12 pbc="T T T"
P        1.02967740       4.38090174       2.84644442       0.00000000 NULL
P        4.39668762       0.96003834       2.84644442       0.00000000 NULL
P        3.89822646       5.57490960       1.12579656       0.00000000 NULL
P        5.63605893       3.80928160       1.12579656       0.00000000 NULL
P        1.86057987       8.47244071       7.13680591       0.00000000 NULL
P        8.50089503       1.72591792       7.13680591       0.00000000 NULL
P        4.55012446       5.99862584       3.61972724       0.00000000 NULL
P        6.07006515       4.45437466       3.61972724       0.00000000 NULL
P        5.47641520       9.12578426       5.19594751       0.00000000 NULL
P        9.21152689       5.33093183       5.19594751       0.00000000 NULL
P        1.77130884       3.67299246       0.63800887       0.00000000 NULL
P        3.70063452       1.71280844       0.63800887       0.00000000 NULL
P        5.49777241       7.05071881       1.80840797       0.00000000 NULL
P        7.13706151       5.38521032       1.80840797       0.00000000 NULL
P        1.29597399       6.19610363       6.73166271       0.00000000 NULL
P        6.21588619       1.19750055       6.73166271       0.00000000 NULL
P        1.28882045       2.96998308       5.98388939       0.00000000 NULL
P        2.99005825       1.24153507       5.98388939       0.00000000 NULL
P        2.73078143       8.90738155       2.68618156       0.00000000 NULL
P        8.94958815       2.58910896       2.68618156       0.00000000 NULL
P        1.72983611       6.07809828       1.62935104       0.00000000 NULL
P        6.10477957       1.63318038       1.62935104       0.00000000 NULL
22
Lattice="8.669039338729396 0.11120000156569865 0.32508451820824014 0.2487330692937346 8.666183725090635 0.3250845182082396 0.8884700702392793 0.8744832654759558 7.387537059508209" Properties=species:S:1:pos:R:3:initial_magmoms:R:1:castep_labels:S:1 n_minim_iter=13 pbc="T T T"
P        1.01665331       4.39953764       3.04617977       0.00000000 NULL
P        4.41511452       0.94672020       3.04617977       0.00000000 NULL
P        3.90633112       5.60761876       1.18275581       0.00000000 NULL
P        5.66889257       3.81686627       1.18275581       0.00000000 NULL
P        1.79950744       8.55002599       7.59704065       0.00000000 NULL
P        8.57750155       1.66362218       7.59704065       0.00000000 NULL
P        4.53940274       6.01805491       3.83138402       0.00000000 NULL
P        6.08932166       4.44334602       3.83138402       0.00000000 NULL
P        5.44314864       9.15702732       5.51864786       0.00000000 NULL
P        9.24223820       5.29717374       5.51864786       0.00000000 NULL
P        1.73887329       3.65820431       0.65444264       0.00000000 NULL
P        3.68533360       1.68061161       0.65444264       0.00000000 NULL
P        5.49888970       7.08758352       1.90654577       0.00000000 NULL
P        7.17393930       5.38574255       1.90654577       0.00000000 NULL
P        1.26132976       6.24651385       7.17527465       0.00000000 NULL
P        6.26574039       1.16206085       7.17527465       0.00000000 NULL
P        1.30644454       3.00265910       6.38320641       0.00000000 NULL
P        3.02300979       1.25863848       6.38320641       0.00000000 NULL
P        2.68883493       8.98632729       2.83817078       0.00000000 NULL
P        9.02785841       2.54591515       2.83817078       0.00000000 NULL
P        1.72161967       6.15951506       1.73786315       0.00000000 NULL
P        6.18605573       1.62367319       1.73786315       0.00000000 NULL
22
Lattice="8.41417064987177 0.07771494603307941 0.3367404111183894 0.21120836208391694 8.411878408880284 0.33674041111838876 0.882530662246321 0.8686373590457286 7.150597463239165" Properties=species:S:1:pos:R:3:initial_magmoms:R:1:castep_labels:S:1 n_minim_iter=14 pbc="T T T"
P        0.98126253       4.27530923       2.96151714       0.00000000 NULL
P        4.29034023       0.91330494       2.96151714       0.00000000 NULL
P        3.77547238       5.43350478       1.16848849       0.00000000 NULL
P        5.49272423       3.68878658       1.16848849       0.00000000 NULL
P        1.73925680       8.31681933       7.37424100       0.00000000 NULL
P        8.34336827       1.60707929       7.37424100       0.00000000 NULL
P        4.39701316       5.83568873       3.73093880       0.00000000 NULL
P        5.90471922       4.30386788       3.73093880       0.00000000 NULL
P        5.26482170       8.88524056       5.37515737       0.00000000 NULL
P        8.96765622       5.12318155       5.37515737       0.00000000 NULL
P        1.67240099       3.54364233       0.64556213       0.00000000 NULL
P        3.56973136       1.61596537       0.64556213       0.00000000 NULL
P        5.31633008       6.86496871       1.87684038       0.00000000 NULL
P        6.94845595       5.20673803       1.87684038       0.00000000 NULL
P        1.22468105       6.08088491       6.96008410       0.00000000 NULL
P        6.09955081       1.12804470       6.96008410       0.00000000 NULL
P        1.27951466       2.93099441       6.18541120       0.00000000 NULL
P        2.95092684       1.23284906       6.18541120       0.00000000 NULL
P        2.58725765       8.72388309       2.77387209       0.00000000 NULL
P        8.76383557       2.44851472       2.77387209       0.00000000 NULL
P        1.65519920       5.98025411       1.70180032       0.00000000 NULL
P        6.00576349       1.56010532       1.70180032       0.00000000 NULL
22
Lattice="8.470069355379605 0.08516230263802664 0.3494135337023026 0.2195416964307675 8.467651914566378 0.349413533702302 0.8996676497290611 0.8855045662554113 7.156798228644552" Properties=species:S:1:pos:R:3:initial_magmoms:R:1:castep_labels:S:1 n_minim_iter=15 pbc="T T T"
P        0.99681101       4.30881864       2.97280011       0.00000000 NULL
P        4.32409212       0.92831979       2.97280011       0.00000000 NULL
P        3.80648921       5.47377371       1.18233553       0.00000000 NULL
P        5.53348023       3.71916057       1.18233553       0.00000000 NULL
P        1.76655649       8.38364670       7.39210363       0.00000000 NULL
P        8.41062038       1.63331522       7.39210363       0.00000000 NULL
P        4.43514389       5.88252552       3.74701932       0.00000000 NULL
P        5.95215511       4.34125067       3.74701932       0.00000000 NULL
P        5.31273348       8.95436686       5.39855499       0.00000000 NULL
P        9.03753402       5.16999051       5.39855499       0.00000000 NULL
P        1.68470224       3.56561164       0.65217354       0.00000000 NULL
P        3.59189308       1.62791649       0.65217354       0.00000000 NULL
P        5.35947424       6.91807727       1.89635892       0.00000000 NULL
P        7.00224236       5.24903411       1.89635892       0.00000000 NULL
P        1.24753289       6.13188352       6.97404983       0.00000000 NULL
P        6.15090558       1.15008450       6.97404983       0.00000000 NULL
P        1.30189870       2.96227754       6.19401052       0.00000000 NULL
P        2.98256119       1.25473392       6.19401052       0.00000000 NULL
P        2.61353636       8.78795840       2.79097314       0.00000000 NULL
P        8.82831977       2.47377348       2.79097314       0.00000000 NULL
P        1.67406089       6.02606957       1.71521856       0.00000000 NULL
P        6.05187245       1.57823770       1.71521856       0.00000000 NULL
22
Lattice="8.474135467286033 0.08362622094955753 0.35821269560694713 0.21807032295353954 8.471741886825425 0.3582126956069465 0.9089727703136434 0.8946632003017577 7.1344755316726935" Properties=species:S:1:pos:R:3:initial_magmoms:R:1:castep_labels:S:1 n_minim_iter=16 pbc="T T T"
P        1.00119787       4.31425849       2.97059635       0.00000000 NULL
P        4.32960089       0.93261978       2.97059635       0.00000000 NULL
P        3.80871000       5.47704731       1.18903229       0.00000000 NULL
P        5.53678865       3.72132915       1.18903229       0.00000000 NULL
P        1.77351549       8.39644532       7.37811135       0.00000000 NULL