10
Lattice="6.1783299999999945 3.090936662745614e-17 -3.2492908168635886e-16 2.5293726537860275 5.662977196729598 -1.4795279653681036e-15 2.5119582138825733 0.6592934211714686 5.992223857342769" Properties=species:S:1:pos:R:3:initial_magmoms:R:1:castep_labels:S:1 n_minim_iter=1 pbc="T T T"
P        8.18868423       3.82555380       2.12793217       0.00000000 NULL
P        9.99062913       5.59128551       5.00019562       0.00000000 NULL
P        8.47011627       3.95374565       4.17760769       0.00000000 NULL
P        2.95023088       1.14196108       5.96962538       0.00000000 NULL
P        4.61894794       5.51534841       0.99629890       0.00000000 NULL
P        4.08987308       4.48446449       2.67810581       0.00000000 NULL
P        6.75306151       3.34044275       5.10518777       0.00000000 NULL
P        6.61616874       0.47688546       3.14292681       0.00000000 NULL
P        6.53677038       2.23657098       0.97145693       0.00000000 NULL
P        4.81053190       0.16753740       0.84178581       0.00000000 NULL
10
Lattice="6.189208085713478 0.0005694755244032089 -0.0024033812456625172 2.534348053196224 5.669944936813226 0.0010811756571528052 2.514110761543105 0.66249418136561 6.004073505986752" Properties=species:S:1:pos:R:3:initial_magmoms:R:1:castep_labels:S:1 n_minim_iter=2 pbc="T T T"
P        8.20258296       3.83159739       2.13040009       0.00000000 NULL
P       10.00685421       5.60050628       5.00877457       0.00000000 NULL
P        8.48374423       3.96075481       4.18470576       0.00000000 NULL
P        2.95337364       1.14575956       5.98107339       0.00000000 NULL
P        4.62749257       5.52266684       0.99845844       0.00000000 NULL
P        4.09662861       4.49086706       2.68377346       0.00000000 NULL
P        6.76320963       3.34686191       5.11459612       0.00000000 NULL
P        6.62639783       0.47949413       3.14724080       0.00000000 NULL
P        6.54801829       2.24045819       0.97186368       0.00000000 NULL
P        4.81844866       0.16849697       0.84206474       0.00000000 NULL
10
Lattice="6.46491994086337 0.014328829719017132 -0.06644508371839104 2.659834541581691 5.843157262814932 0.02936747493266835 2.5655641305743355 0.7452717802728627 6.302627238600774" Properties=species:S:1:pos:R:3:initial_magmoms:R:1:castep_labels:S:1 n_minim_iter=3 pbc="T T T"
P        8.55344454       3.98257360       2.18985176       0.00000000 NULL
P       10.41500221       5.83188651       5.22258255       0.00000000 NULL
P        8.82643112       4.13693599       4.36147850       0.00000000 NULL
P        3.03005556       1.24333423       6.26903920       0.00000000 NULL
P        4.84323791       5.70492842       1.05260485       0.00000000 NULL
P        4.26607649       4.65119042       2.82651033       0.00000000 NULL
P        7.01751473       3.50898085       5.35033776       0.00000000 NULL
P        6.88376884       0.54593938       3.25336705       0.00000000 NULL
P        6.83224704       2.33747975       0.97973443       0.00000000 NULL
P        5.01850132       0.19252367       0.84695650       0.00000000 NULL
10
Lattice="6.527549011726411 0.009386679459049174 -0.12282578129306236 2.680944610960956 5.840703657013417 0.045760981803292536 2.5358178270795144 0.7849828735342568 6.324350419527647" Properties=species:S:1:pos:R:3:initial_magmoms:R:1:castep_labels:S:1 n_minim_iter=4 pbc="T T T"
P        8.61483053       3.99153208       2.15445183       0.00000000 NULL
P       10.46672805       5.85606619       5.20384277       0.00000000 NULL
P        8.86841445       4.15944731       4.34206946       0.00000000 NULL
P        3.00598376       1.28345158       6.28591180       0.00000000 NULL
P        4.88092505       5.70631778       1.05328863       0.00000000 NULL
P        4.28032055       4.66372172       2.83601855       0.00000000 NULL
P        7.03848921       3.53937667       5.34655926       0.00000000 NULL
P        6.91809476       0.56533274       3.22125722       0.00000000 NULL
P        6.88540404       2.34104400       0.94271625       0.00000000 NULL
P        5.05838897       0.19290466       0.81271768       0.00000000 NULL
10
Lattice="6.566870196833622 0.001229924546705091 -0.18755371259953585 2.6895661014376238 5.798795553249758 0.07071298913400616 2.4881562785456457 0.831618928855211 6.3101007575632355" Properties=species:S:1:pos:R:3:initial_magmoms:R:1:castep_labels:S:1 n_minim_iter=5 pbc="T T T"
P        8.64110236       3.97547337       2.10377550       0.00000000 NULL
P       10.47125752       5.84733166       5.15620144       0.00000000 NULL
P        8.86929905       4.16021561       4.29673368       0.00000000 NULL
P        2.96148226       1.32780170       6.26696210       0.00000000 NULL
P        4.89841036       5.66927264       1.05303937       0.00000000 NULL
P        4.27215793       4.64989607       2.83361006       0.00000000 NULL
P        7.02712634       3.55501810       5.31144252       0.00000000 NULL
P        6.92218312       0.58484452       3.16454770       0.00000000 NULL
P        6.91008608       2.32811514       0.89594328       0.00000000 NULL
P        5.08012225       0.19045375       0.76697324       0.00000000 NULL
10
Lattice="6.617258578659547 -0.013702247208964036 -0.28848978085086413 2.6965081791364547 5.6869230756547 0.1355082599668005 2.409153912334643 0.9255228233157566 6.2806640653291765" Properties=species:S:1:pos:R:3:initial_magmoms:R:1:castep_labels:S:1 n_minim_iter=6 pbc="T T T"
P        8.66743391       3.92635194       2.03680904       0.00000000 NULL
P       10.45973302       5.80596364       5.10263080       0.00000000 NULL
P        8.85096093       4.14663765       4.23993661       0.00000000 NULL
P        2.88481591       1.41598213       6.22988470       0.00000000 NULL
P        4.92035120       5.56753464       1.07380138       0.00000000 NULL
P        4.24838508       4.60274599       2.84576835       0.00000000 NULL
P        7.00030661       3.57395706       5.26286153       0.00000000 NULL
P        6.91391843       0.62521441       3.07450591       0.00000000 NULL
P        6.93259247       2.29299558       0.83178247       0.00000000 NULL
P        5.10782899       0.18585964       0.69362181       0.00000000 NULL
10
Lattice="6.668413185798883 -0.014953342269194685 -0.314053891746408 2.716303842627458 5.601994205757354 0.21285209397703292 2.4050245637305845 1.0081011291927802 6.34035583791789" Properties=species:S:1:pos:R:3:initial_magmoms:R:1:castep_labels:S:1 n_minim_iter=7 pbc="T T T"
P        8.73001922       3.89941291       2.07653554       0.00000000 NULL
P       10.52535127       5.79012997       5.21147710       0.00000000 NULL
P        8.89191192       4.15354392       4.31840258       0.00000000 NULL
P        2.88029488       1.49832237       6.28275887       0.00000000 NULL
P        4.97147016       5.49199075       1.14069518       0.00000000 NULL
P        4.26349620       4.57302810       2.92570026       0.00000000 NULL
P        7.04721951       3.60379379       5.33777861       0.00000000 NULL
P        6.94487696       0.67401455       3.09107478       0.00000000 NULL
P        6.96914690       2.27897786       0.85019701       0.00000000 NULL
P        5.14982817       0.18998031       0.68256172       0.00000000 NULL
10
Lattice="6.632131574790217 -0.00692130243356962 -0.33194945528045366 2.7088124240259517 5.518869553279517 0.24423924111896494 2.3737739438198315 1.0422707190756786 6.274794795136151" Properties=species:S:1:pos:R:3:initial_magmoms:R:1:castep_labels:S:1 n_minim_iter=8 pbc="T T T"
P        8.68510559       3.86353800       2.05353787       0.00000000 NULL
P       10.46270779       5.74652926       5.17973580       0.00000000 NULL
P        8.82817896       4.13496417       4.28278505       0.00000000 NULL
P        2.84518671       1.53225059       6.21172207       0.00000000 NULL
P        4.95919989       5.41502925       1.14714628       0.00000000 NULL
P        4.22948511       4.52666028       2.91914288       0.00000000 NULL
P        7.00674964       3.59803241       5.28810301       0.00000000 NULL
P        6.89136093       0.70251700       3.04513894       0.00000000 NULL
P        6.92019285       2.26308898       0.83626959       0.00000000 NULL
P        5.12547086       0.19554344       0.65618749       0.00000000 NULL
10
Lattice="6.680070135374149 -0.0018824074289002257 -0.3355124991977375 2.7330567799783054 5.544867689981457 0.25336637922068644 2.390346579885095 1.0583072822875899 6.330522541101891" Properties=species:S:1:pos:R:3:initial_magmoms:R:1:castep_labels:S:1 n_minim_iter=9 pbc="T T T"
P        8.75202629       3.88812213       2.07382110       0.00000000 NULL
P       10.54380625       5.78506312       5.23554289       0.00000000 NULL
P        8.89274476       4.16689381       4.32653648       0.00000000 NULL
P        2.86531824       1.55296849       6.26345143       0.00000000 NULL
P        5.00383613       5.44193672       1.16073967       0.00000000 NULL
P        4.26102748       4.55252745       2.95181834       0.00000000 NULL
P        7.06123018       3.62765236       5.33903434       0.00000000 NULL
P        6.93833811       0.71899577       3.07227671       0.00000000 NULL
P        6.96811336       2.28216524       0.84638796       0.00000000 NULL
P        5.16339938       0.20109919       0.66078715       0.00000000 NULL
10
Lattice="6.675625727983849 0.0007846115416618765 -0.33919315549171153 2.73368182025589 5.535538123108584 0.25918893167475826 2.385254405455454 1.0659338709129345 6.318595546478872" Properties=species:S:1:pos:R:3:initial_magmoms:R:1:castep_labels:S:1 n_minim_iter=10 pbc="T T T"
P        8.74792631       3.88597968       2.06902682       0.00000000 NULL
P       10.53717590       5.78384193       5.23048631       0.00000000 NULL
P        8.88434921       4.16922801       4.32002220       0.00000000 NULL
P        2.85990867       1.56187464       6.24960968       0.00000000 NULL
P        5.00476504       5.43345798       1.16131427       0.00000000 NULL
P        4.25614333       4.54906046       2.95111143       0.00000000 NULL
P        7.05703221       3.63146432       5.33019182       0.00000000 NULL
P        6.93034292       0.72685051       3.06375193       0.00000000 NULL
P        6.96063977       2.28324512       0.84351180       0.00000000 NULL
P        5.16101202       0.20320583       0.65520480       0.00000000 NULL
10
Lattice="6.678798890040425 0.005053329147122006 -0.34413787418591263 2.738893545720687 5.531196737251508 0.2667836357595642 2.3822042813278776 1.0771388351599158 6.313858647333825" Properties=species:S:1:pos:R:3:initial_magmoms:R:1:castep_labels:S:1 n_minim_iter=11 pbc="T T T"
P        8.75506969       3.88896328       2.06624797       0.00000000 NULL
P       10.54389678       5.79069030       5.23309992       0.00000000 NULL
P        8.88607101       4.17867740       4.31907243       0.00000000 NULL
P        2.85721174       1.57567314       6.24185982       0.00000000 NULL
P        5.01370961       5.43012289       1.16353093       0.00000000 NULL
P        4.25607452       4.55088922       2.95519599       0.00000000 NULL
P        7.06169967       3.64180864       5.32802217       0.00000000 NULL
P        6.92925835       0.73894916       3.05822806       0.00000000 NULL
P        6.96025310       2.28876434       0.84146234       0.00000000 NULL
P        5.16483557       0.20684449       0.64936858       0.00000000 NULL
10
Lattice="6.70137076698353 0.044526262488223556 -0.3872785314999198 2.7843147209708246 5.510968999375899 0.32465512687896547 2.353752479785662 1.1688757785056731 6.261983400669913" Properties=species:S:1:pos:R:3:initial_magmoms:R:1:castep_labels:S:1 n_minim_iter=12 pbc="T T T"
P        8.81249929       3.92522081       2.03295722       0.00000000 NULL
P       10.59648238       5.86357141       5.23746581       0.00000000 NULL
P        8.89689841       4.26987117       4.29695222       0.00000000 NULL
P        2.83275180       1.69153256       6.16439156       0.00000000 NULL
P        5.08741567       5.41749061       1.17398531       0.00000000 NULL
P        4.25369547       4.57831730       2.97992715       0.00000000 NULL
P        7.09688464       3.73699030       5.29699613       0.00000000 NULL
P        6.91552575       0.84313519       3.00447842       0.00000000 NULL
P        6.95213008       2.34381701       0.81852845       0.00000000 NULL
P        5.19387044       0.24024520       0.59705531       0.00000000 NULL
10
Lattice="6.711890174750824 0.10676129610894479 -0.4068205787319256 2.845665130963887 5.651855937520183 0.30978522176076756 2.345717159453767 1.2003461536934388 6.182731402366992" Properties=species:S:1:pos:R:3:initial_magmoms:R:1:castep_labels:S:1 n_minim_iter=13 pbc="T T T"
P        8.87883460       4.05708726       1.96944928       0.00000000 NULL
P       10.67415009       6.04664118       5.16184078       0.00000000 NULL
P        8.93609154       4.43830430       4.21669240       0.00000000 NULL
P        2.83398358       1.76604428       6.06192072       0.00000000 NULL
P        5.15392799       5.55600380       1.13077486       0.00000000 NULL
P        4.27562607       4.70649628       2.94136023       0.00000000 NULL
P        7.13682758       3.87257135       5.22851751       0.00000000 NULL
P        6.91106973       0.93485392       2.95117020       0.00000000 NULL
P        6.94597056       2.46564328       0.77669792       0.00000000 NULL
P        5.21047745       0.29012338       0.56279446       0.00000000 NULL
10
Lattice="6.658328675580733 0.1240910347447048 -0.4150407292473399 2.8396215760587595 5.618904236765696 0.3198571148942666 2.317817088213731 1.2169481486126295 6.124279811798475" Properties=species:S:1:pos:R:3:initial_magmoms:R:1:castep_labels:S:1 n_minim_iter=14 pbc="T T T"
P        8.81900332       4.05645900       1.94638819       0.00000000 NULL
P       10.59978295       6.04426826       5.11479807       0.00000000 NULL
P        8.86760360       4.44621140       4.17530429       0.00000000 NULL
P        2.80367840       1.78413778       6.00332473       0.00000000 NULL
P        5.12591480       5.52949571       1.12805346       0.00000000 NULL
P        4.24703016       4.69391549       2.92171978       0.00000000 NULL
P        7.08397086       3.88067121       5.18201195       0.00000000 NULL
P        6.85028523       0.95793423       2.91581580       0.00000000 NULL
P        6.88852964       2.46989505       0.76147229       0.00000000 NULL
P        5.16972673       0.30380718       0.54810160       0.00000000 NULL
10
Lattice="6.684823926513975 0.1320878125397763 -0.4185468011749526 2.857798321792081 5.643641711695293 0.32437462247461524 2.326042291197598 1.2289972512406262 6.155425039398737" Properties=species:S:1:pos:R:3:initial_magmoms:R:1:castep_labels:S:1 n_minim_iter=15 pbc="T T T"
P        8.85977389       4.08183814       1.95571010       0.00000000 NULL
P       10.64957841       6.08121207       5.14294025       0.00000000 NULL
P        8.90649718       4.47783347       4.19726969       0.00000000 NULL
P        2.81417201       1.80092720       6.03212711       0.00000000 NULL
P        5.15330753       5.55545209       1.13552456       0.00000000 NULL
P        4.26779588       4.71890056       2.93925143       0.00000000 NULL
P        7.11549179       3.90784333       5.21090427       0.00000000 NULL
P        6.87595387       0.97312087       2.93033329       0.00000000 NULL
P        6.91505511       2.48889743       0.76434308       0.00000000 NULL
P        5.19035894       0.31143001       0.55010232       0.00000000 NULL
10
Lattice="6.682964271944309 0.13819671453662516 -0.4200310559484788 2.8626363303301825 5.647203770673583 0.3267821318690711 2.3244985402910485 1.2347949743734012 6.152431915472329" Properties=species:S:1:pos:R:3:initial_magmoms:R:1:castep_labels:S:1 n_minim_iter=16 pbc="T T T"
P        8.86231585       4.09051372       1.95412030       0.00000000 NULL
P       10.65292002       6.09305895       5.14207673       0.00000000 NULL
P        8.90668677       4.49028312       4.19545936       0.00000000 NULL
P        2.81261030       1.80931207       6.02800104       0.00000000 NULL
P        5.15706663       5.55996987       1.13658548       0.00000000 NULL
P        4.26943179       4.72543987       2.93997085       0.00000000 NULL
P        7.11690131       3.91823818       5.21038903       0.00000000 NULL
P        6.87280951       0.98222826       2.92841511       0.00000000 NULL
P        6.91182590       2.49662687       0.76220379       0.00000000 NULL
P        5.18938467       0.31637118       0.54832353       0.00000000 NULL
10
Lattice="6.681543104950434 0.14734367539746943 -0.42245412472624844 2.870438498528313 5.654571596563471 0.3297558925209957 2.3225467262049726 1.2431320350197472 6.148792570691965" Properties=species:S:1:pos:R:3:initial_magmoms:R:1:castep_labels:S:1 n_minim_iter=17 pbc="T T T"
P        8.86800020       4.10458662       1.95145414       0.00000000 NULL
P       10.66012140       6.11219984       5.14082353       0.00000000 NULL
P        8.90872823       4.51003072       4.19273909       0.00000000 NULL
P        2.81066166       1.82183439       6.02248684       0.00000000 NULL
P        5.16371875       5.56850111       1.13764110       0.00000000 NULL
P        4.27268087       4.73655525       2.94097531       0.00000000 NULL
P        7.12042960       3.93454732       5.21006415       0.00000000 NULL
P        6.86935680       0.99580517       2.92586669       0.00000000 NULL
P        6.90813972       2.50897459       0.75858769       0.00000000 NULL
P        5.18895715       0.32369511       0.54558628       0.00000000 NULL
10
Lattice="6.678151087268714 0.16135663023832789 -0.4270750933716275 2.881893918837247 5.667990689736083 0.3326384681325997 2.3181811717104153 1.2547757000394442 6.1410651130551654" Properties=species:S:1:pos:R:3:initial_magmoms:R:1:castep_labels:S:1 n_minim_iter=18 pbc="T T T"
P        8.87520952       4.12691307       1.94472580       0.00000000 NULL
P       10.66888524       6.14215015       5.13494816       0.00000000 NULL
P        8.90962227       4.54110159       4.18516000       0.00000000 NULL
P        2.80604020       1.84048993       6.01150346       0.00000000 NULL
P        5.17278200       5.58306739       1.13706058       0.00000000 NULL
P        4.27635994       4.75464035       2.94025765       0.00000000 NULL
P        7.12410029       3.95972594       5.20683797       0.00000000 NULL
P        6.86208579       1.01618505       2.92023948       0.00000000 NULL
P        6.90034308       2.52863469       0.75084922       0.00000000 NULL
P        5.18727669       0.33460562       0.54027045       0.00000000 NULL
10
Lattice="6.6763935419965055 0.16750228717101345 -0.42961739898689766 2.886807419430351 5.675338361684067 0.33296425873962127 2.3156566782860137 1.2592829360645121 6.137194257936653" Properties=species:S:1:pos:R:3:initial_magmoms:R:1:castep_labels:S:1 n_minim_iter=19 pbc="T T T"
P        8.87798917       4.13740758       1.94057982       0.00000000 NULL
P       10.67202709       6.15598803       5.13069478       0.00000000 NULL
P        8.90933700       4.55534488       4.18042061       0.00000000 NULL
P        2.80329562       1.84831095       6.00604370       0.00000000 NULL
P        5.17641907       5.59063209       1.13571499       0.00000000 NULL
P        4.27758964       4.76337212       2.93896704       0.00000000 NULL
P        7.12514349       3.97101632       5.20445339       0.00000000 NULL
P        6.85825903       1.02484384       2.91715889       0.00000000 NULL
P        6.89628424       2.53778359       0.74636361       0.00000000 NULL
P        5.18624256       0.33921193       0.53743203       0.00000000 NULL
10
Lattice="6.671417063423878 0.18236156651488167 -0.4359580362869805 2.8983899006624045 5.693563473402972 0.3332097223949001 2.309069364365863 1.2697444032272986 6.127344614623546" Properties=species:S:1:pos:R:3:initial_magmoms:R:1:castep_labels:S:1 n_minim_iter=20 pbc="T T T"
P        8.88364001       4.16306982       1.92994468       0.00000000 NULL
P       10.67822348       6.18957758       5.11924883       0.00000000 NULL
P        8.90757617       4.58981252       4.16807746       0.00000000 NULL
P        2.79609387       1.86672784       5.99239570       0.00000000 NULL
P        5.18453287       5.60931288       1.13188210       0.00000000 NULL
P        4.28011748       4.78462621       2.93514870       0.00000000 NULL
P        7.12677213       3.99818479       5.19791787       0.00000000 NULL
P        6.84815343       1.04544003       2.90930515       0.00000000 NULL
P        6.88571314       2.55999821       0.73496420       0.00000000 NULL
P        5.18309032       0.35019520       0.53033894       0.00000000 NULL
10
Lattice="6.666250693531992 0.19772354476969967 -0.44250968469567226 2.9103554087899752 5.713944078102892 0.3325217038498927 2.302253833634129 1.2797408960560883 6.117923039160788" Properties=species:S:1:pos:R:3:initial_magmoms:R:1:castep_labels:S:1 n_minim_iter=21 pbc="T T T"
P        8.88924968       4.19071600       1.91884664       0.00000000 NULL
P       10.68434811       6.22528334       5.10698669       0.00000000 NULL
P        8.90585192       4.62586723       4.15519223       0.00000000 NULL
P        2.78855623       1.88471293       5.97921063       0.00000000 NULL
P        5.19273152       5.63012511       1.12733188       0.00000000 NULL
P        4.28305920       4.80735005       2.93071267       0.00000000 NULL
P        7.12849286       4.02632241       5.19130132       0.00000000 NULL
P        6.83776712       1.06600951       2.90156266       0.00000000 NULL
P        6.87505304       2.58341617       0.72278298       0.00000000 NULL
P        5.17963368       0.36124655       0.52311059       0.00000000 NULL
10
Lattice="6.660118119159892 0.21387639757937738 -0.4488179425295631 2.9226502637441873 5.7356363710533085 0.3313218330542485 2.295365921517713 1.2895269058066918 6.1080199550092855" Properties=species:S:1:pos:R:3:initial_magmoms:R:1:castep_labels:S:1 n_minim_iter=22 pbc="T T T"
P        8.89410410       4.22023151       1.90765976       0.00000000 NULL
P       10.68974671       6.26286070       5.09391998       0.00000000 NULL
P        8.90357872       4.66341131       4.14179663       0.00000000 NULL
P        2.78078026       1.90244523       5.96568738       0.00000000 NULL
P        5.20073878       5.65239517       1.12247634       0.00000000 NULL
P        4.28630990       4.83109472       2.92561757       0.00000000 NULL
P        7.13002135       4.05539003       5.18425358       0.00000000 NULL
P        6.82654117       1.08686257       2.89382756       0.00000000 NULL
P        6.86371441       2.60796360       0.71019406       0.00000000 NULL
P        5.17533800       0.37257931       0.51594862       0.00000000 NULL
10
Lattice="6.654494159725001 0.23042540643186069 -0.455088026107633 2.935516454213055 5.759397586882273 0.32949675248022675 2.2887640982357342 1.299017872157947 6.0995432376700025" Properties=species:S:1:pos:R:3:initial_magmoms:R:1:castep_labels:S:1 n_minim_iter=23 pbc="T T T"
P        8.89986423       4.25168898       1.89676076       0.00000000 NULL
P       10.69631393       6.30249951       5.08138813       0.00000000 NULL
P        8.90241673       4.70258571       4.12904360       0.00000000 NULL
P        2.77313739       1.91987688       5.95361655       0.00000000 NULL
P        5.20936554       5.67668546       1.11742080       0.00000000 NULL
P        4.29046035       4.85628186       2.92061733       0.00000000 NULL
P        7.13256204       4.08546088       5.17823657       0.00000000 NULL
P        6.81585639       1.10767234       2.88692648       0.00000000 NULL
P        6.85308982       2.63364040       0.69731239       0.00000000 NULL
P        5.17128764       0.38390698       0.50900116       0.00000000 NULL
10
Lattice="6.646213593792948 0.2466204897980245 -0.46126547160992143 2.946970641796945 5.781162489532945 0.32677835108736436 2.281134243565283 1.3071640066359207 6.0890675220120345" Properties=species:S:1:pos:R:3:initial_magmoms:R:1:castep_labels:S:1 n_minim_iter=24 pbc="T T T"
P        8.90184617       4.28150920       1.88486162       0.00000000 NULL
P       10.69822539       6.33910950       5.06628251       0.00000000 NULL
P        8.89761052       4.73953427       4.11444338       0.00000000 NULL
P        2.76397991       1.93547986       5.93967209       0.00000000 NULL
P        5.21549572       5.69878308       1.11141291       0.00000000 NULL
P        4.29291308       4.87938467       2.91395889       0.00000000 NULL
P        7.13228390       4.11320555       5.17014312       0.00000000 NULL
P        6.80235415       1.12705782       2.87906770       0.00000000 NULL
P        6.83970773       2.65805805       0.68353278       0.00000000 NULL
P        5.16502255       0.39448394       0.50180292       0.00000000 NULL
10
Lattice="6.6451540426314875 0.25380041203830206 -0.4636738335915851 2.953117891326821 5.7920822478407015 0.32584729137611484 2.279133813534975 1.3110703747518548 6.087475404583901" Properties=species:S:1:pos:R:3:initial_magmoms:R:1:castep_labels:S:1 n_minim_iter=25 pbc="T T T"
P        8.90620812       4.29575674       1.88117531       0.00000000 NULL
P       10.70349723       6.35679757       5.06262419       0.00000000 NULL
P        8.89934029       4.75695832       4.11059427       0.00000000 NULL
P        2.76141290       1.94260775       5.93657070       0.00000000 NULL
P        5.22026107       5.70989692       1.10963005       0.00000000 NULL
P        4.29600269       4.89069516       2.91259551       0.00000000 NULL
P        7.13526662       4.12635926       5.16942811       0.00000000 NULL
P        6.79930371       1.13574353       2.87746361       0.00000000 NULL
P        6.83673481       2.66947149       0.67829029       0.00000000 NULL
P        5.16423103       0.39917257       0.49933105       0.00000000 NULL
10
Lattice="6.642091735173224 0.26121204241490226 -0.4661071136633166 2.958657604658884 5.802130232319552 0.32463103165637014 2.2763196698872266 1.3146674254266797 6.083570952565987" Properties=species:S:1:pos:R:3:initial_magmoms:R:1:castep_labels:S:1 n_minim_iter=26 pbc="T T T"
P        8.90816743       4.30961897       1.87651292       0.00000000 NULL
P       10.70582664       6.37361086       5.05673676       0.00000000 NULL
P        8.89849713       4.77398518       4.10492031       0.00000000 NULL
P        2.75778799       1.94941538       5.93115598       0.00000000 NULL
P        5.22361207       5.72008767       1.10725463       0.00000000 NULL
P        4.29794822       4.90130697       2.90997140       0.00000000 NULL
P        7.13634938       4.13898061       5.16670998       0.00000000 NULL
P        6.79406727       1.14435986       2.87469787       0.00000000 NULL
P        6.83153967       2.68071833       0.67231167       0.00000000 NULL
P        5.16187944       0.40384052       0.49646138       0.00000000 NULL
10
Lattice="6.635629461690537 0.28463440453229677 -0.4732776228290512 2.977480620706247 5.836179335307714 0.3209281917002928 2.2692371657485473 1.32622619097652 6.0737996883607845" Properties=species:S:1:pos:R:3:initial_magmoms:R:1:castep_labels:S:1 n_minim_iter=27 pbc="T T T"
P        8.91889750       4.35507486       1.86329884       0.00000000 NULL
P       10.71893878       6.42886833       5.04083045       0.00000000 NULL
P        8.90070122       4.82965886       4.08935330       0.00000000 NULL
P        2.74816897       1.97125380       5.91657286       0.00000000 NULL
P        5.23669051       5.75433861       1.10050740       0.00000000 NULL
P        4.30657058       4.93664757       2.90300054       0.00000000 NULL
P        7.14386967       4.18022171       5.16078090       0.00000000 NULL
P        6.78106132       1.17161800       2.86785937       0.00000000 NULL
P        6.81846577       2.71730275       0.65405949       0.00000000 NULL
P        5.15691162       0.41841784       0.48814079       0.00000000 NULL
10
Lattice="6.613098261534691 0.35103528597298767 -0.48765466469048463 3.0291186646291552 5.9258953148386 0.31034569430152564 2.253218237940165 1.3555335504187949 6.038174942644427" Properties=species:S:1:pos:R:3:initial_magmoms:R:1:castep_labels:S:1 n_minim_iter=28 pbc="T T T"
P        8.94567632       4.48057876       1.82948877       0.00000000 NULL
P       10.75378193       6.57727945       4.99331318       0.00000000 NULL
P        8.90610308       4.98278605       4.04505372       0.00000000 NULL
P        2.72326975       2.02731988       5.86860749       0.00000000 NULL
P        5.27032478       5.84415560       1.08253604       0.00000000 NULL
P        4.33197813       5.03065013       2.88007018       0.00000000 NULL
P        7.16629259       4.29112269       5.14000672       0.00000000 NULL
P        6.74244148       1.24478012       2.84968073       0.00000000 NULL
P        6.77925742       2.81834418       0.60448940       0.00000000 NULL
P        5.13945478       0.45738958       0.46772319       0.00000000 NULL
10
Lattice="6.655432136269191 0.41596569921771387 -0.46869638695170673 3.1059642838598154 6.035767709912861 0.3211979921711705 2.2957461318550956 1.3949000585705256 6.101713316290057" Properties=species:S:1:pos:R:3:initial_magmoms:R:1:castep_labels:S:1 n_minim_iter=29 pbc="T T T"
P        9.06391854       4.62398672       1.87609453       0.00000000 NULL
P       10.91396200       6.75510370       5.07632528       0.00000000 NULL
P        9.02256988       5.15185465       4.11349565       0.00000000 NULL
P        2.76215924       2.08647407       5.92391354       0.00000000 NULL
P        5.35784886       5.95999199       1.10985522       0.00000000 NULL
P        4.41604993       5.14241365       2.92193279       0.00000000 NULL
P        7.27934046       4.41803386       5.22578346       0.00000000 NULL