7
Lattice="5.240519999999997 5.0801940711923945e-16 -1.6402580209829675e-15 1.9062155063236286 5.478270405616294 -2.2814035062329112e-15 2.0778214455021478 2.0066676158077907 5.34707584328852" Properties=species:S:1:pos:R:3:initial_magmoms:R:1:castep_labels:S:1 n_minim_iter=1 pbc="T T T"
P        1.57056594       1.90078953       1.72298397       0.00000000 NULL
P        3.36443288       2.23818758       0.77153706       0.00000000 NULL
P        2.26894837       3.73831247       2.16693457       0.00000000 NULL
P        7.47694060       4.83553173       3.84309633       0.00000000 NULL
P        5.22647239       1.65996769       4.04505485       0.00000000 NULL
P        5.07221856       1.34136690       0.10781951       0.00000000 NULL
P        8.45471692       5.98820254       5.19381689       0.00000000 NULL
7
Lattice="5.2444642237096675 0.001593766704778573 0.000496329201168037 1.9093162721575596 5.485141641460772 0.0024961811374361337 2.080501992952654 2.0118642729338405 5.3522050115033" Properties=species:S:1:pos:R:3:initial_magmoms:R:1:castep_labels:S:1 n_minim_iter=2 pbc="T T T"
P        1.57222107       1.90385741       1.72537435       0.00000000 NULL
P        3.36770622       2.24224883       0.77335010       0.00000000 NULL
P        2.27213451       3.74433886       2.17022643       0.00000000 NULL
P        7.48424619       4.84501263       3.84883994       0.00000000 NULL
P        5.23124209       1.66519217       4.04925295       0.00000000 NULL
P        5.07658119       1.34437417       0.10890511       0.00000000 NULL
P        8.46361928       5.99997222       5.20126938       0.00000000 NULL
7
Lattice="5.388162801766498 0.0615004170048866 0.01911674443689429 2.0242104595983625 5.738353549685739 0.09574324470432662 2.1794153631530073 2.2047884233580213 5.539796992013775" Properties=species:S:1:pos:R:3:initial_magmoms:R:1:castep_labels:S:1 n_minim_iter=3 pbc="T T T"
P        1.63301385       2.01718242       1.81318982       0.00000000 NULL
P        3.48783795       2.39281675       0.84062869       0.00000000 NULL
P        2.38989316       3.96709114       2.29165466       0.00000000 NULL
P        7.75239088       5.19654297       4.06065408       0.00000000 NULL
P        5.40600115       1.85946456       4.20308181       0.00000000 NULL
P        5.23607105       1.45616943       0.14938596       0.00000000 NULL
P        8.79085074       6.43649394       5.47587224       0.00000000 NULL
7
Lattice="5.407556959326563 0.09212565391027205 0.015330821564467466 2.06327963076398 5.782691690453057 0.12710746113319413 2.1949689057183477 2.2610487190540827 5.548949969879638" Properties=species:S:1:pos:R:3:initial_magmoms:R:1:castep_labels:S:1 n_minim_iter=4 pbc="T T T"
P        1.64231886       2.04305626       1.82636631       0.00000000 NULL
P        3.51134330       2.43571484       0.85097734       0.00000000 NULL
P        2.42144875       4.01597533       2.30736188       0.00000000 NULL
P        7.80208617       5.29517750       4.08751582       0.00000000 NULL
P        5.43238668       1.92117417       4.20538938       0.00000000 NULL
P        5.26603389       1.49259411       0.15240194       0.00000000 NULL
P        8.85810580       6.55566252       5.50553639       0.00000000 NULL
7
Lattice="5.411720772068221 0.12704704053475885 0.009755230968643776 2.1012998889218695 5.803995279640349 0.1575978767885016 2.2043027445857 2.3097850477013027 5.526021762876492" Properties=species:S:1:pos:R:3:initial_magmoms:R:1:castep_labels:S:1 n_minim_iter=5 pbc="T T T"
P        1.64595057       2.06118906       1.83015400       0.00000000 NULL
P        3.52548572       2.47356404       0.85572983       0.00000000 NULL
P        2.44937248       4.04845140       2.30772587       0.00000000 NULL
P        7.83168201       5.37990165       4.09132359       0.00000000 NULL
P        5.44329163       1.97779475       4.18014471       0.00000000 NULL
P        5.28386986       1.52677027       0.15285049       0.00000000 NULL
P        8.90626206       6.65451740       5.50193989       0.00000000 NULL
7
Lattice="5.412693323028783 0.18390253878706922 0.006242724798697836 2.1610885521068046 5.82544854673154 0.20685464163864345 2.2228751834802214 2.381934886986576 5.4561560008665335" Properties=species:S:1:pos:R:3:initial_magmoms:R:1:castep_labels:S:1 n_minim_iter=6 pbc="T T T"
P        1.64753829       2.08487526       1.82890933       0.00000000 NULL
P        3.54321205       2.53370496       0.86140679       0.00000000 NULL
P        2.49532364       4.08839187       2.29230434       0.00000000 NULL
P        7.87398254       5.50859482       4.08178760       0.00000000 NULL
P        5.45690398       2.06228044       4.11277117       0.00000000 NULL
P        5.31074156       1.57780260       0.15830599       0.00000000 NULL
P        8.98790555       6.79700306       5.47177206       0.00000000 NULL
7
Lattice="5.42185832893126 0.21152963868822777 0.02582771230633271 2.1933027598854924 5.848153672958358 0.24232643229854928 2.2570710392532827 2.4251935580939397 5.397235065358961" Properties=species:S:1:pos:R:3:initial_magmoms:R:1:castep_labels:S:1 n_minim_iter=7 pbc="T T T"
P        1.64728153       2.10081855       1.83122066       0.00000000 NULL
P        3.55571564       2.57749814       0.87367386       0.00000000 NULL
P        2.53131576       4.11163073       2.27593861       0.00000000 NULL
P        7.91912825       5.59475679       4.08990330       0.00000000 NULL
P        5.48133772       2.10743909       4.06300358       0.00000000 NULL
P        5.33986685       1.60109313       0.18488446       0.00000000 NULL
P        9.08055928       6.87818607       5.46858680       0.00000000 NULL
7
Lattice="5.368214401952999 0.2573212613510774 0.02067942002754232 2.221659107315323 5.846170312393344 0.29423037074434627 2.2480829531660884 2.4890105988770554 5.298597104467344" Properties=species:S:1:pos:R:3:initial_magmoms:R:1:castep_labels:S:1 n_minim_iter=8 pbc="T T T"
P        1.61890902       2.12202233       1.82678586       0.00000000 NULL
P        3.53082775       2.62681041       0.87172887       0.00000000 NULL
P        2.54039294       4.12674146       2.24850895       0.00000000 NULL
P        7.87390938       5.70639575       4.05712892       0.00000000 NULL
P        5.42895209       2.17537243       3.96003212       0.00000000 NULL
P        5.31504143       1.63272134       0.19854654       0.00000000 NULL
P        9.07702442       6.97489898       5.41642102       0.00000000 NULL
7
Lattice="5.404681338536083 0.2726877513661716 0.016281418882474745 2.2509874234882785 5.92254680911741 0.31544059346480374 2.2639383978709056 2.543295984565238 5.338804705512092" Properties=species:S:1:pos:R:3:initial_magmoms:R:1:castep_labels:S:1 n_minim_iter=9 pbc="T T T"
P        1.62332899       2.15728794       1.85032494       0.00000000 NULL
P        3.55718405       2.67580720       0.88035176       0.00000000 NULL
P        2.56525127       4.18765328       2.27330751       0.00000000 NULL
P        7.93483889       5.81517565       4.09527741       0.00000000 NULL
P        5.46160694       2.22758900       3.97825138       0.00000000 NULL
P        5.35947462       1.66034402       0.20445676       0.00000000 NULL
P        9.16468511       7.09389589       5.47164697       0.00000000 NULL
7
Lattice="5.372500479634265 0.27579260060388633 0.01030383370761545 2.2425274903990835 5.894413117786709 0.32478243634787984 2.2462687239390666 2.5450484630730354 5.314080871095959" Properties=species:S:1:pos:R:3:initial_magmoms:R:1:castep_labels:S:1 n_minim_iter=10 pbc="T T T"
P        1.60944529       2.15329351       1.84627431       0.00000000 NULL
P        3.53498375       2.66989192       0.87638256       0.00000000 NULL
P        2.55024318       4.17083607       2.26665963       0.00000000 NULL
P        7.88708511       5.80579532       4.07859943       0.00000000 NULL
P        5.42481572       2.22859789       3.95163441       0.00000000 NULL
P        5.33106206       1.65596922       0.20296523       0.00000000 NULL
P        9.11591826       7.07477723       5.44987501       0.00000000 NULL
7
Lattice="5.3650129889137705 0.283115179866664 0.006321253180450402 2.2474587373656414 5.899254565335066 0.335772830765165 2.2420403560954156 2.5608907039867024 5.313270790608416" Properties=species:S:1:pos:R:3:initial_magmoms:R:1:castep_labels:S:1 n_minim_iter=11 pbc="T T T"
P        1.60417516       2.16091118       1.85088253       0.00000000 NULL
P        3.53087470       2.68030607       0.87713602       0.00000000 NULL
P        2.55012491       4.17827820       2.27103723       0.00000000 NULL
P        7.87965078       5.83081158       4.08129466       0.00000000 NULL
P        5.41473978       2.24460487       3.94406544       0.00000000 NULL
P        5.32781694       1.66249635       0.20421073       0.00000000 NULL
P        9.11515973       7.09763176       5.45498874       0.00000000 NULL
7
Lattice="5.314260119396134 0.33821824285280616 -0.02122866791134262 2.2866005729756265 5.93157460216722 0.4182134600755379 2.214906906316988 2.677482943800831 5.316266600982859" Properties=species:S:1:pos:R:3:initial_magmoms:R:1:castep_labels:S:1 n_minim_iter=12 pbc="T T T"
P        1.56889694       2.21734015       1.88784106       0.00000000 NULL
P        3.50439962       2.75587665       0.88600395       0.00000000 NULL
P        2.55253977       4.23157843       2.30905193       0.00000000 NULL
P        7.83443167       6.01267109       4.10953189       0.00000000 NULL
P        5.34708167       2.36322453       3.89714083       0.00000000 NULL
P        5.30737495       1.71191223       0.21523948       0.00000000 NULL
P        9.11836665       7.26391792       5.50272876       0.00000000 NULL
7
Lattice="5.329560434519087 0.39014629874785195 -1.9950663060467362e-05 2.346449906585662 5.973922913568022 0.5376617298885972 2.2624972772472205 2.8157230475004895 5.4429214862175455" Properties=species:S:1:pos:R:3:initial_magmoms:R:1:castep_labels:S:1 n_minim_iter=13 pbc="T T T"
P        1.57433479       2.29167710       1.97465711       0.00000000 NULL
P        3.52401624       2.83688879       0.95101290       0.00000000 NULL
P        2.60115067       4.29937639       2.43024549       0.00000000 NULL
P        7.91827554       6.20478090       4.28523896       0.00000000 NULL
P        5.37956582       2.50262287       3.97801909       0.00000000 NULL
P        5.34820665       1.76545615       0.28386908       0.00000000 NULL
P        9.27244969       7.44404442       5.74057022       0.00000000 NULL
7
Lattice="5.276601671291762 0.38919900086246645 -0.010828522765995885 2.3261961207723316 5.886930607574468 0.5518586426231663 2.2301085027091623 2.801303087450929 5.365419012260963" Properties=species:S:1:pos:R:3:initial_magmoms:R:1:castep_labels:S:1 n_minim_iter=14 pbc="T T T"
P        1.55240110       2.27440740       1.95225028       0.00000000 NULL
P        3.48582633       2.80613416       0.94150261       0.00000000 NULL
P        2.57079299       4.24159426       2.40439021       0.00000000 NULL
P        7.83590398       6.14231474       4.22704221       0.00000000 NULL
P        5.31784447       2.48774353       3.90927485       0.00000000 NULL
P        5.29728894       1.74552059       0.28018775       0.00000000 NULL
P        9.17932572       7.35690289       5.66521910       0.00000000 NULL
7
Lattice="5.316526162902039 0.39900434307675275 -0.004782106915784611 2.3509686626305957 5.93921487246532 0.5694010628777749 2.2558621820545453 2.8380115070211795 5.402037514592295" Properties=species:S:1:pos:R:3:initial_magmoms:R:1:castep_labels:S:1 n_minim_iter=15 pbc="T T T"
P        1.56610135       2.30074419       1.96993964       0.00000000 NULL
P        3.51611037       2.83742377       0.95567829       0.00000000 NULL
P        2.59769092       4.28451140       2.43023653       0.00000000 NULL
P        7.90629875       6.21157523       4.26683024       0.00000000 NULL
P        5.36293217       2.52436177       3.93831110       0.00000000 NULL
P        5.33947701       1.76543241       0.29337455       0.00000000 NULL
P        9.26669245       7.43611921       5.72033936       0.00000000 NULL
7
Lattice="5.3201315844699915 0.4018863287304623 -0.0017983494177855022 2.355292853210115 5.938606101036925 0.581926922001644 2.261439679549882 2.8497137589709256 5.402299625870397" Properties=species:S:1:pos:R:3:initial_magmoms:R:1:castep_labels:S:1 n_minim_iter=16 pbc="T T T"
P        1.56723714       2.30743334       1.97363487       0.00000000 NULL
P        3.51944819       2.84202056       0.96201976       0.00000000 NULL
P        2.60205638       4.28747398       2.43747074       0.00000000 NULL
P        7.91675126       6.22344039       4.27560731       0.00000000 NULL
P        5.36852379       2.53529078       3.93871328       0.00000000 NULL
P        5.34425098       1.76776608       0.30143882       0.00000000 NULL
P        9.28213659       7.44584480       5.73311833       0.00000000 NULL
7
Lattice="5.346433293491832 0.41752262474708396 0.01617075773999446 2.38120566020285 5.943927367264423 0.6510527059605656 2.296189910961177 2.91686991429869 5.412423498592463" Properties=species:S:1:pos:R:3:initial_magmoms:R:1:castep_labels:S:1 n_minim_iter=17 pbc="T T T"
P        1.57582674       2.34696758       1.99679104       0.00000000 NULL
P        3.54273383       2.87043953       0.99913976       0.00000000 NULL
P        2.62954308       4.30987971       2.48096072       0.00000000 NULL
P        7.98439632       6.29549167       4.33121362       0.00000000 NULL
P        5.40674521       2.59753826       3.94900691       0.00000000 NULL
P        5.37650828       1.78246644       0.34754827       0.00000000 NULL
P        9.37841843       7.50874595       5.81340930       0.00000000 NULL
