4
Lattice="2.531113402539508 0.10821305258563631 0.16077298461342301 -0.20628217398701645 6.4043962130691785 -0.6645627877103123 -0.20628217398701745 -3.026475263909911 5.683166549532538" Properties=species:S:1:pos:R:3:initial_magmoms:R:1:castep_labels:S:1:forces:R:3 n_minim_iter=1 energy=-21.50177385745 stress="-3.3604132442568745e-05 -0.00013933141988942618 -0.00020699688385541497 -0.00013933141988942618 0.004026780904597608 0.004873742201874596 -0.00020699688385541497 0.004873742201874596 0.007987382242241995" free_energy=-21.50177385745 pbc="T T T"
P        1.09495128       0.02981723       2.43114360       0.00000000 NULL       0.19822400      -0.50800900      -0.81570900
P        1.02359777       1.24503504       4.23660227       0.00000000 NULL      -0.19822400       0.56448000       0.77770100
P        1.19264461       3.00561381       0.42543291       0.00000000 NULL      -0.16838100      -0.47544700      -0.64542500
P        0.92590444       4.22339050       2.23469333       0.00000000 NULL       0.16838100       0.41897700       0.68343200
4
Lattice="2.5320555910570883 0.10227326404915835 0.15194819399746265 -0.201158214689118 6.248723126261123 -0.8417937487764527 -0.20115821468911907 -3.1320704573283784 5.47222916867345" Properties=species:S:1:pos:R:3:initial_magmoms:R:1:castep_labels:S:1:forces:R:3 n_minim_iter=2 energy=-21.726412926065 stress="-0.009101756093836396 0.0004308855096674478 0.0006401656430829288 0.0004308855096674478 -0.03082443635483185 0.002053211160195189 0.0006401656430829288 0.002053211160195189 -0.02915592216801789" free_energy=-21.726412926065 pbc="T T T"
P        1.11472545      -0.08899644       2.23700371       0.00000000 NULL       0.15650900      -0.05435900      -1.18347000
P        1.01501371       1.11296228       4.02276325       0.00000000 NULL      -0.15650800       1.07596100       0.49584800
P        1.18256303       2.87327423       0.25521075       0.00000000 NULL      -0.08688300      -1.15183000      -0.60856700
P        0.94717612       4.06406773       2.02438203       0.00000000 NULL       0.08688300       0.13022700       1.29618800
4
Lattice="2.567453264632786 0.09779774469029678 0.14529887963263677 -0.2009692049941615 6.352795266619396 -1.1110329525862417 -0.20096920499416257 -3.4206816751715956 5.467297211461943" Properties=species:S:1:pos:R:3:initial_magmoms:R:1:castep_labels:S:1:forces:R:3 n_minim_iter=3 energy=-22.031918184924 stress="0.018483564064287635 -0.000652750139532539 -0.0009697930493688193 -0.000652750139532539 0.0069027920147918045 -0.0037874790287671946 -0.0009697930493688193 -0.0037874790287671946 0.0038249329323788296" free_energy=-22.031918184924 pbc="T T T"
P        1.15556764      -0.23768845       2.08772959       0.00000000 NULL       0.04182700      -0.08189900      -0.25483100
P        1.00994721       1.00627025       3.93588883       0.00000000 NULL      -0.04182700       0.20525600       0.17180300
P        1.18130815       2.82936894       0.04950587       0.00000000 NULL      -0.04547300      -0.41301400      -0.48047000
P        0.98420670       4.04910040       1.86167051       0.00000000 NULL       0.04547300       0.28965700       0.56349900
4
Lattice="2.520489534398607 0.0994153364706866 0.14770214848242363 -0.19359672621781462 6.345648413388116 -1.1075301317449278 -0.19359672621781573 -3.414746225812388 5.461994598345744" Properties=species:S:1:pos:R:3:initial_magmoms:R:1:castep_labels:S:1:forces:R:3 n_minim_iter=4 energy=-22.061035364287 stress="-0.011839868151996115 -0.0014658750468771681 -0.002177721762613037 -0.0014658750468771681 0.00921220915839183 0.0016798508777519832 -0.002177721762613037 0.0016798508777519832 0.010577487443680896" free_energy=-22.061035364287 pbc="T T T"
P        1.13922842      -0.23939449       2.07492246       0.00000000 NULL       0.04484900       0.01121800      -0.15021600
P        0.99406766       1.01789935       3.94289382       0.00000000 NULL      -0.04484800       0.14338800       0.04615600
P        1.15945865       2.81516401       0.04096721       0.00000000 NULL      -0.03092300      -0.29658400      -0.27376200
P        0.97383743       4.05207006       1.87864828       0.00000000 NULL       0.03092200       0.14197900       0.37782100
4
Lattice="2.5384895086861445 0.11668061770530369 0.17335331281015423 -0.15773208017683205 6.227771018172062 -1.0341831998644158 -0.15773208017683318 -3.302421914697648 5.380397405674638" Properties=species:S:1:pos:R:3:initial_magmoms:R:1:castep_labels:S:1:forces:R:3 n_minim_iter=5 energy=-22.085948227941 stress="0.0008937278576697138 0.0029262064705862776 0.0043473653289417035 0.0029262064705862776 0.0006734547477266318 0.012897505122226162 0.0043473653289417035 0.012897505122226162 0.011154208238507494" free_energy=-22.085948227941 pbc="T T T"
P        1.17050152      -0.19580787       2.05349205       0.00000000 NULL       0.11160500       0.16812500      -0.20292500
P        1.05252382       1.06587289       3.92798109       0.00000000 NULL      -0.11160700       0.25128600      -0.07937400
P        1.18741976       2.74588932       0.06458592       0.00000000 NULL       0.03070400      -0.18810300       0.17324600
P        1.03560558       4.01582387       1.95133768       0.00000000 NULL      -0.03070200      -0.23130900       0.10905300
4
Lattice="2.53139137190778 0.11787317927652603 0.17512511093024663 -0.15016173645779696 6.175743769526121 -1.0690583766263275 -0.15016173645779804 -3.315147367896526 5.31906898325302" Properties=species:S:1:pos:R:3:initial_magmoms:R:1:castep_labels:S:1:forces:R:3 n_minim_iter=6 energy=-22.102951783858 stress="-0.0017119773104622897 0.004608065553337259 0.00684616533767771 0.004608065553337259 -0.001023671748639534 -0.005376054121147682 0.00684616533767771 -0.005376054121147682 -0.005392419991064341" free_energy=-22.102951783858 pbc="T T T"
P        1.17426494      -0.18889014       2.01024053       0.00000000 NULL       0.12929600      -0.25845300      -0.37606400
P        1.05680295       1.04498696       3.84342146       0.00000000 NULL      -0.12929600       0.25111500       0.38100200
P        1.18874735       2.68517775       0.03480494       0.00000000 NULL       0.02871700       0.04660400       0.06132100
P        1.04232054       3.95700067       1.92436226       0.00000000 NULL      -0.02871700      -0.03926500      -0.06625900
4
Lattice="2.5349178315482774 0.10190347674714316 0.15139879809006915 -0.18423459632682224 6.123596162663611 -1.0401405801995078 -0.18423459632682274 -3.2687267769342614 5.281642514191887" Properties=species:S:1:pos:R:3:initial_magmoms:R:1:castep_labels:S:1:forces:R:3 n_minim_iter=7 energy=-22.112367720259 stress="0.00037411151138591934 0.00023200608770616453 0.0003446870104903976 0.00023200608770616453 -0.004119294528594724 -0.0037873536152664418 0.0003446870104903976 -0.0037873536152664418 -0.007196799009353994" free_energy=-22.112367720259 pbc="T T T"
P        1.16008389      -0.18173422       1.97964088       0.00000000 NULL       0.03265500      -0.20778200      -0.36094500
P        1.00636474       1.05433286       3.81607547       0.00000000 NULL      -0.03265300       0.25618000       0.32837200
P        1.17314213       2.64407104       0.03224216       0.00000000 NULL      -0.05060300       0.05048500       0.12724300
P        0.99330650       3.92220451       1.93117512       0.00000000 NULL       0.05060100      -0.09888400      -0.09467000
4
Lattice="2.5334443865093013 0.10491171886853648 0.15586816710554408 -0.1771205923311591 6.0421679969659605 -0.9940819522579921 -0.17712059233115968 -3.195404112006979 5.223541479909348" Properties=species:S:1:pos:R:3:initial_magmoms:R:1:castep_labels:S:1:forces:R:3 n_minim_iter=8 energy=-22.123317590037 stress="-0.0007477613702250577 0.0011239247681236577 0.0016698389895682603 0.0011239247681236577 -0.0030925916133230234 -0.004933564888731875 0.0016698389895682603 -0.004933564888731875 -0.0071018653430403545" free_energy=-22.123317590037 pbc="T T T"
P        1.16785541      -0.16205046       1.93171318       0.00000000 NULL       0.01180300      -0.03778600      -0.04844100
P        1.01134778       1.10104754       3.80830782       0.00000000 NULL      -0.01180400       0.03065600       0.05323900
P        1.17145165       2.60182841       0.07378124       0.00000000 NULL      -0.00226200      -0.04394100      -0.07297700
P        1.00775155       3.86272224       1.94710112       0.00000000 NULL       0.00226400       0.05107200       0.06817900
4
Lattice="2.534131654118474 0.10163013786438803 0.15099269635888768 -0.184943962787545 6.033550808336472 -0.9765661331253042 -0.18494396278754557 -3.1759329025891194 5.222151564958336" Properties=species:S:1:pos:R:3:initial_magmoms:R:1:castep_labels:S:1:forces:R:3 n_minim_iter=9 energy=-22.124876459343 stress="-0.0008879240505061253 0.0003738263901352637 0.0005554189508146486 0.0003738263901352637 -0.000644833248196355 -0.0023456396745899556 0.0005554189508146486 -0.0023456396745899556 -0.0025508641438509046" free_energy=-22.124876459343 pbc="T T T"
P        1.16363801      -0.15389797       1.93179059       0.00000000 NULL       0.01995500      -0.03174800      -0.03602000
P        1.00060571       1.11161708       3.81197627       0.00000000 NULL      -0.01995400       0.02141900       0.04297300
P        1.15648199       2.59606850       0.08218215       0.00000000 NULL       0.05169000      -0.03197100      -0.05865100
P        1.00776173       3.86034349       1.96052547       0.00000000 NULL      -0.05169100       0.04230000       0.05169800
4
Lattice="2.5344815237673797 0.10246290509457068 0.1522299451924215 -0.18366207314482264 6.0249822844733405 -0.9633699611262022 -0.18366207314482325 -3.1604819312927184 5.2191806993234175" Properties=species:S:1:pos:R:3:initial_magmoms:R:1:castep_labels:S:1:forces:R:3 n_minim_iter=10 energy=-22.125763592138 stress="-0.0006774987981955739 -4.270647259127547e-05 -6.343776996568104e-05 -4.270647259127547e-05 0.0007906916818598283 -0.0003294894196038858 -6.343776996568104e-05 -0.0003294894196038858 0.0005229815284316711" free_energy=-22.125763592138 pbc="T T T"
P        1.16816583      -0.14719269       1.93194464       0.00000000 NULL      -0.01746000      -0.01016100      -0.02053900
P        0.99899154       1.12171363       3.81716876       0.00000000 NULL       0.01745900       0.01520200       0.01714900
P        1.16518518       2.59195593       0.09009067       0.00000000 NULL      -0.00359300      -0.02663400      -0.03413400
P        1.00197219       3.85918380       1.97282110       0.00000000 NULL       0.00359300       0.02159300       0.03752500
4
Lattice="2.536148194852359 0.0989440326257972 0.1470019286476427 -0.19135972580176552 5.9834103470019375 -0.9349040762890042 -0.19135972580176625 -3.1184609896168647 5.191381903569545" Properties=species:S:1:pos:R:3:initial_magmoms:R:1:castep_labels:S:1:forces:R:3 n_minim_iter=11 energy=-22.126391103643 stress="0.00015469037221663783 -0.0007119937942836061 -0.001057887040987836 -0.0007119937942836061 0.002002891918466233 0.0007917081122186662 -0.001057887040987836 0.0007917081122186662 0.002646459611165723" free_energy=-22.126391103643 pbc="T T T"
P        1.14848005      -0.13556745       1.91161698       0.00000000 NULL       0.05729000       0.05451500       0.00841000
P        1.00494869       1.14185231       3.80948958       0.00000000 NULL      -0.05729000       0.01272800      -0.05366900
P        1.16841554       2.56322054       0.09965173       0.00000000 NULL      -0.02741000      -0.03170600       0.02547200
P        0.98501319       3.83643932       1.99128291       0.00000000 NULL       0.02741000      -0.03553700       0.01978600
4
Lattice="2.5442635844615884 0.08751748864034141 0.1300254222423311 -0.21704750800672257 5.653898779229396 -0.7041195218896839 -0.2170475080067242 -2.780614220076291 4.972981024092805" Properties=species:S:1:pos:R:3:initial_magmoms:R:1:castep_labels:S:1:forces:R:3 n_minim_iter=12 energy=-22.19073239958 stress="0.013280541632595858 -0.003994565939463934 -0.005934749515808863 -0.003994565939463934 -0.0029820232933806877 0.02040137409742606 -0.005934749515808863 0.02040137409742606 0.01359653146929795" free_energy=-22.19073239958 pbc="T T T"
P        1.10619803      -0.02084824       1.78206917       0.00000000 NULL       0.21545600       0.41894900      -0.09932000
P        1.00397053       1.30196352       3.74738103       0.00000000 NULL      -0.21545600       0.24972300      -0.35075000
P        1.17206065       2.35240277       0.20341292       0.00000000 NULL      -0.09091800      -0.31668900       0.25125800
P        0.93810791       3.65786115       2.14294272       0.00000000 NULL       0.09091700      -0.35198300       0.19881100
4
Lattice="2.544390005145759 0.0872713399878684 0.12965971725045558 -0.21758403116796887 5.646300007697375 -0.6990141285481348 -0.21758403116797045 -2.7730239593233894 4.967862986219679" Properties=species:S:1:pos:R:3:initial_magmoms:R:1:castep_labels:S:1:forces:R:3 n_minim_iter=13 energy=-22.190952593261 stress="0.013737249197993325 -0.004072270379854662 -0.006050007810988667 -0.004072270379854662 -0.004212874214487826 0.021622444013523055 -0.006050007810988667 0.021622444013523055 0.013358112979365878" free_energy=-22.190952593261 pbc="T T T"
P        1.10537723      -0.01834951       1.77896272       0.00000000 NULL       0.21868900       0.42044500      -0.09857500
P        1.00384471       1.30552741       3.74585709       0.00000000 NULL      -0.21868800       0.24959100      -0.35241300
P        1.17208783       2.34747638       0.20557520       0.00000000 NULL      -0.09241000      -0.31722900       0.25192300
P        0.93713410       3.65374883       2.14631446       0.00000000 NULL       0.09240900      -0.35280800       0.19906500
4
Lattice="2.5425511443175095 0.09290282371633629 0.13802645698465912 -0.20323679392105756 5.594227560732737 -0.6977341414342857 -0.2032367939210593 -2.752236595556112 4.9201025045690105" Properties=species:S:1:pos:R:3:initial_magmoms:R:1:castep_labels:S:1:forces:R:3 n_minim_iter=14 energy=-22.227397890958 stress="0.017589736336558817 -0.0025347154502328383 -0.0037659328121744783 -0.0025347154502328383 -0.013502436996872454 0.020300034354604854 -0.0037659328121744783 0.020300034354604854 0.0029939196419462096" free_energy=-22.227397890958 pbc="T T T"
P        1.16524042      -0.01247127       1.74574108       0.00000000 NULL      -0.02646600       0.38312700      -0.14866500
P        0.97083713       1.31286460       3.71480302       0.00000000 NULL       0.02646500       0.28194700      -0.29898300
P        1.14940463       2.30078925       0.19094367       0.00000000 NULL       0.04547700      -0.28476400       0.29479800
P        0.98667292       3.62407621       2.15696152       0.00000000 NULL      -0.04547600      -0.38031000       0.15285000
4
Lattice="2.521120032397971 0.10336576246035703 0.15357132749251606 -0.17744172820491805 5.567838221334501 -0.7060405520952288 -0.1774417282049198 -2.749998350406525 4.8925274442681905" Properties=species:S:1:pos:R:3:initial_magmoms:R:1:castep_labels:S:1:forces:R:3 n_minim_iter=15 energy=-22.265548529641 stress="0.00538576218638362 0.0004858712737288939 0.0007218658923972139 0.0004858712737288939 -0.012551856545589582 0.01136190086428052 0.0007218658923972139 0.01136190086428052 -0.0033190545212446656" free_energy=-22.265548529641 pbc="T T T"
P        1.17650086       0.00705699       1.72474706       0.00000000 NULL      -0.05573100       0.19664200      -0.10508500
P        0.98973571       1.32597725       3.68427727       0.00000000 NULL       0.05573000       0.17138100      -0.14262400
P        1.16275437       2.27086235       0.20150541       0.00000000 NULL       0.01181100      -0.17306300       0.14012400
P        1.00348220       3.58933785       2.16037484       0.00000000 NULL      -0.01181000      -0.19495900       0.10758500
4
Lattice="2.5094369620224337 0.10192031223876437 0.1514238107125816 -0.1785893386325751 5.577075399097162 -0.7279031685581236 -0.17858933863257684 -2.773730013599661 4.892855489554941" Properties=species:S:1:pos:R:3:initial_magmoms:R:1:castep_labels:S:1:forces:R:3 n_minim_iter=16 energy=-22.279933134929 stress="-0.002001611898062495 0.0003738706030006996 0.0005555500651386812 0.0003738706030006996 -0.004422906491478272 0.000268126252844396 0.0005555500651386812 0.000268126252844396 -0.00420514216207627" free_energy=-22.279933134929 pbc="T T T"
P        1.16189510       0.01291319       1.71094072       0.00000000 NULL      -0.00881500       0.06945600      -0.07027500
P        0.99036318       1.32503258       3.66036683       0.00000000 NULL       0.00881600       0.09125100      -0.03789400
P        1.15931210       2.25761607       0.19854816       0.00000000 NULL       0.00439900      -0.08746300       0.04352000
P        0.99294618       3.57115138       2.15007792       0.00000000 NULL      -0.00440000      -0.07324300       0.06464900
4
Lattice="2.5074332222486393 0.10084844089678555 0.14983132301674515 -0.1806130711983187 5.5683458113739475 -0.723711500082459 -0.18061307119832043 -2.7665605986638164 4.886345860079705" Properties=species:S:1:pos:R:3:initial_magmoms:R:1:castep_labels:S:1:forces:R:3 n_minim_iter=17 energy=-22.283237304787 stress="-0.0018042938691315987 6.343282118642889e-05 9.42835233019129e-05 6.343282118642889e-05 -0.00377826659989836 0.0006705305663875609 9.42835233019129e-05 0.0006705305663875609 -0.0032333424635524123" free_energy=-22.283237304787 pbc="T T T"
P        1.15681340       0.02405156       1.69858469       0.00000000 NULL       0.00768600       0.01789000      -0.04364300
P        0.98939368       1.33804052       3.65078844       0.00000000 NULL      -0.00768600       0.04716800      -0.00014500
P        1.15844366       2.24051925       0.20483865       0.00000000 NULL      -0.00092500      -0.04271700       0.00675800
P        0.98776341       3.55625582       2.15963883       0.00000000 NULL       0.00092500      -0.02234000       0.03703100
4
Lattice="2.508190756320445 0.10082803699914958 0.14980100878530722 -0.18071834916109547 5.572738648363669 -0.7266702468430261 -0.1807183491610972 -2.7709553041112693 4.889301830857901" Properties=species:S:1:pos:R:3:initial_magmoms:R:1:castep_labels:S:1:forces:R:3 n_minim_iter=18 energy=-22.284333179121 stress="-0.00016017484378459858 3.190921814354614e-05 4.7313668281809786e-05 3.190921814354614e-05 -0.0005063034070953798 -0.0006045460737934898 4.7313668281809786e-05 -0.0006045460737934898 -0.0009976739288526468" free_energy=-22.284333179121 pbc="T T T"
P        1.15882904       0.02849888       1.69284208       0.00000000 NULL      -0.00161700      -0.00551000      -0.02315000
P        0.98792501       1.34501256       3.64879683       0.00000000 NULL       0.00161700       0.01937400       0.01381800
P        1.15823274       2.23383425       0.20571521       0.00000000 NULL       0.00170300      -0.01339600      -0.00493700
P        0.98852131       3.55290503       2.16546907       0.00000000 NULL      -0.00170300      -0.00046800       0.01426800
4
Lattice="2.5079135114743614 0.10073831307032925 0.1496677052375094 -0.1808385409818067 5.569514082671052 -0.7252750442682664 -0.18083854098180846 -2.7684489077327203 4.886839638476259" Properties=species:S:1:pos:R:3:initial_magmoms:R:1:castep_labels:S:1:forces:R:3 n_minim_iter=19 energy=-22.284551762725 stress="0.00041730256330254674 5.979448493777065e-06 9.126526648396573e-06 5.979448493777065e-06 -0.0005748138249412531 -0.00015373476785316296 9.126526648396573e-06 -0.00015373476785316296 -0.0006995954737719166" free_energy=-22.284551762725 pbc="T T T"
P        1.15881225       0.03089709       1.68683508       0.00000000 NULL      -0.00198500      -0.00929300      -0.01271400
P        0.98742418       1.35067259       3.64763593       0.00000000 NULL       0.00198600       0.00828000       0.01339700
P        1.15822826       2.22700572       0.20614429       0.00000000 NULL       0.00134900      -0.00324700      -0.00591900
P        0.98800816       3.54912917       2.17043352       0.00000000 NULL      -0.00134900       0.00426000       0.00523600
4
Lattice="2.5072670412394658 0.100796239789029 0.1497537674197665 -0.18065951916473275 5.569515887019071 -0.7253134372543609 -0.18065951916473452 -2.7684851559640204 4.8868268579136505" Properties=species:S:1:pos:R:3:initial_magmoms:R:1:castep_labels:S:1:forces:R:3 n_minim_iter=20 energy=-22.284619775457 stress="0.00026521199336580515 8.02718792976621e-06 1.1962083973769255e-05 8.02718792976621e-06 -0.00011269542270024718 -9.947417199239694e-05 1.1962083973769255e-05 -9.947417199239694e-05 -0.00019359688536494976" free_energy=-22.284619775457 pbc="T T T"
P        1.15850973       0.03108338       1.68400935       0.00000000 NULL      -0.00086600      -0.00848600      -0.00627700
P        0.98743826       1.35338407       3.64856191       0.00000000 NULL       0.00086700       0.00262100       0.01022400
P        1.15834096       2.22457771       0.20563249       0.00000000 NULL       0.00021500       0.00106400      -0.00474900
P        0.98760704       3.54871284       2.17291048       0.00000000 NULL      -0.00021500       0.00480000       0.00080200
