36
Lattice="10.494976518836168 0.0 0.0 0.0 9.542058557569934 2.577262182148873e-15 0.0 -4.771029278784969 8.263665115254256" Properties=species:S:1:pos:R:3:initial_magmoms:R:1:castep_labels:S:1:forces:R:3 n_minim_iter=1 energy=-182.552039744339 stress="0.0011266818942617725 -0.0 -0.0 -0.0 0.0006758955487900769 1.208380499857112e-08 -0.0 1.208380499857112e-08 0.0006758713811800799" free_energy=-182.552039744339 pbc="T T T"
P        2.39950989      -1.36574400       7.14240522       0.00000000 NULL       0.10214600       0.54865200       0.33215100
P        2.39950989      -0.73160308       3.50969351       0.00000000 NULL       0.10214700      -0.56197800       0.30907200
P        2.39950989       2.09734709       5.87523151       0.00000000 NULL       0.10214600       0.01332500      -0.64122200
P        9.57832144       5.36502615       7.09456590       0.00000000 NULL       0.27826300       0.52412100       0.06656100
P        9.57832144       0.71547119       1.09896598       0.00000000 NULL       0.27826300      -0.31970700       0.42061900
P        9.57832144       8.23259051       0.07013323       0.00000000 NULL       0.27826400      -0.20441300      -0.48718000
P        3.26928677       1.01016409       2.36798051       0.00000000 NULL      -0.32536300      -0.28663000       0.18597600
P        3.26928677       2.21521596       7.95450263       0.00000000 NULL      -0.32536200      -0.01774300      -0.34121800
P        3.26928677      -3.22538004       6.20484709       0.00000000 NULL      -0.32536300       0.30437500       0.15524100
P        1.42580125       3.50378863       8.08668680       0.00000000 NULL      -0.13251600      -0.00460700      -0.04852600
P        1.42580125      -3.98414123       7.25469168       0.00000000 NULL      -0.13251600       0.04433000       0.02026800
P        1.42580125       0.48035261       1.18595176       0.00000000 NULL      -0.13251600      -0.03972200       0.02825800
P        9.37573652       5.71816538       4.97338525       0.00000000 NULL      -0.43266900      -0.12485800      -0.21391300
P        9.37573652       2.37589790       2.46538385       0.00000000 NULL      -0.43266800       0.24768300      -0.00117400
P        9.37573652       6.21902457       0.82489601       0.00000000 NULL      -0.43266800      -0.12282600       0.21508700
P        8.24708497       0.13197190       6.90554040       0.00000000 NULL      -0.15960700      -0.08611900       0.29799900
P        8.24708497      -1.27533008       4.92518593       0.00000000 NULL      -0.15960700      -0.21501500      -0.22358000
P        8.24708497       1.14335819       4.69660390       0.00000000 NULL      -0.15960700       0.30113400      -0.07441800
P        2.23202952       6.59186272       4.23001387       0.00000000 NULL       0.09220800      -0.84353900      -0.22208700
P        2.23202952       2.58282773       3.59371364       0.00000000 NULL       0.09220800       0.61410300      -0.61948400
P        2.23202952       5.13839739       0.43993761       0.00000000 NULL       0.09220800       0.22943600       0.84157100
P        6.35377480       3.21606604       6.80245873       0.00000000 NULL       0.22310100       0.26373000       0.04398800
P        6.35377480      -2.72810580       7.64763064       0.00000000 NULL       0.22310100      -0.16996000       0.20640300
P        6.35377480      -0.48796023       2.07724087       0.00000000 NULL       0.22310100      -0.09377100      -0.25039100
P        0.29232577      -0.55796529       4.31574581       0.00000000 NULL       0.53754900       0.47278300       0.05996000
P        0.29232577       1.31246642       5.62258009       0.00000000 NULL       0.53754900      -0.28831800       0.37946200
P        0.29232577      -0.75450112       6.58900433       0.00000000 NULL       0.53754900      -0.18446500      -0.43942200
P        4.18114957       3.53619884       3.00447239       0.00000000 NULL       0.14956000       0.08669200       0.54119700
P        4.18114957       5.17200973       1.56020183       0.00000000 NULL       0.14956000      -0.51203600      -0.19552100
P        4.18114957       5.60487928       3.69899089       0.00000000 NULL       0.14956000       0.42534500      -0.34567500
P        7.32091880       1.41877524       2.67379913       0.00000000 NULL      -0.12974600       0.20542600      -0.22874700
P        7.32091880       1.74606370       8.15546095       0.00000000 NULL      -0.12974600       0.09538700       0.29227700
P        7.32091880      -3.16483892       5.69807016       0.00000000 NULL      -0.12974500      -0.30081300      -0.06353100
P        6.46074115      -1.81358783       3.77279851       0.00000000 NULL      -0.20292800       0.17017900       0.11945800
P        6.46074115       2.41048384       4.80665273       0.00000000 NULL      -0.20292800      -0.18854300       0.08765000
P        6.46074115      -0.59689601       7.94787899       0.00000000 NULL      -0.20292800       0.01836400      -0.20710800
36
Lattice="10.414516886518904 0.0 0.0 0.0 9.498106711079432 1.3845166172811036e-16 0.0 -4.749053355539716 8.225601699650252" Properties=species:S:1:pos:R:3:initial_magmoms:R:1:castep_labels:S:1:forces:R:3 n_minim_iter=2 energy=-182.600777725811 stress="-0.005551754374484941 -0.0 -0.0 -0.0 -0.005662119650444596 1.2290119817333427e-08 -0.0 1.2290119817333427e-08 -0.005662119650444596" free_energy=-182.600777725811 pbc="T T T"
P        2.38195073      -1.35494546       7.11223543       0.00000000 NULL       0.19558800       0.54684900       0.35871000
P        2.38195073      -0.73285047       3.49606680       0.00000000 NULL       0.19558800      -0.58407600       0.29423000
P        2.38195073       2.08779594       5.84290117       0.00000000 NULL       0.19558800       0.03722700      -0.65293900
P        9.50716854       5.34462041       7.06243438       0.00000000 NULL       0.23747100       0.56445600       0.06603500
P        9.50716854       0.70954892       1.09735985       0.00000000 NULL       0.23747100      -0.33941500       0.45581200
P        9.50716854       8.19299074       0.06580747       0.00000000 NULL       0.23747100      -0.22504000      -0.52184700
P        3.24155783       1.00315618       2.35860130       0.00000000 NULL      -0.18759200      -0.30106500       0.16428100
P        3.24155783       2.20486662       7.91505978       0.00000000 NULL      -0.18759100       0.00826200      -0.34287100
P        3.24155783      -3.20802280       6.17754231       0.00000000 NULL      -0.18759200       0.29280400       0.17859000
P        1.41378494       3.48761189       8.04903987       0.00000000 NULL      -0.14673100      -0.06429200      -0.07877600
P        1.41378494      -3.96542558       7.22144226       0.00000000 NULL      -0.14673100       0.10037100      -0.01629200
P        1.41378494       0.47781370       1.18072128       0.00000000 NULL      -0.14673100      -0.03607900       0.09506800
P        9.30031363       5.69080099       4.94871973       0.00000000 NULL      -0.32474300      -0.16878600      -0.33550800
P        9.30031363       2.36698922       2.45401836       0.00000000 NULL      -0.32474300       0.37495200       0.02158100
P        9.30031363       6.18936986       0.82286361       0.00000000 NULL      -0.32474300      -0.20616500       0.31392700
P        8.18255146       0.13065646       6.87618104       0.00000000 NULL      -0.05268200      -0.08794200       0.24812200
P        8.18255146      -1.27122233       4.90066299       0.00000000 NULL      -0.05268200      -0.17091000      -0.20022100
P        8.18255146       1.14056588       4.67435937       0.00000000 NULL      -0.05268200       0.25885100      -0.04790200
P        2.21567295       6.55456925       4.20870524       0.00000000 NULL      -0.07545000      -0.82929000      -0.25621100
P        2.21567295       2.57597643       3.57207086       0.00000000 NULL      -0.07545000       0.63653100      -0.59008200
P        2.21567295       5.11661439       0.44482560       0.00000000 NULL      -0.07545000       0.19275800       0.84629200
P        6.30689103       3.20341928       6.77148721       0.00000000 NULL       0.16859000       0.39104400       0.08929600
P        6.30689103      -2.71693622       7.61410057       0.00000000 NULL       0.16859000      -0.27285500       0.29400600
P        6.30689103      -0.48648305       2.06561562       0.00000000 NULL       0.16859000      -0.11819000      -0.38330200
P        0.29448762      -0.55151082       4.29635961       0.00000000 NULL       0.46178200       0.43066300      -0.07523500
P        0.29448762       1.30405221       5.59979951       0.00000000 NULL       0.46178200      -0.15017600       0.41058300
P        0.29448762      -0.75254138       6.55504428       0.00000000 NULL       0.46178200      -0.28048700      -0.33534800
P        4.15031985       3.52062296       2.99507995       0.00000000 NULL       0.28900200      -0.00783600       0.55886900
P        4.15031985       5.14397992       1.55140894       0.00000000 NULL       0.28900200      -0.48007600      -0.28622100
P        4.15031985       5.58255720       3.67911281       0.00000000 NULL       0.28900200       0.48791300      -0.27264800
P        7.26373033       1.41392798       2.65960390       0.00000000 NULL      -0.23736700       0.25542800      -0.29324800
P        7.26373033       1.73880483       8.12029730       0.00000000 NULL      -0.23736600       0.12624600       0.36783100
P        7.26373033      -3.15273281       5.67130220       0.00000000 NULL      -0.23736700      -0.38167400      -0.07458300
P        6.40954779      -1.80383603       3.75640203       0.00000000 NULL      -0.32786900       0.10655300       0.08216300
P        6.40954779       2.39783179       4.78523286       0.00000000 NULL      -0.32786900      -0.12443200       0.05119700
P        6.40954779      -0.59399575       7.90956851       0.00000000 NULL      -0.32786900       0.01787800      -0.13335900
36
Lattice="10.21471639455498 0.0 0.0 0.0 9.606523555464497 -1.0858178008917186e-14 0.0 -4.8032617777322395 8.319493441085873" Properties=species:S:1:pos:R:3:initial_magmoms:R:1:castep_labels:S:1:forces:R:3 n_minim_iter=3 energy=-183.175972856712 stress="-0.016357639843999103 0.0 -0.0 0.0 0.0036738776271991787 -0.0 -0.0 -0.0 0.0036738531286386856" free_energy=-183.175972856712 pbc="T T T"
P        2.34643793      -1.31990012       7.22433341       0.00000000 NULL       0.68404700       0.36164700       0.38077600
P        2.34643793      -0.79324442       3.56425970       0.00000000 NULL       0.68404700      -0.51058700       0.12280700
P        2.34643793       2.11314454       5.85039377       0.00000000 NULL       0.68404700       0.14893900      -0.50358500
P        9.34906579       5.45439010       7.14917341       0.00000000 NULL      -0.06760200       0.41952600      -0.00944600
P        9.34906579       0.68796272       1.14905369       0.00000000 NULL      -0.06760200      -0.20158600       0.36804300
P        9.34906579       8.26743252       0.02126635       0.00000000 NULL      -0.06760100      -0.21793900      -0.35859700
P        3.15202060       0.98803167       2.40238970       0.00000000 NULL      -0.20485900      -0.14619700       0.32993500
P        3.15202060       2.22871544       7.97395911       0.00000000 NULL      -0.20485900      -0.21263300      -0.29157800
P        3.15202060      -3.21674710       6.26263807       0.00000000 NULL      -0.20485900       0.35883000      -0.03835700
P        1.37470063       3.52627273       8.13607966       0.00000000 NULL       0.06458600       0.41682800       0.03007800
P        1.37470063      -4.00592625       7.30529538       0.00000000 NULL       0.06458600      -0.23446500       0.34594000
P        1.37470063       0.47965353       1.19761185       0.00000000 NULL       0.06458600      -0.18236400      -0.37601900
P        9.08464034       5.74372609       4.98402955       0.00000000 NULL       0.01103200      -0.25199400       0.05087700
P        9.08464034       2.41836431       2.48219793       0.00000000 NULL       0.01103300       0.08193700      -0.24367200
P        9.08464034       6.24769494       0.85326596       0.00000000 NULL       0.01103400       0.17005600       0.19279600
P        8.01261498       0.12419380       6.98151158       0.00000000 NULL       0.10012800       0.16222500       0.00426700
P        8.01261498      -1.30500151       4.93629263       0.00000000 NULL       0.10012800      -0.08480800       0.13835800
P        8.01261498       1.18080771       4.72118267       0.00000000 NULL       0.10012800      -0.07741800      -0.14262500
P        2.17941230       6.55186595       4.23587655       0.00000000 NULL      -0.44526900      -0.50392700       0.01208200
P        2.17941230       2.66221388       3.55614408       0.00000000 NULL      -0.44526900       0.24150100      -0.44245600
P        2.17941230       5.19570550       0.52747281       0.00000000 NULL      -0.44526900       0.26242900       0.43037500
P        6.20511472       3.26582042       6.85338206       0.00000000 NULL       0.24061700       0.21846800      -0.09935900
P        6.20511472      -2.76485139       7.72108585       0.00000000 NULL       0.24061700      -0.02318700       0.23887800
P        6.20511472      -0.50096901       2.06451897       0.00000000 NULL       0.24061700      -0.19528100      -0.13951900
P        0.33579770      -0.51477169       4.34928294       0.00000000 NULL       0.07350600       0.38922000      -0.19196800
P        0.33579770       1.29405811       5.69904660       0.00000000 NULL       0.07350600      -0.02836100       0.43305900
P        0.33579770      -0.77928641       6.59065734       0.00000000 NULL       0.07350600      -0.36086000      -0.24109100
P        4.08563931       3.56764713       3.07932860       0.00000000 NULL       0.62465200       0.42796500       0.27580400
P        4.08563931       5.15592321       1.55000874       0.00000000 NULL       0.62465300      -0.45283500       0.23272700
P        4.08563931       5.68621501       3.69015611       0.00000000 NULL       0.62465200       0.02487100      -0.50853000
P        7.11157025       1.44959470       2.66811096       0.00000000 NULL      -0.52761200       0.02416900       0.05093600
P        7.11157025       1.76781256       8.24082380       0.00000000 NULL      -0.52761400      -0.05619600      -0.00453700
P        7.11157025      -3.21740726       5.73005213       0.00000000 NULL      -0.52761100       0.03202700      -0.04639900
P        6.26705874      -1.80952380       3.80982986       0.00000000 NULL      -0.55322800       0.26576500      -0.24272900
P        6.26705874       2.40861424       4.84748493       0.00000000 NULL      -0.55322800       0.07732700       0.35152400
P        6.26705874      -0.59909043       7.98167209       0.00000000 NULL      -0.55322800      -0.34309200      -0.10879500
36
Lattice="10.653024442725755 0.0 0.0 0.0 9.41365341346858 -3.380529811283017e-14 0.0 -4.706826706734261 8.152462998485905" Properties=species:S:1:pos:R:3:initial_magmoms:R:1:castep_labels:S:1:forces:R:3 n_minim_iter=4 energy=-184.526442703987 stress="-0.007924770826443335 0.0 0.0 0.0 0.0016393525825912736 -1.2231509938977024e-08 0.0 -1.2231509938977024e-08 0.0016393770456111516" free_energy=-184.526442703987 pbc="T T T"
P        2.47264261      -1.19385367       7.14130802       0.00000000 NULL       0.43839100       0.26294400      -0.08418200
P        2.47264261      -0.88080061       3.54790138       0.00000000 NULL       0.43839100      -0.05856700       0.26980800
P        2.47264261       2.07465429       5.61571660       0.00000000 NULL       0.43839100      -0.20437600      -0.18562600
P        9.79944265       5.44135274       7.01731071       0.00000000 NULL      -0.00827700       0.39147200       0.17209000
P        9.79944265       0.61580771       1.20369435       0.00000000 NULL      -0.00827700      -0.34476800       0.25298000
P        9.79944265       8.06331968      -0.06854206       0.00000000 NULL      -0.00827800      -0.04670600      -0.42506900
P        3.22941135       0.91620989       2.38904422       0.00000000 NULL      -0.20447300      -0.08664100      -0.11269700
P        3.22941135       2.17974878       7.75140193       0.00000000 NULL      -0.20447400       0.14091800      -0.01868500
P        3.22941135      -3.09595866       6.16447985       0.00000000 NULL      -0.20447400      -0.05427700       0.13138200
P        1.40982086       3.45662467       7.96379985       0.00000000 NULL       0.05671200      -0.23977900      -0.03398100
P        1.40982086      -3.91833861       7.16408785       0.00000000 NULL       0.05671100       0.14931500      -0.19065900
P        1.40982086       0.46171394       1.17703830       0.00000000 NULL       0.05671200       0.09046300       0.22464000
P        9.39812368       5.60361869       4.84420888       0.00000000 NULL      -0.07935800      -0.08451100       0.18832000
P        9.39812368       2.41663612       2.43077169       0.00000000 NULL      -0.07935900      -0.12083500      -0.16734800
P        9.39812368       6.10022532       0.87748242       0.00000000 NULL      -0.07935900       0.20534600      -0.02097300
P        8.33033124       0.10767629       6.89301846       0.00000000 NULL       0.23845900       0.15316200       0.08941800
P        8.33033124      -1.31654053       4.79920417       0.00000000 NULL       0.23845900      -0.15401900       0.08793300
P        8.33033124       1.20886425       4.61270337       0.00000000 NULL       0.23845900       0.00085700      -0.17735100
P        2.28300224       6.26788766       4.11104687       0.00000000 NULL      -0.36711200      -0.22519900       0.13992100
P        2.28300224       2.71943857       3.37262650       0.00000000 NULL      -0.36711100      -0.00857700      -0.26498700
P        2.28300224       5.13315390       0.66878963       0.00000000 NULL      -0.36711100       0.23377500       0.12506600
P        6.51259371       3.25093586       6.72369098       0.00000000 NULL       0.20907700       0.31417300       0.00487700
P        6.51259371      -2.74152842       7.60601055       0.00000000 NULL       0.20907700      -0.16131000       0.26964300
P        6.51259371      -0.50940744       1.97522447       0.00000000 NULL       0.20907700      -0.15286300      -0.27452100
P        0.44686022      -0.41886412       4.26847486       0.00000000 NULL      -0.04841900      -0.32788600      -1.43904900
P        0.44686022       1.21965111       5.65547860       0.00000000 NULL      -0.04841900       1.41019600       0.43556600
P        0.44686022      -0.80078698       6.38097254       0.00000000 NULL      -0.04841900      -1.08231000       1.00348200
P        4.29555898       3.51269314       3.11547114       0.00000000 NULL       0.51406200       0.04267400       0.21488900
P        4.29555898       4.95922969       1.48434592       0.00000000 NULL       0.51406200      -0.20743700      -0.07048800
P        4.29555898       5.64855730       3.55264594       0.00000000 NULL       0.51406200       0.16476200      -0.14440200
P        7.38707511       1.45791672       2.57328101       0.00000000 NULL      -0.47800900       0.09887800       0.00725100
P        7.38707511       1.74934163       8.12841541       0.00000000 NULL      -0.47800900      -0.05571800       0.08200500
P        7.38707511      -3.20725834       5.60322958       0.00000000 NULL      -0.47801000      -0.04315900      -0.08925600
P        6.49249877      -1.74239406       3.75188436       0.00000000 NULL      -0.27105100       0.32554800      -0.01858200
P        6.49249877       2.32879657       4.76756330       0.00000000 NULL      -0.27105100      -0.14668100       0.29122400
P        6.49249877      -0.58640251       7.78547834       0.00000000 NULL      -0.27105100      -0.17886700      -0.27264100
36
Lattice="10.900031898438893 0.0 0.0 0.0 9.244297746908257 -5.216417890600526e-14 0.0 -4.622148873454083 8.00579668896983" Properties=species:S:1:pos:R:3:initial_magmoms:R:1:castep_labels:S:1:forces:R:3 n_minim_iter=5 energy=-185.415720902014 stress="-0.0049600758540053426 0.0 -0.0 0.0 0.0036875908583198845 -0.0 -0.0 -0.0 0.0036875908583198845" free_energy=-185.415720902014 pbc="T T T"
P        2.55902999      -1.09457932       7.03681327       0.00000000 NULL       0.35179600       0.24196200      -0.24846900
P        2.55902999      -0.92462051       3.53945656       0.00000000 NULL       0.35179600       0.09420000       0.33378000
P        2.55902999       2.01919984       5.43532356       0.00000000 NULL       0.35179600      -0.33616200      -0.08531000
P       10.06541460       5.42650197       6.91274456       0.00000000 NULL      -0.06282800       0.44780300       0.19880900
P       10.06541460       0.54443437       1.24311628       0.00000000 NULL      -0.06282800      -0.39607500       0.28840400
P       10.06541460       7.89551029      -0.15006414       0.00000000 NULL      -0.06282800      -0.05172900      -0.48721200
P        3.25162019       0.86137223       2.35043173       0.00000000 NULL       0.13277900       0.10527100      -0.29905600
P        3.25162019       2.15592917       7.57655106       0.00000000 NULL       0.13277900       0.20635400       0.24069600
P        3.25162019      -3.01730140       6.08461059       0.00000000 NULL       0.13277900      -0.31162600       0.05836100
P        1.42695087       3.36191725       7.81051798       0.00000000 NULL      -0.10913000       0.19992500       0.03627700
P        1.42695087      -3.82291674       7.01204344       0.00000000 NULL      -0.10913000      -0.13137900       0.15500300
P        1.42695087       0.46099949       1.18903195       0.00000000 NULL      -0.10913000      -0.06854600      -0.19127900
P        9.55175449       5.48808241       4.74112249       0.00000000 NULL      -0.13109700       0.00719100       0.19568600
P        9.55175449       2.39432403       2.38225753       0.00000000 NULL      -0.13109700      -0.17306400      -0.09161600
P        9.55175449       5.98404019       0.88241667       0.00000000 NULL      -0.13109700       0.16587500      -0.10407100
P        8.51971696       0.10122725       6.81273678       0.00000000 NULL       0.30245400       0.11845100       0.09280300
P        8.51971696      -1.32846787       4.68709366       0.00000000 NULL       0.30245300      -0.13959600       0.05618100
P        8.51971696       1.22724063       4.51176294       0.00000000 NULL       0.30245400       0.02114300      -0.14898300
P        2.33040867       6.04749261       4.01873144       0.00000000 NULL       0.05399300       0.07254600       0.07221400
P        2.33040867       2.74022793       3.22791650       0.00000000 NULL       0.05399200      -0.09881100       0.02671900
P        2.33040867       5.07872609       0.75914874       0.00000000 NULL       0.05399300       0.02626700      -0.09893400
P        6.70266165       3.24409564       6.61233960       0.00000000 NULL       0.15048000       0.40985300       0.05071800
P        6.70266165      -2.72635302       7.50909612       0.00000000 NULL       0.15047900      -0.24885000       0.32958500
P        6.70266165      -0.51774262       1.89015766       0.00000000 NULL       0.15047900      -0.16100500      -0.38030300
P        0.52275021      -0.38898364       4.09535160       0.00000000 NULL      -0.25714300      -0.04180200       0.01283700
P        0.52275021       1.26996218       5.62125118       0.00000000 NULL      -0.25714400       0.00978400      -0.04262000
P        0.52275021      -0.88097853       6.29499061       0.00000000 NULL      -0.25714400       0.03201800       0.02978300
P        4.43945883       3.44904223       3.13559901       0.00000000 NULL       0.10400700       0.02569900       0.02785500
P        4.43945883       4.80426824       1.41915868       0.00000000 NULL       0.10400600      -0.03697200       0.00832800
P        4.43945883       5.61313616       3.45103900       0.00000000 NULL       0.10400600       0.01127300      -0.03618400
P        7.51696308       1.46496363       2.49620802       0.00000000 NULL      -0.46941500       0.17793600      -0.08917200
P        7.51696308       1.72788750       8.02638840       0.00000000 NULL      -0.46941500      -0.01174200       0.19868100
P        7.51696308      -3.19285113       5.48899696       0.00000000 NULL      -0.46941500      -0.16619200      -0.10951100
P        6.60953138      -1.67414004       3.70533527       0.00000000 NULL      -0.06589400       0.32618800       0.06113500
P        6.60953138       2.25030442       4.70328125       0.00000000 NULL      -0.06589400      -0.21603900       0.25192000
P        6.60953138      -0.57616438       7.60297686       0.00000000 NULL      -0.06589400      -0.11014900      -0.31305500
36
Lattice="11.267686975218744 0.0 0.0 0.0 9.006875407846321 -6.83486204629507e-14 0.0 -4.503437703923101 7.800182911916282" Properties=species:S:1:pos:R:3:initial_magmoms:R:1:castep_labels:S:1:forces:R:3 n_minim_iter=6 energy=-186.227510055655 stress="0.007092126915715923 0.0 0.0 0.0 0.0032683714503614295 -1.2632412487047954e-08 0.0 -1.2632412487047954e-08 0.003268396715186404" free_energy=-186.227510055655 pbc="T T T"
P        2.69679319      -0.96352553       6.82797677       0.00000000 NULL      -0.09003500       0.01305400      -0.64576000
P        2.69679319      -0.92800087       3.55175694       0.00000000 NULL      -0.09003600       0.55271900       0.33418500
P        2.69679319       1.89152640       5.22063212       0.00000000 NULL      -0.09003500      -0.56577200       0.31157500
P       10.44228483       5.42513578       6.78701815       0.00000000 NULL      -0.30352100       0.36290800       0.15634800
P       10.44228483       0.41657739       1.30479633       0.00000000 NULL      -0.30352100      -0.31685400       0.23611300
P       10.44228483       7.66859995      -0.29163156       0.00000000 NULL      -0.30352200      -0.04605400      -0.39246100
P        3.35822770       0.82357143       2.23060206       0.00000000 NULL      -0.08348400      -0.11559500      -0.46287800
P        3.35822770       2.15989395       7.39811566       0.00000000 NULL      -0.08348400       0.45866000       0.13133100
P        3.35822770      -2.98346537       5.97164811       0.00000000 NULL      -0.08348400      -0.34306600       0.33154700
P        1.42279201       3.26195579       7.60304136       0.00000000 NULL       0.11970400      -0.38145700      -0.00733900
P        1.42279201      -3.71196715       6.82359881       0.00000000 NULL       0.11970300       0.19708200      -0.32667600
P        1.42279201       0.45001137       1.17372566       0.00000000 NULL       0.11970300       0.18437400       0.33401500
P        9.77552094       5.34582388       4.61387395       0.00000000 NULL      -0.36983300       0.17566400       0.22082900
P        9.77552094       2.33823142       2.32268231       0.00000000 NULL      -0.36983400      -0.27907600       0.04171600
P        9.77552094       5.82625782       0.86362665       0.00000000 NULL      -0.36983400       0.10341200      -0.26254600
P        8.85328070       0.09684792       6.69850434       0.00000000 NULL      -0.08038500       0.05563800       0.15347700
P        8.85328070      -1.34606117       4.53480350       0.00000000 NULL      -0.08038500      -0.16073300      -0.02855500
P        8.85328070       1.24921326       4.36705799       0.00000000 NULL      -0.08038600       0.10509700      -0.12492200
P        2.45286359       5.81522425       3.89518191       0.00000000 NULL       0.14318100       0.36936000       0.10743500
P        2.45286359       2.72593680       3.08854098       0.00000000 NULL       0.14318200      -0.27772200       0.26615900
P        2.45286359       4.96915207       0.81646003       0.00000000 NULL       0.14318200      -0.09163800      -0.37359500
P        6.97967851       3.27419435       6.47065898       0.00000000 NULL       0.08528400      -0.15233100      -0.21780400
P        6.97967851      -2.73741453       7.40038890       0.00000000 NULL       0.08528300       0.26479000      -0.02301900
P        6.97967851      -0.53677982       1.72931794       0.00000000 NULL       0.08528300      -0.11245900       0.24082400
P        0.56212609      -0.36193334       3.96464397       0.00000000 NULL       0.15917700      -0.47967800      -0.18958900
P        0.56212609       1.25092198       5.50441746       0.00000000 NULL       0.15917700       0.40402800      -0.32061900
P        0.56212609      -0.88898864       6.13130440       0.00000000 NULL       0.15917700       0.07565000       0.51020800
P        4.60714865       3.33459884       3.12612449       0.00000000 NULL       0.09507600       0.36950700      -0.16786500
P        4.60714865       4.63227276       1.32478506       0.00000000 NULL       0.09507500      -0.03937800       0.40393400
P        4.60714865       5.54344151       3.34927336       0.00000000 NULL       0.09507600      -0.33012900      -0.23607000
P        7.67072560       1.49518807       2.37207944       0.00000000 NULL      -0.01467100       0.19503900      -0.14971100
P        7.67072560       1.70156262       7.90901405       0.00000000 NULL      -0.01467200       0.03213600       0.24376400
P        7.67072560      -3.19675068       5.31927234       0.00000000 NULL      -0.01467200      -0.22717500      -0.09405300
P        6.81653044      -1.56512668       3.65751569       0.00000000 NULL       0.33950900       0.27611500      -0.01380300
P        6.81653044       2.11849955       4.61598560       0.00000000 NULL       0.33951000      -0.12610400       0.24602400
P        6.81653044      -0.55337286       7.32686454       0.00000000 NULL       0.33951000      -0.15001100      -0.23222100
36