30
Lattice="5.28581376638059 5.858262036980077e-18 0.6142543233930539 -1.2046094913933647e-16 10.548808889180535 4.7373925497842705e-17 0.9060635707277033 2.6816437696673403e-17 10.398649175831727" Properties=species:S:1:pos:R:3:initial_magmoms:R:1:castep_labels:S:1:forces:R:3 n_minim_iter=4 energy=-160.020324828989 stress="1.4635478998461906e-06 0.0 6.159097411852719e-05 0.0 -7.627872268484074e-05 0.0 6.159097411852719e-05 0.0 0.00010018333838232852" free_energy=-160.020324828989 pbc="T T T"
P        5.26896571       7.38472907      10.66883143       0.00000000 NULL      -0.00040200      -0.00220600       0.00059100
P        2.62605883       3.16407982      10.36170427       0.00000000 NULL      -0.00040400       0.00220600       0.00059300
P        0.97668928       8.42581288       0.51309712       0.00000000 NULL      -0.00316000       0.00176800      -0.00553000
P        3.61959616       2.12299601       0.82022428       0.00000000 NULL      -0.00315900      -0.00176800      -0.00553100
P        1.48254686       4.52712474       7.53537003       0.00000000 NULL       0.00548800       0.00068000       0.00349300
P        4.12545374       6.02168415       7.84249719       0.00000000 NULL       0.00549000      -0.00068000       0.00349200
P        3.48775763       3.80554125       8.37042492       0.00000000 NULL       0.00043100      -0.00045200       0.00277400
P        0.84485075       6.74326764       8.06329776       0.00000000 NULL       0.00043000       0.00045200       0.00277600
P        3.75204909       9.21223219       8.15503275       0.00000000 NULL      -0.00418100      -0.00063900      -0.00571300
P        6.39495597       1.33657670       8.46215991       0.00000000 NULL      -0.00418300       0.00063800      -0.00571100
P        3.12175922       6.82718596       9.80655572       0.00000000 NULL       0.00190300       0.00165300       0.00155200
P        0.47885234       3.72162293       9.49942856       0.00000000 NULL       0.00190400      -0.00165300       0.00155100
P        5.12448723       1.22898944       4.09198565       0.00000000 NULL       0.00448400      -0.00386300       0.00464900
P        2.48158035       9.31981945       3.78485849       0.00000000 NULL       0.00448400       0.00386300       0.00464900
P        1.27549039      -0.08992039       6.12843780       0.00000000 NULL      -0.00429700      -0.00355600       0.00113800
P        3.91839727      10.63872928       6.43556497       0.00000000 NULL      -0.00429800       0.00355600       0.00113700
P        5.53307186       2.87189506       7.07134548       0.00000000 NULL      -0.00271600       0.00292600       0.00266700
P        2.89016498       7.67691383       6.76421832       0.00000000 NULL      -0.00271700      -0.00292600       0.00266800
P        1.48739322       1.73218146       4.83896435       0.00000000 NULL      -0.00260100      -0.00205700      -0.00144900
P        4.13030011       8.81662742       5.14609151       0.00000000 NULL      -0.00260000       0.00205800      -0.00145000
P        0.98170046       6.11835232       4.19847065       0.00000000 NULL      -0.00402100      -0.00005100      -0.00393000
P        3.62460734       4.43045657       4.50559781       0.00000000 NULL      -0.00402100       0.00005100      -0.00393000
P        1.95525935       5.13396123       1.04369976       0.00000000 NULL       0.00083200       0.00085900       0.00367400
P        4.59816624       5.41484766       1.35082693       0.00000000 NULL       0.00083200      -0.00085900       0.00367300
P       -0.34727165       3.20845469       2.58405242       0.00000000 NULL       0.00353100      -0.00442100       0.00115000
P        2.29563523       7.34035420       2.89117958       0.00000000 NULL       0.00353100       0.00442100       0.00115000
P        1.66712947       4.20029706       3.25705409       0.00000000 NULL       0.00463700      -0.00179600      -0.00243700
P        4.31003635       6.34851183       3.56418125       0.00000000 NULL       0.00463800       0.00179600      -0.00243700
P        4.91558737      10.98304155       9.86089387       0.00000000 NULL       0.00007400      -0.00667700      -0.00263100
P        2.27268049      -0.43423267       9.55376671       0.00000000 NULL       0.00007300       0.00667800      -0.00263000
