27
Lattice="8.120357112285008 1.2376478627022631 1.4279810087278948 0.21781684274539825 8.211243979209565 1.4279810087280078 0.21781684274553761 0.2468319561990591 8.330830176686598" Properties=species:S:1:pos:R:3:initial_magmoms:R:1:castep_labels:S:1:forces:R:3 n_minim_iter=5 energy=-141.766395923173 stress="1.1089129158244507e-05 4.413765224169688e-06 5.088597097286542e-06 4.413765224169688e-06 1.2201689813923643e-05 5.763428970403395e-06 5.088597097286542e-06 5.763428970403395e-06 1.3843172748532206e-05" free_energy=-141.766395923173 pbc="T T T"
P        5.71261873       4.15781648       8.21733418       0.00000000 NULL      -0.00137500       0.00615100      -0.00117500
P        6.77394221       6.60665776       5.28316306       0.00000000 NULL      -0.00185000      -0.00161700       0.00592100
P        3.41483572       7.25512789       7.29027078       0.00000000 NULL       0.00627400      -0.00107800      -0.00076000
P        7.03430225       4.68010067       4.06654883       0.00000000 NULL       0.00174700      -0.00116200       0.00044900
P        2.45913004       7.39770056       5.21040072       0.00000000 NULL       0.00038800       0.00180900      -0.00108700
P        3.76863796       2.95089307       8.06295032       0.00000000 NULL      -0.00137000       0.00021900       0.00163700
P        0.94819157       5.65836095       3.39466432       0.00000000 NULL       0.00214600      -0.00270900       0.00036500
P        2.41846096       1.25884052       6.08327452       0.00000000 NULL       0.00047300       0.00222200      -0.00263000
P        5.49644366       3.12653685       2.11038769       0.00000000 NULL      -0.00295500       0.00010600       0.00182600
P        3.21533058       5.39400392       4.24256716       0.00000000 NULL      -0.00017800      -0.00392900       0.00314700
P        3.00646570       3.61745345       5.94207032       0.00000000 NULL       0.00366700       0.00028100      -0.00344200
P        4.95209595       3.65089528       4.42501011       0.00000000 NULL      -0.00387700       0.00321000      -0.00021100
P        2.07627272       7.61142799       2.83157837       0.00000000 NULL      -0.00686700       0.00266100      -0.00151800
P        1.44973997       2.27429614       7.93652390       0.00000000 NULL      -0.00101200      -0.00704700       0.00241800
P        7.29399885       2.37560783       3.37885316       0.00000000 NULL       0.00349500      -0.00058200      -0.00663200
P        1.04821294       4.23428030       6.86333827       0.00000000 NULL       0.00402400      -0.00228800       0.00109900
P        6.01359202       1.81040044       5.16647399       0.00000000 NULL       0.00090100       0.00416900      -0.00210900
P        4.07098282       6.57109200       2.52609206       0.00000000 NULL      -0.00277100       0.00056100       0.00382700
P        4.02206213       1.52891313       1.77471687       0.00000000 NULL       0.00160400      -0.00038500      -0.00098800
P        1.02715704       4.18233661       1.76555599       0.00000000 NULL      -0.00111700       0.00147600      -0.00052000
P        1.01666946       1.16266843       4.39075898       0.00000000 NULL      -0.00058100      -0.00119900       0.00138800
P        3.11822131       4.45792883       1.04885533       0.00000000 NULL      -0.00357600       0.00626600       0.00064600
P        0.01375899       3.14436005       4.56172573       0.00000000 NULL       0.00019600      -0.00357900       0.00629500
P        4.03537370       0.51981952       3.76059541       0.00000000 NULL       0.00666300       0.00103400      -0.00265000
P        7.11116758       2.71086759       7.02304635       0.00000000 NULL      -0.00053700       0.00117200      -0.00472800
P        5.63095403       7.87284914       3.68120775       0.00000000 NULL      -0.00474200      -0.00113500       0.00048900
P        1.80514045       5.90136820       8.31600918       0.00000000 NULL       0.00123000      -0.00462500      -0.00105500
