6
Lattice="3.5031890863790083 0.002295199087428875 -0.25592257472191243 1.7305544417769936 6.054516237735481 -0.3487948181284516 0.3240959574786859 2.331341191550208 4.471290561288291" Properties=species:S:1:pos:R:3:initial_magmoms:R:1:castep_labels:S:1:forces:R:3 n_minim_iter=5 energy=-33.48780256766 stress="0.0001115950946448277 -0.00010057971168634378 2.944298622548037e-05 -0.00010057971168634378 2.470740102837514e-06 -5.0444277099599234e-05 2.944298622548037e-05 -5.0444277099599234e-05 -6.4856927699484735e-06" free_energy=-33.48780256766 pbc="T T T"
P        3.80147764       5.22195724       1.22529192       0.00000000 NULL      -0.00149000       0.00342900      -0.00373100
P        3.96526059       6.72023595       3.49503908       0.00000000 NULL       0.00077100       0.00220500      -0.00092400
P        0.42911509       2.03047825       3.25431576       0.00000000 NULL       0.00605500      -0.00361000      -0.00072000
P        1.94495195       2.40677622      -0.12257851       0.00000000 NULL      -0.00077300      -0.00220700       0.00092300
P        2.10873490       3.90505493       2.14716864       0.00000000 NULL       0.00148900      -0.00342900       0.00373000
P        0.24735392       1.03972248       0.72286220       0.00000000 NULL      -0.00605300       0.00361200       0.00072200
