9
Lattice="5.229793789294814 -0.8523422854540178 -0.7147175422350776 0.27086197611197843 5.291867745892448 -0.7147175422346528 0.2708619761123314 0.21861005132801295 5.335437662521514" Properties=species:S:1:pos:R:3:initial_magmoms:R:1:castep_labels:S:1:forces:R:3 n_minim_iter=17 energy=-47.799592913497 stress="5.0644218469628976e-05 5.899653722247354e-05 4.938474183229527e-05 5.899653722247354e-05 2.5189532746674096e-05 3.990552293025739e-05 4.938474183229527e-05 3.990552293025739e-05 1.1070136759722564e-05" free_energy=-47.799592913497 pbc="T T T"
P        2.15037975       4.27171090       1.00634282       0.00000000 NULL      -0.00667700      -0.00019300       0.00127900
P        4.62938781       1.20013126       1.00639281       0.00000000 NULL      -0.00159800       0.00012900      -0.00660900
P        2.15033878       1.73555931       4.03091180       0.00000000 NULL      -0.00021200      -0.00678500      -0.00041200
P        2.80117475      -0.42165156       3.74808307       0.00000000 NULL      -0.00266500       0.00450200      -0.00003000
P        0.17917153       4.18347200       2.13048263       0.00000000 NULL       0.00383900      -0.00064900      -0.00349700
P        4.12702012       1.97446544      -1.06849792       0.00000000 NULL       0.00017600      -0.00276400       0.00444000
P        5.13240057       0.42564429       3.07938065       0.00000000 NULL       0.00099200       0.00072100       0.00509200
P        1.49948965       3.89101194       4.31472487       0.00000000 NULL       0.00091300       0.00515600      -0.00008200
P        4.11986658       4.36098150      -0.11761575       0.00000000 NULL       0.00523200      -0.00011600      -0.00018000
