39
Lattice="14.796465477321354 -4.073608969535679e-41 -9.99356742702594e-40 2.1571457007052632e-41 7.688547939927723 -1.1881670002125843e-13 4.3787561958962496e-40 -3.8442739699637576 6.658477834191982" Properties=species:S:1:pos:R:3:initial_magmoms:R:1:castep_labels:S:1:forces:R:3 n_minim_iter=15 energy=-211.037691734131 stress="1.673948078496378e-05 0.0 0.0 0.0 2.810595787948571e-05 -0.0 0.0 -0.0 2.8132360846023507e-05" free_energy=-211.037691734131 pbc="T T T"
P        2.65254784       1.96858590       5.91740273       0.00000000 NULL      -0.00444300      -0.00315200       0.00063200
P        7.58470300       0.29605417       1.99493107       0.00000000 NULL      -0.00444400       0.00212300       0.00241400
P       12.51685816      -2.26464006       5.40462186       0.00000000 NULL      -0.00444400       0.00102800      -0.00304500
P       12.51436513       0.69154696       4.01876529       0.00000000 NULL       0.00402100      -0.00008600      -0.00024200
P        2.65005481      -0.70969461       4.05019795       0.00000000 NULL       0.00402200      -0.00016800       0.00019600
P        7.58220997       0.01814766       5.24799242       0.00000000 NULL       0.00402200       0.00025300       0.00004800
P       10.72321001       3.61449749       3.06907087       0.00000000 NULL       0.00011500      -0.00282000       0.00046800
P       15.65536517       4.69491856       1.99369575       0.00000000 NULL       0.00011800       0.00181300       0.00220700
P        5.79105485       3.22340586       1.59571121       0.00000000 NULL       0.00011500       0.00100500      -0.00267700
P        0.76188787       1.04364121       6.48426602       0.00000000 NULL       0.00436500       0.00211600       0.00318900
P        5.69404303       1.24944453       2.51252502       0.00000000 NULL       0.00436400       0.00170300      -0.00342700
P       10.62619818      -2.29308573       4.32016462       0.00000000 NULL       0.00436400      -0.00382000       0.00023800
P        2.87063662       5.20714106       2.75322185       0.00000000 NULL       0.00165600       0.00075600      -0.00266400
P        7.80279178       3.62506350       0.77235047       0.00000000 NULL       0.00165500      -0.00268500       0.00067700
P       12.73494694       2.70061735       3.13290552       0.00000000 NULL       0.00165500       0.00192900       0.00198600
P       13.89692101      -3.77587434       4.54818773       0.00000000 NULL      -0.00235100       0.00228600      -0.00207000
P        4.03261069       1.98250932       7.65438707       0.00000000 NULL      -0.00235200      -0.00293600      -0.00094500
P        8.96476585       1.79336502       1.11438086       0.00000000 NULL      -0.00235100       0.00065100       0.00301400
P        7.27112509       6.94151056       0.08877217       0.00000000 NULL       0.00158400       0.00147800       0.00198100
P       12.20328025       0.45039764       0.60256726       0.00000000 NULL       0.00158400       0.00097800      -0.00227100
P        2.33896994       4.14091371       5.96713840       0.00000000 NULL       0.00158400      -0.00245400       0.00028900
P        8.94390445      -3.35216296       5.76278427       0.00000000 NULL      -0.00183200      -0.00091400      -0.00803600
P       -0.92040586       2.82252509       6.68014398       0.00000000 NULL      -0.00183300      -0.00650300       0.00481000
P        4.01174930       0.52963787       0.87402741       0.00000000 NULL      -0.00183200       0.00741700       0.00322600
P       10.30425203      -0.65441584       0.63864496       0.00000000 NULL      -0.00107500      -0.00017100       0.00012200
P        0.43994171      -2.96398329       6.90589610       0.00000000 NULL      -0.00107400       0.00019200       0.00008700
P        5.37209687       3.61839913       5.77241461       0.00000000 NULL      -0.00107500      -0.00002000      -0.00020900
P        2.78527552       1.09254433       2.80288256       0.00000000 NULL       0.00146200      -0.00003900       0.00174600
P        7.71743068      -1.96317863       4.31086541       0.00000000 NULL       0.00146200       0.00153200      -0.00083900
P       12.64958584       0.87063431       6.20320769       0.00000000 NULL       0.00146100      -0.00149300      -0.00090700
P        9.63861299       0.78334407       4.65479133       0.00000000 NULL      -0.00209600      -0.00262200       0.00063100
P       14.57076815      -0.20477846       3.65268630       0.00000000 NULL      -0.00209700       0.00185600       0.00195700
P        4.70645784      -0.57856561       5.00947803       0.00000000 NULL      -0.00209600       0.00076600      -0.00258400
P       10.53043689       1.10370092       6.67954480       0.00000000 NULL      -0.00046500      -0.00106200       0.00052700
P        0.66612657       1.38853106       2.36287240       0.00000000 NULL      -0.00046300       0.00098900       0.00065500
P        5.59828173      -2.49223197       4.27453846       0.00000000 NULL      -0.00046500       0.00007400      -0.00118400
P       13.88328370       5.92392045       2.28139617       0.00000000 NULL      -0.00094300       0.00220800      -0.00029700
P        4.01897338       2.85806079       0.38751415       0.00000000 NULL      -0.00094000      -0.00136000      -0.00176300
P        8.95112854       2.75084068       3.98956752       0.00000000 NULL      -0.00094000      -0.00084600       0.00205900
