16
Lattice="5.528142017619218 0.3247025570724572 0.0 -0.3083471697057613 5.517684817765844 0.0 0.0 0.0 10.01570721241489" Properties=species:S:1:pos:R:3:initial_magmoms:R:1:castep_labels:S:1:forces:R:3 n_minim_iter=19 energy=-85.894939984619 stress="0.0001330473804434258 -6.322850007340834e-05 0.0 -6.322850007340834e-05 0.00012818615933355074 -0.0 0.0 -0.0 0.00013396089850434192" free_energy=-85.894939984619 pbc="T T T"
P        2.13779372       1.12160755       6.30454661       0.00000000 NULL      -0.00525600      -0.00183000       0.00159000
P        2.13779372       1.12160755       3.71116060       0.00000000 NULL      -0.00525600      -0.00183000      -0.00159000
P        0.85844917       3.14083026       6.42200245       0.00000000 NULL       0.00620100      -0.00665000       0.00236400
P        0.85844917       3.14083026       3.59370476       0.00000000 NULL       0.00620100      -0.00665000      -0.00236400
P        2.40100426       5.95573779       8.38337948       0.00000000 NULL       0.00272100       0.00271500      -0.00316200
P        2.40100426       5.95573779       1.63232773       0.00000000 NULL       0.00272100       0.00271500       0.00316200
P        0.33661470       5.22288226       8.88513802       0.00000000 NULL      -0.00128100      -0.00964800       0.00122500
P        0.33661470       5.22288226       1.13056919       0.00000000 NULL      -0.00128100      -0.00964800      -0.00122500
P        3.32510697      -0.91966892       6.64678563       0.00000000 NULL      -0.00480700       0.00042000       0.00348000
P        3.32510697      -0.91966892       3.36892158       0.00000000 NULL      -0.00480700       0.00042000      -0.00348000
P       -0.21823633      -0.14571852       6.14518816       0.00000000 NULL      -0.00524800       0.00238100      -0.00075000
P       -0.21823633      -0.14571852       3.87051906       0.00000000 NULL      -0.00524800       0.00238100       0.00075000
P        4.21422102       2.32078471       3.87941298       0.00000000 NULL       0.00573200       0.00344600       0.00476900
P        4.21422102       2.32078471       6.13629423       0.00000000 NULL       0.00573200       0.00344600      -0.00476900
P        0.60503927       3.06080619       8.61160647       0.00000000 NULL       0.00193900       0.00916700       0.00261100
P        0.60503927       3.06080619       1.40410074       0.00000000 NULL       0.00193900       0.00916700      -0.00261100
