20
Lattice="5.16275808212262 -1.5151602369884265 0.0 -1.961569394204686 5.010192318663301 0.0 0.0 0.0 14.457978302962301" Properties=species:S:1:pos:R:3:initial_magmoms:R:1:castep_labels:S:1:forces:R:3 n_minim_iter=12 energy=-107.292562751782 stress="-2.8700425534066225e-05 5.6494521840740885e-05 -0.0 5.6494521840740885e-05 -1.8821436955498167e-05 -0.0 -0.0 -0.0 -3.728034222003971e-05" free_energy=-107.292562751782 pbc="T T T"
P       -0.40226568       5.05729822      11.69373314       0.00000000 NULL      -0.00017700      -0.00291400       0.00061400
P        3.60345437      -1.56226614       4.46474399       0.00000000 NULL       0.00017700       0.00291400       0.00061400
P       -1.87190659       3.45275608       4.46474399       0.00000000 NULL       0.00288700       0.00043000       0.00061400
P        5.07309528       0.04227599      11.69373314       0.00000000 NULL      -0.00288700      -0.00043000       0.00061300
P       -0.40399653       5.05541315       0.42371352       0.00000000 NULL       0.00211300      -0.00103200      -0.00278000
P        3.60518522      -1.56038107       7.65270267       0.00000000 NULL      -0.00211200       0.00103200      -0.00278100
P       -1.87018038       3.45464541       7.65270267       0.00000000 NULL       0.00121400      -0.00201500      -0.00278000
P        5.07136907       0.04038667       0.42371352       0.00000000 NULL      -0.00121400       0.00201600      -0.00278000
P       -1.00163712       4.12698573       2.44300230       0.00000000 NULL       0.00108000       0.00365400       0.00201200
P        4.20282581      -0.63195365       9.67199145       0.00000000 NULL      -0.00108000      -0.00365400       0.00201200
P       -0.99767219       4.13131461       9.67199145       0.00000000 NULL      -0.00354600      -0.00139600       0.00201100
P        4.19886088      -0.63628253       2.44300230       0.00000000 NULL       0.00354600       0.00139600       0.00201100
P        3.63512928       2.30516573      13.28685742       0.00000000 NULL      -0.00422400      -0.00106900      -0.00654700
P       -0.43394059       1.18986635       6.05786827       0.00000000 NULL       0.00422400       0.00106800      -0.00654700
P        1.22330383      -0.32804592       6.05786827       0.00000000 NULL       0.00069200       0.00430100      -0.00654700
P        1.97788487       3.82307800      13.28685742       0.00000000 NULL      -0.00069300      -0.00430200      -0.00654700
P        2.54754223       0.88292939       9.67172079       0.00000000 NULL       0.00276500      -0.00228600       0.00670200
P        0.65364646       2.61210269       2.44273164       0.00000000 NULL      -0.00276500       0.00228600       0.00670200
P        2.54480581       0.87994179       2.44273164       0.00000000 NULL       0.00252000      -0.00255400       0.00670200
P        0.65638288       2.61509029       9.67172079       0.00000000 NULL      -0.00252000       0.00255400       0.00670200
