18
Lattice="6.952168106569957 -1.409417528966217e-06 -1.4747549103018226e-15 3.4760851818771097 5.56695306863665 1.2209206252123352 3.4760844672457356 2.0419242043123194 9.796810388643204" Properties=species:S:1:pos:R:3:initial_magmoms:R:1:castep_labels:S:1:forces:R:3 n_minim_iter=6 energy=-98.288962114947 stress="0.00014219460759015115 2.7637435877580397e-08 -2.7637435877580397e-08 2.7637435877580397e-08 -0.000220519100867214 1.39569051181781e-05 -2.7637435877580397e-08 1.39569051181781e-05 4.369478612245461e-05" free_energy=-98.288962114947 pbc="T T T"
P        7.04364655       5.07220181       8.18727975       0.00000000 NULL      -0.00540900      -0.00047800      -0.00371700
P        6.86069208       6.83471628       3.89933486       0.00000000 NULL       0.00541100      -0.00047600      -0.00371700
P        4.84080994       3.00939007       2.60797968       0.00000000 NULL      -0.00479400       0.00353800      -0.00341700
P        9.06352714       1.24687479       6.89592456       0.00000000 NULL       0.00479200       0.00354100      -0.00341800
P       13.52638023       7.17938495      10.09639916       0.00000000 NULL       0.00164500      -0.00729300      -0.00301100
P        3.85404218       3.37494757       4.58753365       0.00000000 NULL      -0.00164500      -0.00729200      -0.00301100
P        9.05430425       3.36591476       9.88262970       0.00000000 NULL       0.00067400       0.00844000       0.00468000
P        4.85003369       5.12843005       5.59468482       0.00000000 NULL      -0.00067800       0.00843800       0.00468300
P        4.78127405       2.62492783       7.83446215       0.00000000 NULL      -0.00215800      -0.00598200       0.00506600
P        9.12306359       4.38744138       3.54651727       0.00000000 NULL       0.00215800      -0.00598100       0.00506800
P        8.24566528       5.61809561       5.21143124       0.00000000 NULL       0.00406500      -0.00009100       0.00555600
P        2.18258839       1.81365750      -0.29743427       0.00000000 NULL      -0.00406500      -0.00009100       0.00555400
P        6.92884538       0.58629111       1.71518187       0.00000000 NULL      -0.00590900       0.00326400      -0.00300700
P       10.45157590       4.39072974       7.22404738       0.00000000 NULL       0.00591100       0.00326600      -0.00300900
P        6.45645574       1.77509011       3.53465198       0.00000000 NULL       0.00026500       0.00519000      -0.00522800
P       10.92396602       5.57952854       9.04351748       0.00000000 NULL      -0.00026600       0.00519100      -0.00522800
P        3.65871001       0.26464890       0.69546210       0.00000000 NULL      -0.00157900      -0.00659200       0.00307800
P        6.76954303       4.06908761       6.20432761       0.00000000 NULL       0.00158100      -0.00659300       0.00307800
