48
Lattice="4.839972671115526 6.885559363126327e-39 -1.7090118451929358e-38 8.997707027169683e-39 14.470667564271775 -1.977539039479579e-13 -5.71984798674299e-38 -7.235333782135713 12.53196572037894" Properties=species:S:1:pos:R:3:initial_magmoms:R:1:castep_labels:S:1:forces:R:3 n_minim_iter=14 energy=-259.45495206855 stress="-8.85031015070189e-05 -0.0 1.1393293190913865e-08 -0.0 2.8733885427484767e-05 0.0 1.1393293190913865e-08 0.0 2.874527872067568e-05" free_energy=-259.45495206855 pbc="T T T"
P        2.68970232      -2.87079877       8.71551590       0.00000000 NULL      -0.00073600       0.00508400       0.00112400
P        4.30302655       1.12287499       5.68802311       0.00000000 NULL      -0.00073500      -0.00351600       0.00384100
P        1.07637810       1.74792377      10.66039244       0.00000000 NULL      -0.00073700      -0.00156900      -0.00496500
P        2.72168145      -4.47826444      11.75375679       0.00000000 NULL       0.00513100      -0.00001000       0.00535400
P       -0.50496699      -0.70458597       2.77679656       0.00000000 NULL       0.00513300      -0.00463300      -0.00268500
P        1.10835723       5.18285040      10.53337810       0.00000000 NULL       0.00512900       0.00464000      -0.00266800
P        4.51187059       8.09048763       5.59551890       0.00000000 NULL      -0.00531300       0.00214100      -0.00088500
P        1.28522214       5.57956224       4.20880837       0.00000000 NULL      -0.00531400      -0.00030400       0.00229700
P        2.89854636       8.03595147       2.72763846       0.00000000 NULL      -0.00531400      -0.00183700      -0.00141200
P        1.05083841       3.51616365       5.02524609       0.00000000 NULL      -0.00095200       0.00299500       0.00423100
P        2.66416264       8.36059497       0.53246401       0.00000000 NULL      -0.00095000      -0.00516100       0.00047700
P        4.27748686       9.82924272       6.97425563       0.00000000 NULL      -0.00094900       0.00216700      -0.00470900
P        1.38261077       0.50435061       3.30380862       0.00000000 NULL      -0.00083000      -0.00209000      -0.00206000
P        2.99593499       4.12197628      11.31684185       0.00000000 NULL      -0.00082800       0.00282800      -0.00077600
P        4.60925922      -4.62632690      10.44328097       0.00000000 NULL      -0.00082800      -0.00074200       0.00283800
P        1.05215417      -6.05674376      11.67987385       0.00000000 NULL      -0.00586700       0.00342500      -0.00298100
P        2.66547840       0.14863819       1.44673483       0.00000000 NULL      -0.00586700       0.00086800       0.00445600
P        4.27880262       5.90810557      11.93732276       0.00000000 NULL      -0.00586400      -0.00429500      -0.00147400
P        4.41982517       0.24948194      11.53336263       0.00000000 NULL       0.00394400       0.00445300      -0.00041900
P        1.19317673      -2.87759221       6.98134211       0.00000000 NULL       0.00394200      -0.00186400       0.00406600
P        2.80650095       2.62811027       6.54922671       0.00000000 NULL       0.00394200      -0.00259200      -0.00364600
P        2.85481497       5.36955622       2.63071397       0.00000000 NULL      -0.00120200       0.00503800      -0.00237500
P        4.46813920       9.50762432       3.33481511       0.00000000 NULL      -0.00120200      -0.00046300       0.00555100
P        1.24149075       6.82882080       6.56643664       0.00000000 NULL      -0.00120500      -0.00457500      -0.00317600
P        0.72043677       7.31303777       0.93808467       0.00000000 NULL       0.00450600       0.00506000      -0.00164500
P        2.33376099      10.00174352       5.86423416       0.00000000 NULL       0.00450600      -0.00110500       0.00520400
P        3.94708521       4.39122005       5.72964689       0.00000000 NULL       0.00450900      -0.00395300      -0.00356000
P        2.54028562      10.62094603       0.80956652       0.00000000 NULL      -0.00164300       0.00184900       0.00381400
P        4.15360984       8.45908937       8.79322582       0.00000000 NULL      -0.00164200      -0.00422700      -0.00030700
P        0.92696140       2.62596593       2.92917338       0.00000000 NULL      -0.00164400       0.00238200      -0.00350800
P        1.48494619       8.17846381       8.36188139       0.00000000 NULL       0.00483700      -0.00464000       0.00249600
P        3.09827041       3.13983395       2.90181673       0.00000000 NULL       0.00484000       0.00015900      -0.00526600
P        4.71159464      10.38770358       1.26826761       0.00000000 NULL       0.00484000       0.00448200       0.00277100
P        0.55554945      12.51171024       1.25956841       0.00000000 NULL      -0.00180000       0.00072200       0.00105100
P        2.16887367       7.12399421      10.20567471       0.00000000 NULL      -0.00179700      -0.00126900       0.00009800
P        3.78219790       2.07029690       1.06672261       0.00000000 NULL      -0.00179700       0.00055100      -0.00115100
P       -0.64690543      -1.29042733       8.04103907       0.00000000 NULL      -0.00007100       0.00350000       0.00140400
P        0.96641880       0.91680333       7.39390334       0.00000000 NULL      -0.00007300      -0.00296500       0.00232900
P        2.57974302       0.37362399       9.62898903       0.00000000 NULL      -0.00007100      -0.00053400      -0.00373300
P        1.37696195       5.20885945       0.95260759       0.00000000 NULL       0.00288100      -0.00099100       0.00399300
P        2.99028618      11.04125546       4.03470082       0.00000000 NULL       0.00288200      -0.00296200      -0.00285500
P        4.60361040       5.45588643       7.54465732       0.00000000 NULL       0.00288400       0.00395500      -0.00113900
P        4.78396070       2.36435599       8.79829392       0.00000000 NULL      -0.00388900      -0.00134200      -0.00653800
P        1.55731225      -1.56639026      10.18041111       0.00000000 NULL      -0.00389200       0.00633300       0.00210800
P        3.17063647      -0.79796574       6.08522641       0.00000000 NULL      -0.00389200      -0.00499200       0.00443100
P       -0.29340214      -2.02777726       4.77016850       0.00000000 NULL       0.00100000       0.00514100       0.00455500
P        1.31992208       4.11813531       8.39077486       0.00000000 NULL       0.00099700      -0.00651700       0.00217500
P        2.93324630      -2.09035806      11.90298809       0.00000000 NULL       0.00100000       0.00137400      -0.00673100
