52
Lattice="5.190959714786367 0.0 0.0 0.0 10.515004481023457 0.0 0.0 0.0 27.312794466959083" Properties=species:S:1:pos:R:3:initial_magmoms:R:1:castep_labels:S:1:forces:R:3 n_minim_iter=7 energy=-279.332850865399 stress="7.734033582984266e-06 0.0 -0.0 0.0 8.257237936386496e-06 -0.0 -0.0 -0.0 5.996726819764036e-06" free_energy=-279.332850865399 pbc="T T T"
P        1.41041348       1.42387563      15.97926854       0.00000000 NULL      -0.00071300       0.00119400       0.00017100
P        3.78054623       9.09112885      15.97926854       0.00000000 NULL       0.00071300      -0.00119400       0.00017100
P        1.18506637       6.68137787       2.32287130       0.00000000 NULL       0.00071300       0.00119400       0.00017000
P        4.00589334       3.83362661       2.32287130       0.00000000 NULL      -0.00071300      -0.00119400       0.00017000
P        3.91360054       3.24434437      24.25964980       0.00000000 NULL       0.00049600       0.00707100      -0.00213000
P        1.27735918       7.27066011      24.25964980       0.00000000 NULL      -0.00049600      -0.00707100      -0.00213000
P        3.87283904       8.50184661      10.60325257       0.00000000 NULL      -0.00049400       0.00707000      -0.00213000
P        1.31812068       2.01315787      10.60325257       0.00000000 NULL       0.00049400      -0.00707000      -0.00213000
P        1.23047606       8.94734142       2.08045892       0.00000000 NULL      -0.00298000       0.00218300       0.00204700
P        3.96048366       1.56766307       2.08045892       0.00000000 NULL       0.00298000      -0.00218300       0.00204700
P        1.36500380       3.68983917      15.73685616       0.00000000 NULL       0.00297800       0.00218400       0.00204600
P        3.82595592       6.82516531      15.73685616       0.00000000 NULL      -0.00297800      -0.00218400       0.00204600
P        4.68147559       3.21023905      10.90359589       0.00000000 NULL      -0.00002600       0.00139300      -0.00079500
P        0.50948412       7.30476543      10.90359589       0.00000000 NULL       0.00002700      -0.00139300      -0.00079500
P        3.10496398       8.46774129      24.55999312       0.00000000 NULL       0.00003300       0.00139300      -0.00079400
P        2.08599573       2.04726319      24.55999312       0.00000000 NULL      -0.00003300      -0.00139300      -0.00079400
P        3.61139348       3.76876400      15.44337567       0.00000000 NULL       0.00593500       0.00100600       0.00345500
P        1.57956624       6.74624049      15.44337567       0.00000000 NULL      -0.00593500      -0.00100600       0.00345500
P        4.17504609       9.02626624       1.78697844       0.00000000 NULL      -0.00593400       0.00100500       0.00345500
P        1.01591362       1.48873825       1.78697844       0.00000000 NULL       0.00593400      -0.00100500       0.00345500
P        1.43944849       8.98676480      15.89040270       0.00000000 NULL       0.00145200       0.00217200       0.00047500
P        3.75151122       1.52823968      15.89040270       0.00000000 NULL      -0.00145200      -0.00217200       0.00047500
P        1.15603137       3.72926256       2.23400547       0.00000000 NULL      -0.00145400       0.00217200       0.00047500
P        4.03492835       6.78574192       2.23400547       0.00000000 NULL       0.00145400      -0.00217200       0.00047500
P        1.37799834       1.09728593      13.75454776       0.00000000 NULL       0.00501400      -0.00095000      -0.00022700
P        3.81296137       9.41771856      13.75454776       0.00000000 NULL      -0.00501400       0.00095000      -0.00022700
P        1.21748151       6.35478817       0.09815052       0.00000000 NULL      -0.00501500      -0.00095500      -0.00022600
P        3.97347820       4.16021632       0.09815052       0.00000000 NULL       0.00501500       0.00095500      -0.00022600
P        1.41919258       9.39195306      13.68406627       0.00000000 NULL      -0.00101400      -0.00111800      -0.00155800
P        3.77176714       1.12305142      13.68406627       0.00000000 NULL       0.00101400       0.00111800      -0.00155800
P        1.17628728       4.13445082       0.02766904       0.00000000 NULL       0.00101300      -0.00111300      -0.00155800
P        4.01467243       6.38055366       0.02766904       0.00000000 NULL      -0.00101300       0.00111300      -0.00155800
P        1.16250415       4.01657133       9.70866967       0.00000000 NULL       0.00143900       0.00487300      -0.00102400
P        4.02845557       6.49843315       9.70866967       0.00000000 NULL      -0.00143900      -0.00487300      -0.00102400
P        1.43297571       9.27407357      23.36506690       0.00000000 NULL      -0.00144100       0.00487400      -0.00102500
P        3.75798401       1.24093091      23.36506690       0.00000000 NULL       0.00144100      -0.00487400      -0.00102500
P        3.96520272       1.45497018      25.53866861       0.00000000 NULL       0.00001700       0.00142700       0.00183500
P        1.22575699       9.06003430      25.53866861       0.00000000 NULL      -0.00001700      -0.00142700       0.00183500
P        3.82123685       6.71247242      11.88227138       0.00000000 NULL      -0.00001500       0.00142800       0.00183400
P        1.36972286       3.80253206      11.88227138       0.00000000 NULL       0.00001500      -0.00142800       0.00183400
P        5.07201153       9.39252983       3.78526010       0.00000000 NULL       0.00249200       0.00116200       0.00028100
P        0.11894819       1.12247465       3.78526010       0.00000000 NULL      -0.00249200      -0.00116200       0.00028100
P        2.71442804       4.13502759      17.44165734       0.00000000 NULL      -0.00249100       0.00116500       0.00028200
P        2.47653167       6.37997689      17.44165734       0.00000000 NULL       0.00249100      -0.00116500       0.00028200
P        0.89533282       9.86994245      19.08949240       0.00000000 NULL       0.00480000      -0.00134400      -0.00465000
P        4.29562689       0.64506204      19.08949240       0.00000000 NULL      -0.00480000       0.00134400      -0.00465000
P        1.70014703       4.61244020       5.43309517       0.00000000 NULL      -0.00480100      -0.00134000      -0.00464900
P        3.49081268       5.90256428       5.43309517       0.00000000 NULL       0.00480100       0.00134000      -0.00464900
P        3.24566371       4.36883468       6.98596370       0.00000000 NULL       0.00131200      -0.00639200       0.00211900
P        1.94529600       6.14616980       6.98596370       0.00000000 NULL      -0.00131200       0.00639200       0.00211900
P       -0.65018385       9.62633692      20.64236093       0.00000000 NULL      -0.00131000      -0.00639700       0.00212000
P        5.84114357       0.88866756      20.64236093       0.00000000 NULL       0.00131000       0.00639700       0.00212000
