32
Lattice="5.75467938052869 0.0 0.0 0.0 10.50343361559391 0.0 0.0 0.0 10.016450824184847" Properties=species:S:1:pos:R:3:initial_magmoms:R:1:castep_labels:S:1:forces:R:3 n_minim_iter=17 energy=-174.734038857638 stress="-3.319936464034318e-06 0.0 0.0 0.0 1.3692673277037063e-05 -0.0 0.0 -0.0 0.00010466884264967896" free_energy=-174.734038857638 pbc="T T T"
P        2.14951767       8.80795894       8.32383831       0.00000000 NULL      -0.00246400      -0.00022300      -0.00207100
P        3.60516172       1.69547467       3.31561289       0.00000000 NULL       0.00246400       0.00022300      -0.00207100
P        3.60516172       3.55624213       8.32383831       0.00000000 NULL       0.00246400      -0.00022500      -0.00207100
P        2.14951767       6.94719148       3.31561289       0.00000000 NULL      -0.00246400       0.00022500      -0.00207100
P        5.52304834       1.04354287       2.37517453       0.00000000 NULL      -0.00431200      -0.00182100       0.00470100
P        0.23163104       9.45989075       7.38339994       0.00000000 NULL       0.00431200       0.00182100       0.00470200
P        0.23163104       6.29525967       2.37517453       0.00000000 NULL       0.00431200      -0.00182000       0.00470100
P        5.52304834       4.20817394       7.38339994       0.00000000 NULL      -0.00431200       0.00182000       0.00470100
P        3.07967347       7.81123747       1.46530108       0.00000000 NULL      -0.00589600       0.00140600       0.00574500
P        2.67500591       2.69219615       6.47352649       0.00000000 NULL       0.00589600      -0.00140600       0.00574500
P        2.67500591       2.55952066       1.46530108       0.00000000 NULL       0.00589600       0.00140500       0.00574500
P        3.07967347       7.94391296       6.47352649       0.00000000 NULL      -0.00589600      -0.00140500       0.00574500
P        3.73856239       9.79739520       5.38590866       0.00000000 NULL       0.00538600      -0.00068400      -0.00455000
P        2.01611699       0.70603842       0.37768325       0.00000000 NULL      -0.00538600       0.00068400      -0.00455100
P        2.01611699       4.54567839       5.38590866       0.00000000 NULL      -0.00538600      -0.00068400      -0.00455000
P        3.73856239       5.95775522       0.37768325       0.00000000 NULL       0.00538600       0.00068400      -0.00455100
P        2.65227825      10.13905000       3.40248897       0.00000000 NULL       0.00170900      -0.00357100       0.00204500
P        3.10240113       0.36438362       8.41071438       0.00000000 NULL      -0.00171000       0.00357100       0.00204600
P        3.10240113       4.88733319       3.40248897       0.00000000 NULL      -0.00171000      -0.00357400       0.00204500
P        2.65227825       5.61610043       8.41071438       0.00000000 NULL       0.00171000       0.00357400       0.00204600
P        5.54411033       6.86411930       9.49117135       0.00000000 NULL      -0.00011300       0.00003300       0.00070400
P        0.21056905       3.63931431       4.48294594       0.00000000 NULL       0.00011300      -0.00003300       0.00070300
P        0.21056905       1.61240250       9.49117135       0.00000000 NULL       0.00011200       0.00003000       0.00070400
P        5.54411033       8.89103112       4.48294594       0.00000000 NULL      -0.00011200      -0.00003000       0.00070300
P        0.76954056       4.87336936       9.31323942       0.00000000 NULL       0.00331300       0.00170700      -0.00451200
P        4.98513882       5.63006425       4.30501400       0.00000000 NULL      -0.00331300      -0.00170700      -0.00451200
P        4.98513882      10.12508617       9.31323942       0.00000000 NULL      -0.00331200       0.00171100      -0.00451200
P        0.76954056       0.37834745       4.30501400       0.00000000 NULL       0.00331200      -0.00171100      -0.00451200
P        5.13368136       8.34953730       2.29326832       0.00000000 NULL       0.00617800      -0.00140300      -0.00206200
P        0.62099802       2.15389631       7.30149373       0.00000000 NULL      -0.00617800       0.00140300      -0.00206200
P        0.62099802       3.09782049       2.29326832       0.00000000 NULL      -0.00617800      -0.00140300      -0.00206300
P        5.13368136       7.40561312       7.30149373       0.00000000 NULL       0.00617800       0.00140300      -0.00206200
