24
Lattice="6.885555600091955 0.5419255403744248 -0.04410042406773505 0.2937031520714893 6.900601254364076 -0.044100424067734054 -0.12870264060138972 -0.13342224932912528 10.41726599202619" Properties=species:S:1:pos:R:3:initial_magmoms:R:1:castep_labels:S:1:forces:R:3 n_minim_iter=1 energy=-128.624223500131 stress="6.710756576335589e-06 -5.0604375874723956e-05 1.8753624873445374e-05 -5.0604375874723956e-05 3.0208541688036334e-06 1.9463221490278443e-05 1.8753624873445374e-05 1.9463221490278443e-05 3.110060600634076e-05" free_energy=-128.624223500131 pbc="T T T"
P        6.30359497       7.02366461       0.63481789       0.00000000 NULL      -0.00093400      -0.00124200       0.00376000
P        3.13821014       2.76437756       5.88755131       0.00000000 NULL      -0.00120600      -0.00098200       0.00375800
P        4.64586581       3.87439428       4.57792330       0.00000000 NULL      -0.00180900       0.00090200      -0.00461200
P        0.05065716       0.99435321       9.83065672       0.00000000 NULL       0.00096400      -0.00177600      -0.00461400
P        1.15581703       0.46667699       6.03998390       0.00000000 NULL       0.00341300      -0.00752600       0.00001100
P        4.07874729       4.95984215       0.78725048       0.00000000 NULL      -0.00764400       0.00314200       0.00001100
P        3.95649118       5.72838000       7.55698111       0.00000000 NULL      -0.00242900      -0.00449800       0.00167600
P        2.05696044       0.50558874       2.39244854       0.00000000 NULL      -0.00440600      -0.00258800       0.00167700
P        6.70748692       5.63808416       9.29260164       0.00000000 NULL       0.00425500       0.00111000       0.00031300
P        1.86769082       3.25155086       4.12806907       0.00000000 NULL       0.00095500       0.00429300       0.00031100
P        4.89818408       2.24205894      -0.61687846       0.00000000 NULL       0.00417900      -0.00083800       0.00091900
P        5.29585231       1.72967151       4.59175454       0.00000000 NULL      -0.00098700       0.00414500       0.00091800
P        1.35296438       2.26047221       0.92283495       0.00000000 NULL      -0.00065900       0.00297100       0.00536000
P        5.73558014       5.08801379       6.08736752       0.00000000 NULL       0.00299400      -0.00055100       0.00536100
P        8.00164931       5.71580900       5.32966498       0.00000000 NULL       0.00305500      -0.00045300       0.00011900
P        1.89877710       4.54767242       0.16513241       0.00000000 NULL      -0.00056200       0.00303700       0.00011800
P       -0.33943883       2.98079473       7.50409751       0.00000000 NULL      -0.00046900       0.00285800      -0.00294000
P       -0.24049285       3.01413493       2.29546452       0.00000000 NULL       0.00287300      -0.00036400      -0.00293700
P        4.91081668       4.29923158       9.10345422       0.00000000 NULL      -0.00229900       0.00014600       0.00238100
P        0.59438385       1.40784819       3.93892165       0.00000000 NULL       0.00022600      -0.00229300       0.00238000
P        2.23917968       4.36399866       7.16160410       0.00000000 NULL      -0.00022500       0.00081400      -0.00386200
P        1.04898760       5.64087564       1.95297110       0.00000000 NULL       0.00081900      -0.00019700      -0.00386200
P        5.98450449       1.46690490       6.71207337       0.00000000 NULL       0.00122400      -0.00128500      -0.00312200
P        4.61079720       2.92080550       1.50344038       0.00000000 NULL      -0.00132800       0.00117600      -0.00312400
