15
Lattice="5.05405551832551 -1.3104042431834708e-38 1.3028139006521501e-37 6.068591471924735e-39 8.246531397484446 -2.0685411715312096e-13 -1.7552542419975184e-37 -4.12326569874204 7.141705683327627" Properties=species:S:1:pos:R:3:initial_magmoms:R:1:castep_labels:S:1:forces:R:3 n_minim_iter=13 energy=-81.323170251258 stress="8.61063723446338e-05 -0.0 0.0 -0.0 0.00019317660592338835 -3.3595931464937106e-08 0.0 -3.3595931464937106e-08 0.00019321020185485326" free_energy=-81.323170251258 pbc="T T T"
P       -0.17923405       4.02244082       0.44396099       0.00000000 NULL       0.00339600      -0.00777700      -0.00420800
P        3.19013630       2.49652761       3.43618926       0.00000000 NULL       0.00339300       0.00024700       0.00884000
P        1.50545112       5.85082991       3.26155473       0.00000000 NULL       0.00339200       0.00752900      -0.00463400
P        0.90896370       2.52487533       5.50195380       0.00000000 NULL      -0.00330800       0.00112600       0.00720800
P        4.27833405      -0.62087078       2.20412262       0.00000000 NULL      -0.00330300       0.00567400      -0.00457900
P        2.59364887      -1.90400330       6.57733425       0.00000000 NULL      -0.00330400      -0.00680300      -0.00262300
P        1.51210220       5.42809921       0.07533594       0.00000000 NULL       0.00672000      -0.00069800       0.00036900
P        4.88147254       1.47445976       2.40316591       0.00000000 NULL       0.00672500       0.00067200       0.00042000
P        3.19678737       5.46723937       4.66320313       0.00000000 NULL       0.00672400       0.00002500      -0.00079300
P        1.52703241       0.99868738       3.84498109       0.00000000 NULL      -0.00769600      -0.00191800      -0.00397700
P       -0.15765276      -1.29275726       4.35432650       0.00000000 NULL      -0.00769200      -0.00248300       0.00365100
P        3.21171759       0.29407113       6.08410307       0.00000000 NULL      -0.00769400       0.00440300       0.00032700
P        3.80279198       2.47168935       5.55887235       0.00000000 NULL       0.00088700       0.00081800       0.00044400
P        2.11810681      -0.54498487       2.22172375       0.00000000 NULL       0.00088100      -0.00002100      -0.00093100
P        0.43342163      -1.92670323       6.50281457       0.00000000 NULL       0.00088000      -0.00079400       0.00048600
