12
Lattice="4.631491599024706 2.0096934293405682e-16 -4.658079382204081e-16 2.315745799512353 7.190390059351846 -0.8195902653503754 2.3157457995123516 1.2119997658781423 7.134738535937694" Properties=species:S:1:pos:R:3:initial_magmoms:R:1:castep_labels:S:1:forces:R:3 n_minim_iter=18 energy=-62.134681766932 stress="-7.927221286676751e-06 -0.0 0.0 -0.0 8.79426111490702e-06 -8.752973504038912e-06 0.0 -8.752973504038912e-06 1.3872637251684315e-05" free_energy=-62.134681766932 pbc="T T T"
P        6.13840178       7.27182267       0.37108797       0.00000000 NULL       0.00193100      -0.00083200      -0.00159300
P        3.12458141       2.37836846       6.88189471       0.00000000 NULL      -0.00193100      -0.00176200      -0.00035600
P        5.44032721       4.28262753       4.34825237       0.00000000 NULL      -0.00192900      -0.00083100      -0.00159400
P        3.82265598       5.36756360       2.90473031       0.00000000 NULL       0.00192900      -0.00176200      -0.00035500
P        5.08553866       5.33902284       1.07940851       0.00000000 NULL      -0.00097700       0.00009100       0.00182200
P        4.17744453       2.52134746       4.82836356       0.00000000 NULL       0.00097600       0.00177500      -0.00041900
P        6.49319033       2.34982770       5.05657291       0.00000000 NULL       0.00098000       0.00009100       0.00182300
P        2.76979286       5.51054260       0.85119916       0.00000000 NULL      -0.00098000       0.00177600      -0.00042100
P        5.15578036       3.42270320      -0.16428023       0.00000000 NULL       0.00018800       0.00044400       0.00016200
P        4.10720284       0.79387251       3.33341441       0.00000000 NULL      -0.00018900       0.00028100       0.00038200
P        1.79145704       0.43350805       3.81288417       0.00000000 NULL      -0.00018800       0.00044700       0.00016400
P        2.84003456       3.78306765      -0.64374999       0.00000000 NULL       0.00018900       0.00028300       0.00038500
