12
Lattice="3.508369932511578 8.912347628900283e-19 -0.35811137454970426 -1.345734288068373e-17 5.082778932006045 -1.213160586418897e-16 -2.4100386687950426 2.5818972320089025e-16 11.115155822012202" Properties=species:S:1:pos:R:3:initial_magmoms:R:1:castep_labels:S:1:forces:R:3 n_minim_iter=8 energy=-66.914559647102 stress="8.879294503031122e-05 -0.0 3.776666807797084e-05 -0.0 -0.00014544294714726748 -0.0 3.776666807797084e-05 -0.0 7.3779146655052326e-06" free_energy=-66.914559647102 pbc="T T T"
P        0.94339549       1.37406645       3.67181481       0.00000000 NULL       0.00064400      -0.00036800      -0.00354700
P        0.94339549       3.70596722       3.67181481       0.00000000 NULL       0.00064400       0.00036800      -0.00354700
P       -0.23942113       1.16491884       9.45661686       0.00000000 NULL       0.00379600      -0.00156000       0.00065100
P       -0.23942113       3.91511483       9.45661686       0.00000000 NULL       0.00379600       0.00156000       0.00065100
P        2.53799620       3.91545592       1.92706712       0.00000000 NULL      -0.00064400      -0.00036800       0.00354700
P        2.53799620       1.16457776       1.92706712       0.00000000 NULL      -0.00064400       0.00036800       0.00354700
P       -0.60369100       1.16445873       5.87156718       0.00000000 NULL      -0.00154900       0.00152700      -0.00165500
P       -0.60369100       3.91557494       5.87156718       0.00000000 NULL      -0.00154900      -0.00152700      -0.00165500
P        1.31077415       1.37372536       7.25742089       0.00000000 NULL      -0.00379700       0.00156000      -0.00064900
P        1.31077415       3.70630831       7.25742089       0.00000000 NULL      -0.00379700      -0.00156000      -0.00064900
P       -1.83332591       3.70584820      11.20058195       0.00000000 NULL       0.00154900       0.00152700       0.00165200
P       -1.83332591       1.37418548      11.20058195       0.00000000 NULL       0.00154900      -0.00152700       0.00165200
