8
Lattice="6.348472851339978 0.8748124223082766 0.10921085194259791 -1.9626535163136274 5.0304786843177585 -0.5574774078162669 -1.3662551690415625 -4.329288528845749 4.663925089580041" Properties=species:S:1:pos:R:3:initial_magmoms:R:1:castep_labels:S:1:forces:R:3 n_minim_iter=14 energy=-43.675897605221 stress="-1.9933718735876442e-05 -1.0696141760714188e-05 -1.7850054756516534e-05 -1.0696141760714188e-05 9.029210577226262e-06 2.9171295711038697e-06 -1.7850054756516534e-05 2.9171295711038697e-06 5.257778774584832e-05" free_energy=-43.675897605221 pbc="T T T"
P        0.15134204       0.35488467       4.39970516       0.00000000 NULL       0.00472700       0.00181900      -0.00565000
P        4.14974530       1.84549134       2.81202675       0.00000000 NULL      -0.00617500      -0.00312300      -0.00315700
P        2.00760663       1.74026024       2.03809384       0.00000000 NULL       0.00022300      -0.00123800       0.00943400
P       -1.07938031       1.74171698       0.90568185       0.00000000 NULL      -0.00011900       0.00174200      -0.00302900
P        4.57730369      -0.32721688       2.26285971       0.00000000 NULL      -0.00174800      -0.00450200      -0.00430000
P        1.64175166      -0.34910744       2.86857236       0.00000000 NULL       0.00060000      -0.00248500      -0.00059300
P        3.86700216       1.74623407      -0.48732995       0.00000000 NULL       0.00088300       0.00358000       0.00327800
P        0.26979339      -1.14869592       1.25391609       0.00000000 NULL       0.00161100       0.00420600       0.00401700
