248
Lattice="19.207643 0.0 0.0 0.0 19.207643 0.0 0.0 0.0 19.207643" Properties=species:S:1:pos:R:3:forces:R:3 energy=-1307.578108313014 hash=0a52d05be110f62b0b8ba1dd06f580af virial="0.494352900131 -7.65209813893 7.72109612803 -7.65209813893 14.1363610828 -13.2346104406 7.72109612803 -13.2346104406 19.6957855958" config_type=liq_12_03_01_liqP4 pressure=0.0016146784108647724 uploaded="2020-04-10 10:56:38.097000" hash_structure=7256de5227695c2198da4cf346617eea filename=liq_12_03_01_liqP4/liq_12_03_01_liqP4_mbd2.xyz username=gabor stress="0.002937503493941988 0.0004906310000339941 -0.0011600834086509522 0.0004906310000339941 0.0024694370211157655 0.0017162785424310544 -0.0011600834086509522 0.0017162785424310544 0.0015703612664874653" volume=7086.343911736328 n_atoms=248 free_energy=-1310.85738039 modified="2020-04-10 10:56:38.097000" formula=P248 miguel_caro=T pbc="T T T"
P       19.07786000       1.83802000       2.14603000       1.12464000       0.50534300      -0.16918500
P        1.84009000       2.77358000       1.36927000      -1.05459000      -1.09873300       1.16329200
P        1.74336000       0.66243000       2.09671000      -0.18161400      -0.34535400      -1.14266200
P        1.56765000       2.19952000       3.55407000      -0.28735200       0.66483500      -0.28246200
P       17.28258000      18.89348000       5.16478000      -0.30933500       0.93977400       0.74523200
P       15.20283000      18.88955000       4.58162000      -0.65808700       0.27742500      -1.69216100
P       16.13352000       1.63244000       5.24472000       0.02893300      -0.67052200      -0.62023600
P       15.56991000       0.04130000       6.60745000       0.76855900      -0.24508500       1.66593300
P        2.46893000       6.49209000       9.63336000      -0.50654800       0.75732200       0.17224100
P        0.67446000       6.85221000      11.06187000       0.77263400       1.08333300       0.58432100
P        1.57443000       4.92107000      10.78613000       1.01066500      -2.01085500       1.87985600
P        0.45238000       5.76483000       9.27418000      -1.49814100      -0.04805000      -2.82205500
P        2.46336000      18.93916000      13.69707000      -0.58825400       1.09489500      -0.04598900
P        0.72883000       0.26124000      12.17388000       1.65483200      -1.80596000       1.60670700
P        1.05738000      17.37769000      13.20124000      -0.53692300       0.96261400      -1.07770200
P        2.49231000      18.17408000      11.69484000      -0.34620600      -0.32832500      -0.59047600
P        1.38800000       9.37700000       6.05427000       0.13308900      -0.26558400      -0.95768300
P        2.10276000       9.39052000       3.85828000      -1.61432900      -0.00612000       1.16576400
P        1.78441000      11.24473000       4.98965000      -0.60591200      -0.05862900      -0.13190300
P       19.02665000      10.08705000       4.61127000       2.70857300      -0.35236700      -0.43691100
P       17.12988000       8.17216000       9.35508000      -1.06788000      -0.09705600      -0.59822200
P       16.12170000       6.39269000       8.45186000      -0.02113700       0.63695500      -0.04349600
P       15.74389000       8.45077000       7.56637000       0.38503900      -1.15749700       0.81400000
P       14.90429000       7.89065000       9.53083000       0.69097400      -0.24752400       0.02764400
P        3.95699000       6.81330000      12.71951000      -1.08183300       0.40728500       0.30779700
P        5.58345000       8.01383000      12.12671000       1.70986400       0.67991800       0.45276100
P        4.26220000       8.76199000      13.83772000       0.07960100      -0.53885200      -2.27871600
P        3.67527000       8.78640000      11.58075000      -0.57526400      -0.28844400       1.39928300
P        1.01983000       8.93949000      14.88483000      -2.06394600      -0.31663000      -0.53757400
P        2.45900000       8.55236000      16.32550000       0.83421300      -1.18542400       1.54878000
P        1.53976000       6.79518000      15.20026000       0.18559100       0.95522200       0.54348100
P        0.39531000       7.81703000      16.83387000       0.71801600       0.67659800      -1.40077900
P        6.11089000      12.48537000       4.19445000       0.73950900      -2.45070000       1.54375100
P        5.05776000      13.62600000       2.84621000      -0.84916400       1.82334200      -0.75865300
P        6.35435000      14.57964000       4.48239000      -0.76211600       0.26677200      -0.29730900
P        4.35606000      13.64102000       4.95309000       0.93098600      -0.37599700      -0.62671300
P        9.90000000      12.31790000       7.53923000      -0.93595400       0.90099900       0.11570300
P        8.94634000      14.24892000       6.79370000      -0.16466900      -1.53300000       1.27352800
P        8.91260000      13.71602000       9.04242000      -0.68568300      -1.04579600      -2.63235400
P        7.66022000      12.40318000       7.32798000       1.82323800       1.59342100       1.07490800
P        2.69679000      14.27808000      15.94839000      -1.42773300      -0.48046900      -0.40876400
P        2.86109000      12.91954000      14.26064000       1.44668300      -0.08498900      -1.36013500
P        1.32900000      14.50106000      14.14683000       0.39583900      -0.53083800       0.66834700
P        1.11737000      12.66089000      15.38832000      -0.52734600       0.84644600       1.27783800
P        0.19580000      11.36124000      18.52324000      -0.81871100      -0.24586500      -1.23061100
P        0.73462000      13.00233000       0.61568000      -0.20812300       0.00779200       0.48174800
P        1.50957000      10.97325000       0.94404000       0.89073600      -0.31450800       0.73954500
P       18.60458000      11.35195000       1.36954000       0.11486900       0.50782300      -0.23757300
P        1.19715000      17.04527000       4.98874000       1.03084500      -0.12317000       0.69290800
P       18.42777000      16.21705000       5.00572000      -0.76925700      -1.25981100       0.88561400
P        0.94096000      14.88444000       4.38589000      -0.26433000       0.72257800       0.55416200
P        0.21693000      16.52856000       3.16165000       0.02454000       0.29597400      -1.97933800
P        1.01236000       9.92171000       9.41814000      -0.52330900      -1.98293700       0.18508400
P        2.74727000      11.18371000       9.52578000       0.05170900       0.57247500       0.76897800
P        0.64855000      11.77436000      10.43653000       1.87781900       0.83050200      -0.23313500
P        1.06560000      11.70892000       8.28212000      -0.51506100       1.19824600      -1.13090100
P        3.80117000      14.58010000       9.21055000       1.36479700       0.12764200       2.14943500
P        2.24618000      16.10580000       9.15115000       0.26354300      -0.56247100      -1.24197800
P        3.10839000      14.84849000       7.29066000      -1.50605400       1.88670700      -0.49485200
P        4.19877000      16.60672000       8.25185000      -0.37544500      -1.22523900      -0.02641800
P       18.95602000      17.58850000      16.76564000       2.35955700      -0.22656200      -0.45758400
P        0.17738000      16.52856000      18.76414000      -1.46260900       1.60165900      -1.28167300
P       17.30463000      17.17667000      17.94221000      -0.82918000      -1.06645700       1.62485100
P       18.68312000      18.71819000      18.61599000       0.54893900      -0.55811000       0.43558200
P        3.75807000       6.26861000      18.83772000      -0.99986000       0.27887300       0.89992900
P        2.61018000       7.54484000       1.11055000       0.41673000       0.35036800      -0.42897800
P        3.24836000       5.54686000       1.67318000       0.26938000      -0.17766800      -0.05257900
P        1.62066000       5.81509000       0.21568000       0.44860100      -0.00484400      -0.47414200
P        5.73652000       1.66169000       1.67546000      -0.01382600       1.30800000       0.82084100
P        6.35060000       3.33481000       0.45547000      -0.25614000       0.50997900      -1.75688500
P        7.57211000       2.81834000       2.13116000       1.56170600      -1.49327000      -0.22558800
P        5.87254000       3.90499000       2.45391000      -2.81704000       0.18042700       0.67222100
P        5.42576000       3.49020000      10.25292000       0.64145800       1.20065700       0.22412000
P        7.27570000       2.17394000      10.41615000      -1.44425000       0.05804900      -0.85324000
P        5.46932000       1.76824000       8.99459000       0.71347900      -0.87821800       0.43143100
P        5.29405000       1.57762000      11.22531000      -0.04142500      -0.77287500      -0.28779200
P        3.35427000       1.64202000      17.24673000      -0.24518000       1.52037500      -0.38239900
P        3.59075000       3.92502000      16.73871000      -0.79412900      -1.08797300       0.21535700
P        2.51259000       2.49734000      15.35809000       0.52275600       0.37217800       0.55403100
P        4.70537000       2.43007000      15.66162000      -0.16435000      -1.09417000       0.59627200
P        6.00329000       7.31035000       2.68615000       0.22929500       0.52302400       0.38607500
P        5.65367000       9.45857000       3.28249000       0.32559600      -0.63132300       0.01326100
P        5.80178000       8.87166000       1.18198000      -0.11939000       0.14119100      -0.52312600
P        7.62584000       8.86331000       2.39779000      -1.01465300      -0.49388500       0.66321400
P        4.12384000       5.69345000       5.02247000      -0.36900200      -0.51450900      -0.54726100
P        2.54302000       4.19741000       5.60064000      -0.18213000       0.62220000      -0.28760300
P        3.89429000       5.02163000       7.08019000       0.34123700      -0.43311500       0.61421100
P        4.63139000       3.59978000       5.52944000       0.22805300       0.16075600       0.23652900
P        7.16902000       4.87340000      14.62399000       0.13374900      -0.28993700      -0.90408900
P        7.99426000       2.85086000      14.67026000      -0.89316100      -0.00359200       0.74644900
P        8.00457000       3.76558000      12.78294000       0.20499400       1.78551800      -0.84661700
P        6.05554000       3.22750000      13.59782000       0.44781400       0.52924000      -0.09034400
P        5.93879000       7.92982000      16.15797000       0.71905500       0.17082400       0.25179900
P        7.04761000       9.53081000      17.26331000       0.43430600      -1.02634200      -1.74677700
P        7.50927000       9.02606000      14.99429000       0.08810800      -0.85476800       2.74151700
P        8.04625000       7.56964000      16.84954000      -0.70356100       1.28533200      -1.39210600
P        4.94900000       8.97033000       8.68462000       0.05113100       2.66123300       2.76614700
P        4.30612000       8.13572000       6.96665000      -1.59847400      -1.74724100      -2.61450600
P        6.42211000       8.21559000       7.41553000       1.14096800      -0.13205300      -1.40887300
P        5.27188000      10.02001000       6.64058000       0.55782600      -0.26156200       1.31813200
P       12.80679000      14.04805000      13.05353000       0.59433500      -1.40177800      -1.31596900
P       10.75922000      14.57376000      12.07256000       0.51536800      -1.07092500      -0.48769200
P       12.40551000      15.95804000      12.13510000       0.64248200       1.21326700      -0.47777400
P       11.41981000      15.30227000      13.95082000      -1.25608900       1.74246400       2.07844700
P        8.03025000      13.40002000      12.30374000      -1.86260700      -1.16938300       0.00022600
P        6.64961000      11.78925000      13.22450000       0.84734000       0.47373100      -1.44339100
P        7.13134000      11.85532000      10.93656000       0.60684500      -0.78611400       0.99933800
P        5.78934000      13.24394000      11.81660000       0.03953000       1.11696400       0.61497600
P        4.09323000      13.02198000      18.91425000       1.39572300      -0.87370400      -0.91515500
P        5.98284000      11.70095000      18.94398000       0.07759300       1.31307900       0.70466200
P        5.46713000      12.80773000      17.08314000       0.06942600       0.68966500       0.61653700
P        4.32896000      11.12687000      17.74827000      -1.79139800      -0.70546400      -0.24778100
P        5.05559000      16.96031000       4.90175000      -0.99244600       1.69296300      -1.61966600
P        5.77822000      17.89196000       2.94540000       0.42429700      -0.40739400       0.36134900
P        4.94873000      19.19351000       4.50598000      -0.31468700      -0.35287200      -0.04460400
P        3.61741000      17.96637000       3.18682000       1.06926000      -0.80822000       1.48492300
P        0.99805000       0.25706000       8.63286000       0.28316300       0.44568300      -0.47978600
P        1.84415000       2.32447000       8.51112000       0.07239400      -0.92605000      -0.50877900
P        2.82366000       0.61126000       7.39644000      -0.34574800       0.41691600       0.46200600
P        0.88468000       1.38543000       6.71146000       0.09063300       0.10428900       0.44966400
P        5.76379000      16.61532000      12.49207000       1.75415100       0.54774700      -0.46880000
P        6.89284000      18.36218000      13.30051000       0.10223200       0.01477900      -0.66875400
P        8.05816000      17.05147000      11.85371000      -2.09576400       0.01809800       0.99671700
P        7.45823000      16.35327000      13.88960000       0.07650600      -0.08501700      -0.43501500
P        5.17089000      18.70417000      18.39844000       0.06567900      -0.27827900       0.06180200
P        4.29921000      17.60734000      16.68145000      -0.95187700       0.56410600      -0.35462200
P        3.66363000      17.11822000      18.77146000       0.70203300       0.05119500      -0.63601100
P        5.69981000      16.61851000      17.92467000       0.24417400      -0.46090400       1.06441500
P       11.22598000       4.75562000       0.52796000      -0.73436400      -0.24988800       0.94640100
P        9.93014000       6.37344000      19.08786000       0.33638800       0.62113100       0.47008300
P       11.47311000       6.67458000       1.53461000       0.10544800       0.69172600      -0.54495100
P        9.59330000       5.70135000       1.96221000       0.33895600      -0.89544300      -0.77545900
P       13.37881000       1.11059000       9.08733000       0.29406800      -0.11997600       0.27273600
P       11.75761000       0.80025000       7.67933000      -0.39765000      -1.13444900      -0.66799100
P       12.14276000       2.75668000       8.37330000      -0.01603400       0.88835500       0.90456300
P       11.29240000       1.22808000       9.80404000       0.38218300       0.65852100      -1.18653300
P       12.24635000       1.09512000      12.66199000      -0.51230200      -0.80506500      -0.13431500
P       11.42555000      18.95326000      14.18471000      -0.39205100      -0.23056700      -0.61867000
P       10.49367000      18.88655000      12.07665000       0.90587200       0.65967700       1.66250200
P       10.20658000       1.44516000      13.47368000       0.31442000      -1.07811100      -0.70355000
P        8.86675000       2.64612000      17.78822000       1.03317100      -1.74372700       0.36523800
P        8.52097000       0.89704000      16.51900000      -0.86026800      -0.84647300      -0.59075000
P        9.08289000       0.40184000      18.52637000       0.77689500       1.38824400       0.07955100
P       10.58322000       1.28693000      17.01063000      -0.81154100       0.51871200       1.17774500
P       11.96338000       8.97750000       5.44827000      -0.56348200       0.89313700       1.10476300
P       11.69152000       9.50398000       3.42885000      -0.55534500       0.28473700      -1.32465100
P       11.37769000      11.17190000       4.84640000      -0.14182600      -1.82733700       0.37543500
P        9.87307000       9.44157000       4.74175000       1.34666200       0.56560100      -0.09549400
P        7.55811000       3.09112000       7.15441000       0.22762800      -0.12284800      -0.90143500
P        9.65009000       3.68199000       6.76873000      -0.13663500       0.03216200      -0.11770000
P        8.06466000       5.18320000       6.92929000      -0.06140900       0.54446300      -0.19932300
P        8.19354000       3.92545000       5.11067000      -0.24182500      -0.18333500       1.09160400
P       10.81156000       6.90340000      10.11828000      -0.41540200       0.20127300      -1.28622100
P        9.33618000       7.97780000      11.22671000      -0.75751800       0.65139300       1.29072200
P        8.63184000       6.58352000       9.72151000      -0.24945400      -1.46967600       0.38376800
P        9.40589000       8.45430000       9.11547000       1.36074600       0.64465000      -0.31966300
P       13.15428000      10.56645000      14.22044000      -0.40455000       0.69742900       0.55930300
P       11.21571000      10.51292000      13.24626000      -0.45490200       0.07769700       0.33058800
P       11.48807000      12.07750000      14.81499000       0.72773200      -0.90894900      -0.36593700
P       11.39912000       9.96333000      15.40614000      -0.16495900      -0.26068200      -0.21541000
P        9.55008000       9.70564000       0.50564000      -0.08870600       0.27823300      -0.73278800
P       11.43249000      10.57081000      19.07062000       0.47217500       0.25560700      -0.57593500
P       10.21666000      11.61198000       1.32834000       0.30868900       0.27935600       1.64544900
P        9.55110000      11.64830000      18.54070000      -0.04702900      -1.00329700      -0.98241700
P       12.88308000      10.26326000       8.96941000      -1.89888900      -1.05924000      -0.39023300
P       13.99480000      12.01897000       9.03791000       0.58966600       1.36274200       0.68518200
P       13.95881000      10.62830000      10.80361000      -1.06445300       1.40327000      -0.47187200
P       12.06924000      11.99888000      10.20258000       1.83868700      -1.44096600      -0.21299900
P       16.11458000      17.37923000      12.66646000       0.42532700      -0.24088500      -0.07010700
P       16.28637000      15.86478000      14.30823000       1.05903300       0.68856900      -0.11293700
P       16.92145000      18.09185000      14.61581000      -0.75244400      -1.44189300      -0.61024200
P       14.82067000      17.41593000      14.39838000      -0.94055000       0.79714300       0.43836700
P       15.10673000      12.38953000      16.69332000       0.94048300       0.86709100      -0.65402200
P       15.92314000      13.81202000      18.29684000      -1.48781000      -0.54874500      -1.14177500
P       13.82737000      12.92986000      18.28495000      -0.28707800       0.91673900       0.85036300
P       14.33578000      14.52693000      16.79253000       0.65347800      -1.16639100       0.79715400
P        8.85910000      14.38026000       2.94845000      -0.41446200       0.01077800       0.67112900
P       10.02418000      16.07734000       3.91173000      -0.30677400      -1.20258600      -2.52052500
P        9.32493000      16.02121000       1.59164000      -0.10286300       0.89725100       1.25150300
P       10.85001000      14.66000000       2.24194000       1.17002700       0.34507200       0.62341700
P        7.35910000      17.10546000       8.34280000       1.00486400       0.26440200      -0.29379300
P        8.86465000      17.63154000       6.71042000       0.12012800      -1.16249300      -0.02422400
P        8.81610000      18.82140000       8.52222000      -1.50896000      -0.06968500      -0.56116700
P        7.05385000      18.75987000       6.95397000       0.28705200       0.89384500       0.84068200
P       15.89359000      10.95022000      12.93066000       1.36168500       0.67511600       0.28029400
P       17.86874000      10.90178000      11.83193000      -1.26288300      -0.65101800      -1.08412500
P       17.90694000      11.16431000      13.90770000      -0.21618700       0.23087500       1.49512800
P       17.15663000      12.81163000      12.64841000      -0.28958200      -0.47669900       0.19115100
P        9.02317000      16.54675000      17.69035000      -0.76230600      -1.16587100      -0.39788400
P       10.10480000      14.82033000      16.90386000       0.35022700      -0.31928400       0.58017900
P        8.02054000      14.93310000      16.35162000       0.07157500       0.31669700       1.24511500
P        8.52372000      14.43449000      18.50218000       0.42312800       1.09226100      -1.18560800
P        9.98052000       0.91229000       4.78868000      -0.41896500      -0.35135900      -1.27550900
P        9.76943000      19.03733000       2.71946000       1.40622000       0.77609600       1.54123800
P       11.78431000       0.93543000       3.55416000      -1.27897700      -0.68307800      -0.94031600
P        9.91124000       1.98745000       2.78328000       1.84656000      -0.13954500       0.91940500
P       16.41151000       3.71180000      11.35452000       0.23726400      -1.29189100      -0.23529200
P       16.02521000       1.47939000      11.39098000      -1.94088000      -0.42518300       1.52626100
P       17.96472000       2.11518000      11.00496000       0.84598200       1.35541600      -0.97041200
P       16.29290000       2.44114000       9.51842000       0.77186900       0.66736700      -0.37262100
P       17.78877000       1.72056000      14.44572000       0.21902600       0.37616700       0.08750800
P       18.37134000       1.89136000      16.57890000      -1.46893500       0.20422300      -0.11167200
P       16.38994000       2.88979000      15.70916000       2.03460800      -0.44625600       0.10290800
P       18.50470000       3.63685000      15.30711000      -0.70350100       0.25379400      -0.47097500
P       12.32407000       5.95145000      14.41021000       0.37972200       1.94991200      -1.57770900
P       11.59373000       4.69360000      15.89847000       0.31234900      -1.81291700       0.02490500
P       13.66084000       4.34281000      14.92716000      -0.28341600      -0.32222100       1.06431400
P       11.89696000       3.91373000      13.74073000      -0.49507600       0.62993700       0.81958600
P        0.22156000       6.28063000       3.02048000      -0.92279600       0.81732500       1.29867800
P       17.67966000       6.87054000       4.55448000       1.30722900      -0.05255300      -1.14304200
P       17.40846000       5.51499000       2.84815000      -0.48307900       0.57795200      -0.47189100
P       17.81947000       7.75472000       2.49021000      -0.04741200      -1.43553700       0.48978800
P       14.09780000       3.98284000       6.20048000      -0.04489000       0.14751400       0.39615100
P       12.36285000       4.29617000       4.90383000       1.16589000       1.51679900       0.47928400
P       14.42100000       5.29084000       4.47173000      -1.87823600       0.31307300       1.44629000
P       13.09669000       5.99980000       6.41213000       0.74254900      -1.91374200      -2.33291200
P       15.72891000       8.22235000      14.34060000      -0.40552800       1.56934800      -0.72552000
P       15.03467000       6.77304000      12.76465000       0.69329100       1.12643000      -0.43489500
P       16.11610000       6.19548000      14.51760000       1.82184100      -1.62008000      -0.02854600
P       17.25029000       7.45975000      12.87041000      -1.72139100      -0.96130600       1.17357600
P       15.87546000       1.93586000       0.19323000       0.83824000      -1.24688500      -0.08888200
P       16.16498000       4.02419000      18.94146000       0.08685100       0.56360400      -0.17913900
P       14.52177000       3.36155000       1.02344000      -0.69186500       0.61949400       0.44482300
P       14.46105000       2.92363000      18.07343000      -0.28775100       0.32400000       0.04737400
P       14.24185000      15.90057000       2.23156000      -0.07868800      -1.37652600       0.50251800
P       15.75255000      15.02278000       3.57084000       1.58377200       0.14305300      -0.60133900
P       14.53652000      13.62016000       2.34641000       0.86786100       0.28942200      -1.20026200
P       13.74989000      14.61396000       4.00151000      -2.31666200       0.96682100       1.41699900
P       17.36657000      12.14807000       5.20848000       0.29083200       0.00313200       0.03953100
P       16.67008000      11.03775000       7.02773000       0.07779700       2.11125700       0.45137100
P       15.71051000      10.68473000       5.17485000      -0.81149700       0.97920300      -0.95268600
P       15.44099000      12.86230000       5.95187000       0.28187700      -2.12334100       0.81630200
P       16.63801000      14.76949000       9.99372000       0.52799600      -0.32605600      -0.93940300
P       17.62311000      16.67805000       9.67581000      -0.22818700       1.02146100      -0.54781000
P       18.22682000      15.03718000       8.30414000      -1.66746600      -0.00558300      -0.94606200
P       18.79349000      15.01723000      10.30507000       1.11782600      -0.77865700       2.33178300
P       14.25793000       8.24436000       0.29885000       0.74080000      -0.28344300       0.15870900
P       15.29435000       9.56155000      18.04078000      -0.88706800      -1.22944500      -0.10113600
P       13.39339000       8.37584000      17.54196000       0.40860000       0.62682800      -0.58563300
P       15.31600000       7.31613000      17.73457000      -0.18563900       0.71767700       0.61976800
P       12.09672000      17.65250000      19.19712000       0.60926100      -2.08058700      -0.75086200
P       13.07278000       0.20349000      18.74188000       0.87668500       1.26666800      -1.35809700
P       13.11498000      17.77546000      17.07300000      -0.58768900       0.78474200       2.02118700
P       14.42997000      17.70393000      18.86940000      -1.31055300      -0.09625200       0.07519600
P       14.12663000      16.08888000       7.23556000       1.11677400      -0.39184400       0.70760800
P       12.52932000      15.00409000       8.35433000      -0.07218800       0.32702100      -0.86112800
P       12.14626000      16.78241000       6.97946000      -0.99277500      -0.06317900       0.88374600
P       13.10301000      16.99928000       9.01336000       0.14868000       0.13366700      -0.66522800
248
Lattice="19.577111 0.0 0.0 0.0 19.577111 0.0 0.0 0.0 19.577111" Properties=species:S:1:pos:R:3:forces:R:3 energy=-1306.164113236253 hash=4bc068354c7e0ac46aabe6d5394a67ac virial="-22.3820422846 4.77856345205 -10.971851059 4.77856345205 -12.0118786678 -7.89218357075 -10.971851059 -7.89218357075 5.6096770135" config_type=liq_12_03_01_liqP4 pressure=-0.0012787562287043448 uploaded="2020-04-10 10:56:37.921000" hash_structure=43c6885f842ce4cccfd1f4be8a6457e1 filename=liq_12_03_01_liqP4/liq_12_03_01_liqP4_mbd2.xyz username=gabor stress="0.005321330307631052 -0.0011490676188406475 0.0018461953229301567 -0.0011490676188406475 0.004039047308506075 0.00023390325220261425 0.0018461953229301567 0.00023390325220261425 0.0014005314073962472" volume=7503.187678979971 n_atoms=248 free_energy=-1310.13427812 modified="2020-04-10 10:56:37.921000" formula=P248 miguel_caro=T pbc="T T T"
P        1.20759000       0.46672000      19.22911000       2.03774600       0.38292000      -2.02715900
P        2.95215000       1.02081000       1.16347000      -0.66631400       0.02866900      -1.23151900
P        1.70616000      18.83212000       1.32034000      -0.62406900      -0.18645800       1.02544200
P        0.80677000       1.36470000       1.46699000      -0.35556300      -0.04193000       2.02393600
P       16.32430000       1.25370000       5.41599000      -0.80009800      -0.27593300      -0.25306500
P       16.26024000      19.27944000       3.74432000      -0.44709300       0.85356500      -0.17936600
P       17.64350000      19.10984000       5.35356000       0.74140500      -1.24906500       1.60407500
P       17.94761000       1.12911000       3.99258000       0.41028000       0.65470000      -1.17500600
P        2.99970000       6.46959000      11.85654000      -1.06634400       0.62284400      -0.70948300
P        1.08490000       5.55594000      12.88266000       0.44345800       1.19740600      -1.80725800
P        3.07441000       5.04087000      13.39948000       1.03502700      -1.75144700       0.65664500
P        2.32829000       4.44737000      11.32495000      -0.25426600       0.24852000       1.23333500
P       19.31787000      19.27645000      11.73511000       1.76009300      -0.18728700       1.95170500
P        1.66981000       0.54017000      12.95568000      -2.19407600      -1.97064400      -0.55056500
P        1.44876000      17.98549000      12.15416000       0.17535100       0.56381100       0.97281000
P        0.11887000      18.61419000      13.89930000       1.42124900       0.60213900      -1.63457100
P        1.21946000       8.18785000       4.88441000      -0.29563800       0.53423400       0.01262000
P        2.56106000       9.74793000       4.12576000       0.67299600      -0.21415600      -0.47659500
P        0.56623000      10.34333000       4.65324000      -0.63170900      -0.56687500       0.20572300
P        0.86116000       9.03789000       2.87500000       0.24842800       0.19068600       0.26499900