104
Lattice="14.752975 0.0 0.0 0.0 12.828814 0.0 0.0 0.0 12.8717" Properties=species:S:1:pos:R:3:forces:R:3 energy=-565.251988829027 hash=65caec19db865b84795faa891699f15e virial="26.5960839552 0.0 0.0 0.0 -8.69836786862 0.0 0.0 0.0 9.45073549841" config_type=rss_3c pressure=0.0037420489448516097 uploaded="2020-04-10 10:56:53.323000" hash_structure=f5bb3ec5005e822dba26f0166ed6c15a filename=rss_3c/rss_3c_mbd2.xyz username=gabor stress="-0.0047024578906599045 0.0 -0.0 0.0 0.004578027376581868 1.0672626813673856e-07 -0.0 1.0672626813673856e-07 0.002863802372338973" volume=2436.138773885412 n_atoms=104 free_energy=-570.88456 modified="2020-04-10 10:56:53.323000" formula=P104 miguel_caro=T pbc="T T T"
P        5.55284000       1.54336000       4.79899000       0.02709300       0.11324900      -0.03383500
P        3.40593000       1.92310000       4.54218000      -0.03561400       0.42139800      -0.08157300
P        2.83521000      12.72241000       5.14557000      -0.39950100      -0.08895000       0.02757100
P        0.61386000       0.19271000       4.91270000      -0.07132000      -0.19900700       0.04445900
P        6.32144000       3.56955000       4.26074000      -0.20104500      -0.14554800      -0.29249200
P        4.67563000       3.69629000       7.41183000       0.11562300       0.24958000      -0.17402900
P        2.84625000       3.29862000       6.23727000      -0.16271300      -0.28331000      -0.04828300
P        1.91349000       1.94200000       7.76613000       0.03501600       0.30134600      -0.10104900
P        0.02843000       1.52844000       6.62131000      -0.07315500       0.30852600       0.25765200
P        5.98915000       4.94149000       6.02491000      -0.12115100      -0.17374700      -0.05740300
P        5.84247000       1.90315000       6.94732000       0.15658200      -0.41599300       0.43076800
P        2.80712000      12.81238000       7.35081000       0.21633400      -0.28842900       0.16186700
P        4.90134000       0.16568000       7.93271000       0.21790300      -0.06958800       0.11695100
P        9.20015000       4.87104000       4.79899000      -0.02714500      -0.11327700      -0.03386800
P       11.34706000       4.49130000       4.54218000       0.03559000      -0.42135200      -0.08160500
P       11.91778000       6.52081000       5.14557000       0.39941200       0.08892500       0.02755500
P       14.13912000       6.22169000       4.91270000       0.07139200       0.19905100       0.04446700
P        8.43153000       2.84485000       4.26074000       0.20110500       0.14559900      -0.29247900
P       10.07734000       2.71812000       7.41183000      -0.11547100      -0.24971400      -0.17400900
P       11.90673000       3.11579000       6.23727000       0.16270100       0.28323600      -0.04822600
P       12.83948000       4.47241000       7.76613000      -0.03488500      -0.30135200      -0.10106300
P       14.72456000       4.88597000       6.62131000       0.07301000      -0.30857900       0.25771100
P        8.76383000       1.47291000       6.02491000       0.12111700       0.17378300      -0.05740000
P        8.91052000       4.51125000       6.94732000      -0.15671700       0.41609900       0.43070300
P       11.94585000       6.43084000       7.35081000      -0.21621800       0.28845400       0.16184500
P        9.85164000       6.24872000       7.93271000      -0.21796700       0.06963800       0.11697600
P        5.55284000      11.28544000       1.63686000       0.02708500      -0.11316000       0.03383700
P        3.40593000      10.90571000       1.89367000      -0.03563000      -0.42140800       0.08157400
P        2.83521000       0.10640000       1.29028000      -0.39949100       0.08895600      -0.02757300
P        0.61386000      12.63610000       1.52315000      -0.07132000       0.19906900      -0.04445400
P        6.32144000       9.25926000       2.17511000      -0.20102400       0.14549100       0.29250600
P        4.67563000       9.13252000      11.89572000       0.11562300      -0.24958400       0.17402000
P        2.84625000       9.53019000       0.19858000      -0.16272200       0.28331100       0.04828400
P        1.91349000      10.88681000      11.54142000       0.03500900      -0.30133700       0.10105400
P        0.02843000      11.30038000      12.68624000      -0.07314700      -0.30860000      -0.25766100
P        5.98915000       7.88732000       0.41094000      -0.12115100       0.17374000       0.05740000
P        5.84247000      10.92566000      12.36023000       0.15658500       0.41598200      -0.43078400
P        2.80712000       0.01643000      11.95674000       0.21634000       0.28843200      -0.16186700
P        4.90134000      12.66313000      11.37484000       0.21790300       0.06959200      -0.11694400
P        9.20015000       7.95776000       1.63686000      -0.02714700       0.11337300       0.03385600
P       11.34706000       8.33751000       1.89367000       0.03557400       0.42136400       0.08158000
P       11.91778000       6.30800000       1.29028000       0.39942000      -0.08891200      -0.02756700
P       14.13912000       6.60712000       1.52315000       0.07138300      -0.19904400      -0.04447200
P        8.43153000       9.98396000       2.17511000       0.20112800      -0.14565900       0.29246500
P       10.07734000      10.11070000      11.89572000      -0.11549700       0.24962400       0.17402600
P       11.90673000       9.71303000       0.19858000       0.16268900      -0.28329700       0.04825100
P       12.83948000       8.35641000      11.54142000      -0.03490000       0.30127200       0.10109000
P       14.72456000       7.94284000      12.68624000       0.07299900       0.30859000      -0.25771500
P        8.76383000      11.35590000       0.41094000       0.12110100      -0.17377000       0.05741600
P        8.91052000       8.31756000      12.36023000      -0.15667700      -0.41605200      -0.43069900
P       11.94585000       6.39797000      11.95674000      -0.21619400      -0.28837700      -0.16185600
P        9.85164000       6.58009000      11.37484000      -0.21796400      -0.06963200      -0.11697800
P        9.20015000      11.28544000       8.07271000      -0.02713300      -0.11319500       0.03386100
P       11.34706000      10.90571000       8.32952000       0.03559500      -0.42142700       0.08159800
P       11.91778000       0.10640000       7.72613000       0.39941300       0.08897400      -0.02757600
P       14.13912000      12.63610000       7.95900000       0.07139400       0.19905800      -0.04448100
P        8.43153000       9.25926000       8.61096000       0.20108700       0.14554300       0.29249300
P       10.07734000       9.13252000       5.45987000      -0.11549700      -0.24963200       0.17401000
P       11.90673000       9.53019000       6.63443000       0.16269900       0.28327900       0.04825000
P       12.83948000      10.88681000       5.10557000      -0.03488800      -0.30131400       0.10107700
P       14.72456000      11.30038000       6.25039000       0.07300100      -0.30860500      -0.25769800
P        8.76383000       7.88732000       6.84679000       0.12111200       0.17373400       0.05742200
P        8.91052000      10.92566000       5.92438000      -0.15668200       0.41602800      -0.43073200
P       11.94585000       0.01643000       5.52089000      -0.21620300       0.28843400      -0.16184900
P        9.85164000      12.66313000       4.93899000      -0.21795700       0.06960700      -0.11698200
P        5.55284000       7.95776000       8.07271000       0.02709800       0.11333800       0.03383200
P        3.40593000       8.33751000       8.32952000      -0.03560900       0.42134500       0.08155600
P        2.83521000       6.30800000       7.72613000      -0.39949800      -0.08889400      -0.02756500
P        0.61386000       6.60712000       7.95900000      -0.07130900      -0.19905500      -0.04444600
P        6.32144000       9.98396000       8.61096000      -0.20106400      -0.14560800       0.29247900
P        4.67563000      10.11070000       5.45987000       0.11562300       0.24957600       0.17403600
P        2.84625000       9.71303000       6.63443000      -0.16271200      -0.28332900       0.04828500
P        1.91349000       8.35641000       5.10557000       0.03502000       0.30129500       0.10106700
P        0.02843000       7.94284000       6.25039000      -0.07314400       0.30858500      -0.25767800
P        5.98915000      11.35590000       6.84679000      -0.12114000      -0.17377500       0.05739400
P        5.84247000       8.31756000       5.92438000       0.15657900      -0.41600700      -0.43075100
P        2.80712000       6.39797000       5.52089000       0.21633100      -0.28837500      -0.16187400
P        4.90134000       6.58009000       4.93899000       0.21791000      -0.06961700      -0.11694000
P        9.20015000       1.54336000      11.23484000      -0.02714100       0.11328400      -0.03385800
P       11.34706000       1.92310000      10.97803000       0.03557900       0.42141700      -0.08159700
P       11.91778000      12.72241000      11.58142000       0.39942300      -0.08896800       0.02757400
P       14.13912000       0.19271000      11.34855000       0.07139400      -0.19899600       0.04448500
P        8.43153000       3.56955000      10.69659000       0.20110800      -0.14559900      -0.29247800
P       10.07734000       3.69629000       0.97598000      -0.11549700       0.24962900      -0.17401900
P       11.90673000       3.29862000      12.67312000       0.16269000      -0.28327800      -0.04825000
P       12.83948000       1.94200000       1.33028000      -0.03489600       0.30132200      -0.10107200
P       14.72456000       1.52844000       0.18546000       0.07300900       0.30853100       0.25768900
P        8.76383000       4.94149000      12.46076000       0.12111200      -0.17374200      -0.05742500
P        8.91052000       1.90315000       0.51147000      -0.15668000      -0.41603800       0.43071600
P       11.94585000      12.81238000       0.91496000      -0.21619600      -0.28843100       0.16184900
P        9.85164000       0.16568000       1.49686000      -0.21795800      -0.06960300       0.11698900
P        5.55284000       4.87104000      11.23484000       0.02709700      -0.11324200      -0.03384400
P        3.40593000       4.49130000      10.97803000      -0.03562500      -0.42133300      -0.08158100
P        2.83521000       6.52081000      11.58142000      -0.39949000       0.08890700       0.02755200
P        0.61386000       6.22169000      11.34855000      -0.07131800       0.19906200       0.04444100
P        6.32144000       2.84485000      10.69659000      -0.20104200       0.14554800      -0.29249200
P        4.67563000       2.71812000       0.97598000       0.11559700      -0.24966500      -0.17401900
P        2.84625000       3.11579000      12.67312000      -0.16272400       0.28326800      -0.04825900
P        1.91349000       4.47241000       1.33028000       0.03500500      -0.30137600      -0.10104000
P        0.02843000       4.88597000       0.18546000      -0.07315600      -0.30857400       0.25767400
P        5.98915000       1.47291000      12.46076000      -0.12115600       0.17378800      -0.05737800
P        5.84247000       4.51125000       0.51147000       0.15662000       0.41605300       0.43075500
P        2.80712000       6.43084000       0.91496000       0.21635500       0.28845200       0.16186300
P        4.90134000       6.24872000       1.49686000       0.21791300       0.06962300       0.11693800
104
Lattice="14.889483 0.0 0.0 0.0 12.391801 -1e-06 0.0 -2e-06 13.347013" Properties=species:S:1:pos:R:3:forces:R:3 energy=-564.823316861575 hash=2a03cfe65dbe78e74669f4a756e0817d virial="26.3757318784 0.0 0.0 0.0 11.6352465281 -0.0 0.0 -0.0 5.35105200861" config_type=rss_3c pressure=0.005869352902749718 uploaded="2020-04-10 10:56:53.293000" hash_structure=389247ae759652655bed27dccf1a710e filename=rss_3c/rss_3c_mbd2.xyz username=gabor stress="-0.00702187139582022 1.6242835992397094e-08 -1.218212699429782e-08 1.6242835992397094e-08 -0.0022885303164397906 -6.903205296768765e-08 -1.218212699429782e-08 -6.903205296768765e-08 0.0034558339071604017" volume=2462.6241389572056 n_atoms=104 free_energy=-569.77517532 modified="2020-04-10 10:56:53.293000" formula=P104 miguel_caro=T pbc="T T T"
P       13.33855000       1.06165000      11.95313000      -0.28334300       0.21336300       0.18074500
P       11.16165000       1.34697000      11.59177000      -0.03216000       0.28757900       0.04876700
P       10.27593000      11.89413000      12.35433000      -0.15098000       0.21999400      -0.14626700
P        8.16584000       0.09854000      11.85261000      -0.13605200      -0.06655400       0.14603200
P       13.77690000       3.12620000      11.20159000       0.04160900       0.15111600      -0.23682700
P       12.15737000       3.40535000       0.98354000       0.37941300      -0.04065000      -0.07655900
P       10.45252000       2.90202000      13.05469000      -0.17365200      -0.15559700      -0.31888500
P        9.40458000       1.86157000       1.37042000       0.04044200      -0.02378900      -0.12977700
P        7.55619000       1.51609000       0.15572000       0.06917800       0.21494100       0.14783100
P       13.37872000       4.56250000      12.87660000       0.12149000      -0.10799500      -0.25116600
P       13.41294000       1.59319000       0.76070000       0.15681400      -0.09538800       0.29361300
P       10.24094000      12.20672000       1.19632000      -0.11818000      -0.15427300       0.09512200
P       12.35360000      12.32120000       1.74348000       0.21254900      -0.08156100      -0.08554700
P        1.55096000       5.13427000      11.95313000       0.28353200      -0.21336900       0.18073100
P        3.72788000       4.84895000      11.59177000       0.03204300      -0.28750900       0.04881300
P        4.61360000       6.69360000      12.35433000       0.15096400      -0.22009000      -0.14629400
P        6.72369000       6.09738000      11.85261000       0.13603900       0.06659200       0.14604400
P        1.11262000       3.06972000      11.20159000      -0.04160200      -0.15112400      -0.23681800
P        2.73215000       2.79057000       0.98354000      -0.37933400       0.04071900      -0.07658000
P        4.43701000       3.29390000      13.05469000       0.17356700       0.15560900      -0.31887800
P        5.48494000       4.33435000       1.37042000      -0.04037900       0.02393600      -0.12979500
P        7.33334000       4.67984000       0.15572000      -0.06923700      -0.21497100       0.14787500
P        1.51081000       1.63342000      12.87660000      -0.12156000       0.10800400      -0.25118700
P        1.47659000       4.60274000       0.76070000      -0.15682300       0.09534900       0.29361600
P        4.64859000       6.38102000       1.19632000       0.11820000       0.15413600       0.09512900
P        2.53593000       6.26653000       1.74348000      -0.21253900       0.08157100      -0.08555900
P        5.89381000       5.13427000       8.06739000      -0.28336300      -0.21334800      -0.18072300
P        3.71691000       4.84895000       8.42875000      -0.03218800      -0.28752000      -0.04879300
P        2.83119000       6.69360000       7.66619000      -0.15096200      -0.22007000       0.14631300
P        0.72110000       6.09738000       8.16790000      -0.13604400       0.06661500      -0.14592100
P        6.33215000       3.06972000       8.81893000       0.04168500      -0.15111800       0.23683100
P        4.71263000       2.79057000       5.68996000       0.37944300       0.04071500       0.07662600
P        3.00778000       3.29390000       6.96583000      -0.17362000       0.15561300       0.31887000
P        1.95984000       4.33435000       5.30309000       0.04045800       0.02392800       0.12977400
P        0.11145000       4.67984000       6.51779000       0.06916700      -0.21501100      -0.14790000
P        5.93398000       1.63342000       7.14392000       0.12146700       0.10802700       0.25113000
P        5.96820000       4.60274000       5.91281000       0.15676100       0.09532200      -0.29367000
P        2.79620000       6.38102000       5.47719000      -0.11828500       0.15412500      -0.09513800
P        4.90885000       6.26653000       4.93003000       0.21262600       0.08151200       0.08551200
P        8.99570000       1.06165000       8.06739000       0.28354000       0.21339300      -0.18071800
P       11.17262000       1.34698000       8.42875000       0.03203900       0.28746700      -0.04877800
P       12.05834000      11.89413000       7.66619000       0.15093400       0.22005400       0.14630300
P       14.16843000       0.09854000       8.16790000       0.13604500      -0.06654600      -0.14591400
P        8.55736000       3.12620000       8.81893000      -0.04164600       0.15113500       0.23682500
P       10.17689000       3.40535000       5.68996000      -0.37931300      -0.04066200       0.07663900
P       11.88175000       2.90202000       6.96583000       0.17354500      -0.15551800       0.31884500
P       12.92968000       1.86157000       5.30309000      -0.04034400      -0.02380400       0.12975000
P       14.77808000       1.51609000       6.51779000      -0.06920500       0.21498000      -0.14789300
P        8.95555000       4.56250000       7.14392000      -0.12151600      -0.10799200       0.25118400
P        8.92133000       1.59319000       5.91281000      -0.15685600      -0.09540900      -0.29364400
P       12.09333000      12.20672000       5.47719000       0.11816100      -0.15430000      -0.09515100
P        9.98067000      12.32120000       4.93003000      -0.21254400      -0.08155600       0.08551900
P        1.55096000      11.33017000       1.39388000       0.28352800      -0.21337000      -0.18073700
P        3.72788000      11.04485000       1.75524000       0.03204000      -0.28747400      -0.04878500
P        4.61360000       0.49770000       0.99268000       0.15094300      -0.22008100       0.14630100
P        6.72369000      12.29329000       1.49440000       0.13603400       0.06653800      -0.14603900
P        1.11262000       9.26562000       2.14542000      -0.04159500      -0.15109400       0.23685100
P        2.73215000       8.98647000      12.36347000      -0.37926600       0.04069200       0.07659100
P        4.43701000       9.48980000       0.29233000       0.17358500       0.15562500       0.31877600
P        5.48494000      10.53025000      11.97659000      -0.04040400       0.02391300       0.12984400
P        7.33334000      10.87574000      13.19129000      -0.06924100      -0.21495700      -0.14786800
P        1.51081000       7.82933000       0.47041000      -0.12155000       0.10791400       0.25119000
P        1.47659000      10.79863000      12.58631000      -0.15682200       0.09547100      -0.29363900
P        4.64859000       0.18512000      12.15069000       0.11820400       0.15411700      -0.09512400
P        2.53593000       0.07063000      11.60353000      -0.21255200       0.08149500       0.08557000
P       13.33855000       7.25756000       1.39388000      -0.28335200       0.21328600      -0.18074900
P       11.16165000       7.54288000       1.75524000      -0.03217400       0.28746500      -0.04873500
P       10.27593000       5.69823000       0.99268000      -0.15095500       0.22005000       0.14629200
P        8.16584000       6.29444000       1.49440000      -0.13604900      -0.06653300      -0.14603900
P       13.77690000       9.32210000       2.14542000       0.04161600       0.15117300       0.23684900
P       12.15737000       9.60125000      12.36347000       0.37936600      -0.04066600       0.07658500
P       10.45252000       9.09792000       0.29233000      -0.17365500      -0.15554000       0.31876600
P        9.40458000       8.05747000      11.97659000       0.04046900      -0.02384100       0.12982200
P        7.55619000       7.71199000      13.19129000       0.06917600       0.21489200      -0.14784600
P       13.37872000      10.75840000       0.47041000       0.12149300      -0.10797400       0.25116700
P       13.41294000       7.78909000      12.58631000       0.15681600      -0.09537400      -0.29362500
P       10.24094000       6.01081000      12.15069000      -0.11819900      -0.15419100      -0.09512600
P       12.35360000       6.12530000      11.60353000       0.21254100      -0.08158000       0.08555100
P        8.99570000       7.25755000       5.27962000       0.28353000       0.21340300       0.18080200
P       11.17262000       7.54288000       4.91827000       0.03202300       0.28746700       0.04870600
P       12.05834000       5.69823000       5.68082000       0.15094900       0.22003400      -0.14621000
P       14.16843000       6.29444000       5.17911000       0.13605700      -0.06653900       0.14598400
P        8.55736000       9.32210000       4.52808000      -0.04164100       0.15113000      -0.23682000
P       10.17689000       9.60125000       7.65705000      -0.37931000      -0.04065100      -0.07662100
P       11.88175000       9.09792000       6.38118000       0.17355400      -0.15550600      -0.31882200
P       12.92968000       8.05747000       8.04392000      -0.04036000      -0.02378700      -0.12970800
P       14.77808000       7.71199000       6.82923000      -0.06919500       0.21493800       0.14783600
P        8.95555000      10.75840000       6.20309000      -0.12153300      -0.10801800      -0.25116000
P        8.92133000       7.78909000       7.43421000      -0.15686100      -0.09541300       0.29356000
P       12.09333000       6.01082000       7.86983000       0.11816200      -0.15431600       0.09506400
P        9.98067000       6.12530000       8.41699000      -0.21254900      -0.08157100      -0.08555900
P        5.89381000      11.33017000       5.27962000      -0.28335300      -0.21335900       0.18080600
P        3.71691000      11.04485000       4.91827000      -0.03217900      -0.28751400       0.04872000
P        2.83119000       0.49770000       5.68082000      -0.15096200      -0.22005800      -0.14621400
P        0.72110000      12.29329000       5.17911000      -0.13605500       0.06654600       0.14598400
P        6.33215000       9.26562000       4.52808000       0.04168000      -0.15111300      -0.23682600
P        4.71263000       8.98647000       7.65705000       0.37943900       0.04070400      -0.07660800
P        3.00778000       9.48980000       6.38118000      -0.17363000       0.15560500      -0.31884500
P        1.95984000      10.53025000       8.04392000       0.04048100       0.02392800      -0.12973900
P        0.11145000      10.87574000       6.82923000       0.06917900      -0.21497500       0.14778900
P        5.93398000       7.82932000       6.20309000       0.12148500       0.10805400      -0.25110700
P        5.96820000      10.79864000       7.43421000       0.15676500       0.09533300       0.29358700
P        2.79620000       0.18512000       7.86983000      -0.11828900       0.15412900       0.09505600
P        4.90885000       0.07063000       8.41699000       0.21263100       0.08152400      -0.08555200
104
Lattice="12.943911 0.24864 -0.016578 0.24758 13.078507 -0.10008 -0.023239 -0.133746 16.279084" Properties=species:S:1:pos:R:3:forces:R:3 energy=-562.217053357101 hash=e4724269cb8291177014383e86479694 virial="9.43688046502 -2.29643045408 -1.48755793306 -2.29643045408 17.2412984863 -0.689551531013 -1.48755793306 -0.689551531013 -1.39997563866" config_type=rss_3c pressure=0.0030588429534144515 uploaded="2020-04-10 10:56:53.299000" hash_structure=2f85a93544bd858272d2942ccbbe2898 filename=rss_3c/rss_3c_mbd2.xyz username=gabor stress="-0.0007580830773718185 0.00032315439352132656 0.00042922924780577643 0.00032315439352132656 -0.0028813952700814265 0.00017078341956919732 0.00042922924780577643 0.00017078341956919732 -0.008921341761649307" volume=2754.658509512892 n_atoms=104 free_energy=-568.50559371 modified="2020-04-10 10:56:53.299000" formula=P104 miguel_caro=T pbc="T T T"
P       11.56466000      11.71978000       2.43582000      -0.35614000       0.09652500      -0.40681300
P       11.51399000      10.28244000       4.11301000      -0.11699800      -0.23215800      -0.14766600
P       11.50866000      11.84246000       5.67230000      -0.37260100      -0.02538800       0.48715900
P       11.32961000      10.55544000       7.56835000       0.39690000       0.09196500      -0.05174100
P       11.36653000      10.43519000       0.54418000       0.53560900       0.04062800       0.07495200
P        8.41953000      10.30399000       2.34860000       0.10010900      -0.26023600       0.14042400
P        9.47892000       9.35829000       4.07124000      -0.02514000       0.08223600       0.01039900
P        8.37528000      10.36833000       5.72777000       0.19342000      -0.28710500      -0.03009000
P        9.52161000       9.27819000       7.32820000      -0.39263600      -0.48084500      -0.30443900
P        9.55102000       9.18788000       0.76564000      -0.42233900      -0.77874100       0.34974100
P        9.42757000      12.27072000       2.11207000      -0.04699200       0.28439400       0.18666400
P        9.36073000      12.35953000       5.93696000      -0.10409000       0.20278600      -0.21867900
P        8.55582000      12.90350000       3.99024000      -0.30189300       0.48057500       0.09655000
P        1.67220000       1.41810000       2.34905000       0.37225800       0.02917200      -0.49117100
P        1.66806000       2.97743000       3.90906000       0.11016300       0.22845100       0.15344400
P        1.61706000       1.53883000       5.58569000       0.35740500      -0.09063100       0.41071600
P        1.81424000       2.82386000       7.47870000      -0.55214800      -0.04827100      -0.08543300
P        1.84999000       2.70680000       0.45327000      -0.39835100      -0.08678400       0.05643700
P        4.80419000       2.89448000       2.29303000      -0.18884300       0.28511000       0.03348200
P        3.70225000       3.90173000       3.95210000       0.02825000      -0.08082200      -0.01423800
P        4.76254000       2.95520000       5.67444000      -0.10305700       0.25968900      -0.14661200
P        3.62796000       4.07029000       7.25545000       0.43461000       0.79352300      -0.33961900
P        3.65850000       3.98484000       0.69258000       0.38827100       0.47379000       0.30550900
P        3.81996000       0.90254000       2.08223000       0.10625300      -0.20398200       0.22147900
P        3.75452000       0.98849000       5.90958000       0.04400500      -0.28569900      -0.19034900
P        4.62487000       0.35887000       4.02936000       0.30359400      -0.48756500      -0.08888300
P       11.41600000       1.89460000      13.69041000      -0.03859800       0.48061300       0.46224500
P        9.95914000       2.00931000      12.04039000      -0.43473300       0.10424400       0.13599300
P       11.45166000       2.02195000      10.44108000      -0.10264300       0.42055700      -0.52825200
P       10.03836000       2.21202000       8.63452000       0.24181200      -0.38315600      -0.00682900
P       10.04498000       2.01667000      15.52042000       0.08839500      -0.33497300       0.16239000
P        9.97948000       5.06385000      13.83963000      -0.21112100      -0.20725000       0.01533500
P        9.02188000       4.06409000      12.10844000       0.07301500      -0.22832200       0.03627000
P        9.95475000       5.17064000      10.43283000      -0.18004100      -0.14872200       0.01593800
P        8.74879000       4.00422000       8.89693000      -0.22263700       0.44026600       0.34987800
P        8.76321000       3.83317000      15.32729000      -0.16791900       0.44023700      -0.34370200
P       11.95476000       4.03374000      14.03792000       0.17121200       0.08358800      -0.18793900
P       11.94706000       4.18053000      10.21152000       0.21540600       0.09315500       0.14035100
P       12.64760000       4.88573000      12.15138000       0.48408200       0.19020600       0.01766200
P        1.70872000      11.10480000      13.86087000       0.10202100      -0.41742400       0.53610700
P        3.20044000      11.11226000      12.26045000       0.43094500      -0.11445800      -0.12753700
P        1.74096000      11.23315000      10.61258000       0.03622500      -0.48424200      -0.46255600
P        3.10908000      11.10916000       8.78138000      -0.08429600       0.33502500      -0.16235800
P        3.12012000      10.91159000      15.66957000      -0.24011400       0.39715300      -0.00303100
P        3.19611000       7.95153000      13.87593000       0.18287000       0.14822300      -0.02973600
P        4.12529000       9.05142000      12.19393000      -0.05636200       0.23363400      -0.04356100
P        3.16668000       8.05938000      10.45833000       0.21961800       0.20737800      -0.00527400
P        4.39014000       9.29231000       8.97700000       0.16397200      -0.43933800       0.34331900
P        4.40873000       9.11986000      15.40567000       0.22170500      -0.44579100      -0.34976800
P        1.20749000       8.94784000      14.09532000      -0.22428000      -0.08781700      -0.14063400
P        1.19460000       9.09534000      10.26306000      -0.16817900      -0.07623100       0.19017100
P        0.50942000       8.24536000      12.15346000      -0.48547100      -0.19557100      -0.02286600
P       10.84316000       2.22637000       2.48414000      -0.25686000       0.02029200       0.17254800
P       11.28758000       3.80122000       3.98025000       0.32635600      -0.05473000       0.07102600
P       10.81080000       2.29253000       5.54161000      -0.17516500       0.07416800      -0.42258500