12
Lattice="5.729829999999999 3.1320217257930285e-16 0.0 -2.864915 4.962178339366189 0.0 0.0 0.0 9.19236" Properties=species:S:1:pos:R:3:initial_magmoms:R:1:castep_labels:S:1 n_minim_iter=1 pbc="T T T"
P       -0.34204163       1.97073310       0.13847187       0.00000000 NULL
P        1.32923089       3.68059505       3.20259187       0.00000000 NULL
P       -0.98718926       4.27302853       6.26671187       0.00000000 NULL
P       -0.69966582       4.64696340       1.14173615       0.00000000 NULL
P       -0.80964044       2.03276827       4.20585615       0.00000000 NULL
P        1.50930627       3.24462502       7.26997615       0.00000000 NULL
P       -0.62667237       3.37705959       2.69554926       0.00000000 NULL
P        0.25363179       2.73093435       5.75966926       0.00000000 NULL
P        0.37304058       3.81636274       8.82378926       0.00000000 NULL
P        2.60686494       3.59528429       4.77228264       0.00000000 NULL
P        1.31279000       0.45996912       7.83640264       0.00000000 NULL
P        4.67509006       0.90692494       1.70816264       0.00000000 NULL
12
Lattice="5.737721825115507 6.923114576903583e-16 0.0 -2.8688609125577544 4.969012860398443 0.0 0.0 0.0 9.224436605699069" Properties=species:S:1:pos:R:3:initial_magmoms:R:1:castep_labels:S:1 n_minim_iter=2 pbc="T T T"
P       -0.34253984       1.97326465       0.13872499       0.00000000 NULL
P        1.33123352       3.68573233       3.21353719       0.00000000 NULL
P       -0.98869368       4.27902874       6.28834940       0.00000000 NULL
P       -0.70077344       4.65382411       1.14571341       0.00000000 NULL
P       -0.81108227       2.03521321       4.22052561       0.00000000 NULL
P        1.51185571       3.24898841       7.29533781       0.00000000 NULL
P       -0.62765268       3.38166869       2.70501664       0.00000000 NULL
P        0.25407626       2.73461535       5.77982885       0.00000000 NULL
P        0.37357643       3.82174169       8.85464105       0.00000000 NULL
P        2.61061735       3.60017966       4.78911103       0.00000000 NULL
P        1.31456611       0.46077112       7.86392324       0.00000000 NULL
P        4.68139928       0.90806209       1.71429883       0.00000000 NULL
12
Lattice="5.8920040130021025 9.577383554184053e-16 0.0 -2.946002006501052 5.1026251544596795 0.0 0.0 0.0 9.87802592758415" Properties=species:S:1:pos:R:3:initial_magmoms:R:1:castep_labels:S:1 n_minim_iter=3 pbc="T T T"
P       -0.35234906       2.02250859       0.14363208       0.00000000 NULL
P        1.37063272       3.78622763       3.43630739       0.00000000 NULL
P       -1.01828366       4.39651410       6.72898269       0.00000000 NULL
P       -0.72251577       4.78841851       1.22675335       0.00000000 NULL
P       -0.83963218       2.08269889       4.51942866       0.00000000 NULL
P        1.56214796       3.33413291       7.81210397       0.00000000 NULL
P       -0.64689418       3.47169163       2.89799635       0.00000000 NULL
P        0.26287595       2.80655255       6.19067166       0.00000000 NULL
P        0.38401823       3.92700613       9.48334697       0.00000000 NULL
P        2.68403461       3.69577278       5.13218186       0.00000000 NULL
P        1.34935360       0.47655577       8.42485717       0.00000000 NULL
P        4.80461782       0.93029661       1.83950655       0.00000000 NULL
12
Lattice="5.891629115349031 1.423507534219679e-16 0.0 -2.9458145576745154 5.102300483568301 0.0 0.0 0.0 10.110519222912876" Properties=species:S:1:pos:R:3:initial_magmoms:R:1:castep_labels:S:1 n_minim_iter=4 pbc="T T T"
P       -0.35348834       2.01865735       0.14393943       0.00000000 NULL
P        1.37435019       3.78684193       3.51411251       0.00000000 NULL
P       -1.02086184       4.39910170       6.88428558       0.00000000 NULL
P       -0.72330734       4.79456394       1.25557465       0.00000000 NULL
P       -0.84474594       2.07861598       4.62574772       0.00000000 NULL
P        1.56805328       3.33142105       7.99592079       0.00000000 NULL
P       -0.64765582       3.46982971       2.96724412       0.00000000 NULL
P        0.26468180       2.80649923       6.33741719       0.00000000 NULL
P        0.38297403       3.92827203       9.70759027       0.00000000 NULL
P        2.68387367       3.69396827       5.25506098       0.00000000 NULL
P        1.35062192       0.47731864       8.62523406       0.00000000 NULL
P        4.80294809       0.93101357       1.88488791       0.00000000 NULL
12
Lattice="5.841372635334036 2.385189572065518e-16 0.0 -2.920686317667018 5.058777095170529 0.0 0.0 0.0 10.258065558299192" Properties=species:S:1:pos:R:3:initial_magmoms:R:1:castep_labels:S:1 n_minim_iter=5 pbc="T T T"
P       -0.35217256       1.99674707       0.14295610       0.00000000 NULL
P        1.36753891       3.75541318       3.56231129       0.00000000 NULL
P       -1.01536635       4.36539395       6.98166647       0.00000000 NULL
P       -0.71721880       4.76045146       1.27413427       0.00000000 NULL
P       -0.84337618       2.05742166       4.69348945       0.00000000 NULL
P        1.56059498       3.29968107       8.11284464       0.00000000 NULL
P       -0.64297583       3.43793901       3.01150244       0.00000000 NULL
P        0.26483171       2.78297419       6.43085763       0.00000000 NULL
P        0.37814412       3.89664099       9.85021281       0.00000000 NULL
P        2.66009831       3.66040259       5.33364094       0.00000000 NULL
P        1.34132185       0.47351142       8.75299613       0.00000000 NULL
P        4.76063880       0.92486309       1.91428576       0.00000000 NULL
12
Lattice="5.826349670549832 3.123698869226972e-17 0.0 -2.913174835274916 5.045766826027251 0.0 0.0 0.0 10.279072258097464" Properties=species:S:1:pos:R:3:initial_magmoms:R:1:castep_labels:S:1 n_minim_iter=6 pbc="T T T"
P       -0.35168435       1.99055676       0.14265647       0.00000000 NULL
P        1.36514429       3.74592087       3.56901389       0.00000000 NULL
P       -1.01345994       4.35505603       6.99537131       0.00000000 NULL
P       -0.71525760       4.74955030       1.27688598       0.00000000 NULL
P       -0.84242758       2.05156042       4.70324340       0.00000000 NULL
P        1.55768519       3.29042293       8.12960082       0.00000000 NULL
P       -0.64158852       3.42857329       3.01778167       0.00000000 NULL
P        0.26473753       2.77584822       6.44413909       0.00000000 NULL
P        0.37685100       3.88711214       9.87049651       0.00000000 NULL
P        2.65305538       3.65049787       5.34490095       0.00000000 NULL
P        1.33839809       0.47236442       8.77125837       0.00000000 NULL
P        4.74807104       0.92290454       1.91854353       0.00000000 NULL
12
Lattice="5.613193888762522 -2.9193770751286335e-16 0.0 -2.8065969443812606 4.861168504035908 0.0 0.0 0.0 10.583712965282212" Properties=species:S:1:pos:R:3:initial_magmoms:R:1:castep_labels:S:1 n_minim_iter=7 pbc="T T T"
P       -0.34470584       1.90301678       0.13824822       0.00000000 NULL
P        1.33088899       3.61113610       3.66615255       0.00000000 NULL
P       -0.98618315       4.20818413       7.19405687       0.00000000 NULL
P       -0.68723269       4.59414600       1.31711000       0.00000000 NULL
P       -0.82843385       1.96893453       4.84501433       0.00000000 NULL
P        1.51566655       3.15925648       8.37291865       0.00000000 NULL
P       -0.62216059       3.29586333       3.10859506       0.00000000 NULL
P        0.26337587       2.67442996       6.63649938       0.00000000 NULL
P        0.35878473       3.75204372      10.16440370       0.00000000 NULL
P        2.55340421       3.51003168       5.50818745       0.00000000 NULL
P        1.29671519       0.45629707       9.03609177       0.00000000 NULL
P        4.56967144       0.89483976       1.98028313       0.00000000 NULL
12
Lattice="5.402806457665592 2.0988174152943273e-16 0.0 -2.701403228832796 4.678967644069018 0.0 0.0 0.0 10.905865927988955" Properties=species:S:1:pos:R:3:initial_magmoms:R:1:castep_labels:S:1 n_minim_iter=8 pbc="T T T"
P       -0.33973869       1.81326963       0.13516070       0.00000000 NULL
P        1.30093502       3.47811050       3.77044935       0.00000000 NULL
P       -0.96119632       4.06655517       7.40573799       0.00000000 NULL
P       -0.65677911       4.44010526       1.36387652       0.00000000 NULL
P       -0.81545116       1.89012762       4.99916516       0.00000000 NULL
P        1.47223028       3.02770241       8.63445380       0.00000000 NULL
P       -0.60872554       3.16363987       3.20011482       0.00000000 NULL
P        0.26597351       2.56997593       6.83540347       0.00000000 NULL
P        0.34275203       3.62431949      10.47069211       0.00000000 NULL
P        2.45753585       3.37019975       5.67957013       0.00000000 NULL
P        1.25535994       0.44318860       9.31485877       0.00000000 NULL
P        4.39131390       0.86557930       2.04428149       0.00000000 NULL
12
Lattice="5.286750824024022 -1.5075766547915467e-16 0.0 -2.6433754120120105 4.578460517083118 0.0 0.0 0.0 11.224760104780843" Properties=species:S:1:pos:R:3:initial_magmoms:R:1:castep_labels:S:1 n_minim_iter=9 pbc="T T T"
P       -0.34179122       1.75315686       0.13454104       0.00000000 NULL
P        1.29599264       3.40588221       3.87612774       0.00000000 NULL
P       -0.95420142       3.99788197       7.61771444       0.00000000 NULL
P       -0.63672154       4.36246720       1.41340946       0.00000000 NULL
P       -0.81627123       1.84580989       5.15499617       0.00000000 NULL
P        1.45299277       2.94864395       8.89658287       0.00000000 NULL
P       -0.61099256       3.08618756       3.28614177       0.00000000 NULL
P        0.27615487       2.50623166       7.02772847       0.00000000 NULL
P        0.33483769       3.56450182      10.76931518       0.00000000 NULL
P        2.40633111       3.29012249       5.84811006       0.00000000 NULL
P        1.23425561       0.43888263       9.58969677       0.00000000 NULL
P        4.28953952       0.84945540       2.10652336       0.00000000 NULL
12
Lattice="5.157829066101063 6.89903363318518e-16 0.0 -2.578914533050532 4.466810999621288 0.0 0.0 0.0 11.193674923643611" Properties=species:S:1:pos:R:3:initial_magmoms:R:1:castep_labels:S:1 n_minim_iter=10 pbc="T T T"
P       -0.34301939       1.68914298       0.13097524       0.00000000 NULL
P        1.28758350       3.32517601       3.86220021       0.00000000 NULL
P       -0.94456411       3.91930302       7.59342519       0.00000000 NULL
P       -0.61348790       4.27335801       1.42077815       0.00000000 NULL
P       -0.81517811       1.79883589       5.15200312       0.00000000 NULL
P        1.42866602       2.86142811       8.88322810       0.00000000 NULL
P       -0.61284449       3.00052219       3.26761324       0.00000000 NULL
P        0.28680834       2.43581100       6.99883821       0.00000000 NULL
P        0.32603616       3.49728881      10.73006319       0.00000000 NULL
P        2.34988636       3.20256432       5.83325305       0.00000000 NULL
P        1.20938383       0.43377913       9.56447803       0.00000000 NULL
P        4.17747341       0.83046756       2.10202808       0.00000000 NULL
12
Lattice="5.188274397593904 3.433446464150543e-16 0.0 -2.594137198796952 4.493177430120726 0.0 0.0 0.0 11.38536391756229" Properties=species:S:1:pos:R:3:initial_magmoms:R:1:castep_labels:S:1 n_minim_iter=11 pbc="T T T"
P       -0.34889125       1.69035390       0.13099148       0.00000000 NULL
P        1.30469341       3.34585179       3.92611279       0.00000000 NULL
P       -0.95580215       3.95014917       7.72123410       0.00000000 NULL
P       -0.61467863       4.30621986       1.44954073       0.00000000 NULL
P       -0.82781928       1.80774019       5.24466203       0.00000000 NULL
P        1.44249791       2.87239481       9.03978334       0.00000000 NULL
P       -0.62362510       3.01422048       3.31987487       0.00000000 NULL
P        0.29555824       2.44599201       7.11499618       0.00000000 NULL
P        0.32806686       3.52614237      10.91011749       0.00000000 NULL
P        2.36491047       3.21893761       5.93463615       0.00000000 NULL
P        1.21813742       0.43860374       9.72975745       0.00000000 NULL
P        4.19936371       0.83563608       2.13951484       0.00000000 NULL
12
Lattice="5.154865300102816 -3.589934495368858e-16 0.0 -2.5774326500514078 4.464244302975933 0.0 0.0 0.0 11.332572838750217" Properties=species:S:1:pos:R:3:initial_magmoms:R:1:castep_labels:S:1 n_minim_iter=12 pbc="T T T"
P       -0.34877281       1.67476225       0.12900494       0.00000000 NULL
P        1.30143240       3.32481706       3.90652922       0.00000000 NULL
P       -0.95265959       3.92890929       7.68405349       0.00000000 NULL
P       -0.60862933       4.28300447       1.44573941       0.00000000 NULL
P       -0.82744336       1.79565360       5.22326369       0.00000000 NULL
P        1.43607270       2.84983053       9.00078797       0.00000000 NULL
P       -0.62326558       2.99219557       3.30246347       0.00000000 NULL
P        0.29774807       2.42838269       7.07998775       0.00000000 NULL
P        0.32551752       3.50791035      10.85751203       0.00000000 NULL
P        2.35041057       3.19649661       5.90759604       0.00000000 NULL
P        1.21141275       0.43726696       9.68512032       0.00000000 NULL
P        4.17047464       0.83048074       2.13007176       0.00000000 NULL
12
Lattice="5.141050461648693 6.080949574025003e-16 0.0 -2.570525230824347 4.452280301925483 0.0 0.0 0.0 11.345562336244761" Properties=species:S:1:pos:R:3:initial_magmoms:R:1:castep_labels:S:1 n_minim_iter=13 pbc="T T T"
P       -0.35026769       1.66484674       0.12734022       0.00000000 NULL
P        1.30385951       3.31651622       3.90919433       0.00000000 NULL
P       -0.95359181       3.92319765       7.69104845       0.00000000 NULL
P       -0.60488969       4.27679791       1.45060386       0.00000000 NULL
P       -0.83084556       1.79003151       5.23245797       0.00000000 NULL
P        1.43573526       2.83773119       9.01431208       0.00000000 NULL
P       -0.62584963       2.98130513       3.30403516       0.00000000 NULL
P        0.30156407       2.41962606       7.08588927       0.00000000 NULL
P        0.32428556       3.50362942      10.86774339       0.00000000 NULL
P        2.34495679       3.18609430       5.91518625       0.00000000 NULL
P        1.20933346       0.43774500       9.69704036       0.00000000 NULL
P        4.15728544       0.82844100       2.13333214       0.00000000 NULL
12
Lattice="4.898370420624131 2.8064368979611677e-16 0.0 -2.4491852103120655 4.242113221406762 0.0 0.0 0.0 11.536190896381212" Properties=species:S:1:pos:R:3:initial_magmoms:R:1:castep_labels:S:1 n_minim_iter=14 pbc="T T T"
P       -0.37609027       1.49169634       0.09158483       0.00000000 NULL
P        1.34538343       3.17056132       3.93698179       0.00000000 NULL
P       -0.96929315       3.82196879       7.78237876       0.00000000 NULL
P       -0.53861253       4.16989573       1.53579099       0.00000000 NULL
P       -0.89274415       1.69071322       5.38118795       0.00000000 NULL
P        1.43135669       2.62361750       9.22658492       0.00000000 NULL
P       -0.66966553       2.78963089       3.32006720       0.00000000 NULL
P        0.36812676       2.26735042       7.16546417       0.00000000 NULL
P        0.30153877       3.42724514      11.01086113       0.00000000 NULL
P        2.24973527       3.00339235       6.03113689       0.00000000 NULL
P        1.17248871       0.44663172       9.87653386       0.00000000 NULL
P        3.92533165       0.79208915       2.18573993       0.00000000 NULL
12
Lattice="4.876624393426849 1.4110702302692158e-15 0.0 -2.4383121967134254 4.2232806094225275 0.0 0.0 0.0 10.958515039029763" Properties=species:S:1:pos:R:3:initial_magmoms:R:1:castep_labels:S:1 n_minim_iter=15 pbc="T T T"
P       -0.39780969       1.41970866      -0.00266144       0.00000000 NULL
P        1.40771328       3.16891298       3.65017690       0.00000000 NULL
P       -1.00990358       3.85793958       7.30301525       0.00000000 NULL
P       -0.52328750       4.24664164       1.48612065       0.00000000 NULL
P       -0.97774359       1.64677952       5.13895899       0.00000000 NULL
P        1.50103110       2.55314006       8.79179734       0.00000000 NULL
P       -0.70719161       2.74441082       3.18676866       0.00000000 NULL
P        0.41517852       2.23862930       6.83960700       0.00000000 NULL
P        0.29201310       3.46352111      10.49244535       0.00000000 NULL
P        2.25535406       2.98704802       5.75859852       0.00000000 NULL
P        1.16208790       0.45966990       9.41143686       0.00000000 NULL
P        3.89749463       0.77656269       2.10576017       0.00000000 NULL
12
Lattice="5.000806609388891 9.945827074653136e-16 0.0 -2.500403304694446 4.330825563143901 0.0 0.0 0.0 11.714602206671033" Properties=species:S:1:pos:R:3:initial_magmoms:R:1:castep_labels:S:1 n_minim_iter=16 pbc="T T T"
P       -0.41113957       1.45212324      -0.01328818       0.00000000 NULL
P        1.44839748       3.24870663       3.89157923       0.00000000 NULL
P       -1.03725790       3.96082126       7.79644663       0.00000000 NULL
P       -0.53958582       4.36370092       1.59376744       0.00000000 NULL
P       -1.00887964       1.68168008       5.49863484       0.00000000 NULL
P        1.54846546       2.61627013       9.40350224       0.00000000 NULL
P       -0.72503009       2.81420514       3.40955375       0.00000000 NULL
P        0.42574521       2.29582852       7.31442115       0.00000000 NULL
P        0.29928489       3.55161747      11.21928855       0.00000000 NULL
P        2.31288027       3.06400159       6.15833446       0.00000000 NULL
P        1.19086326       0.47101228      10.06320186       0.00000000 NULL
P        3.99746638       0.79581170       2.25346706       0.00000000 NULL
12
Lattice="4.903092731503316 8.384172081517068e-16 0.0 -2.4515463657516583 4.246202862592702 0.0 0.0 0.0 11.287330712403566" Properties=species:S:1:pos:R:3:initial_magmoms:R:1:castep_labels:S:1 n_minim_iter=17 pbc="T T T"
P       -0.40349335       1.42335750      -0.01615354       0.00000000 NULL
P        1.42062929       3.18508863       3.74629003       0.00000000 NULL
P       -1.01713594       3.88395961       7.50873360       0.00000000 NULL
P       -0.52814744       4.28036404       1.53715723       0.00000000 NULL
P       -0.99128391       1.64863175       5.29960080       0.00000000 NULL
P        1.51943135       2.56340995       9.06204437       0.00000000 NULL
P       -0.71021560       2.75908289       3.28695115       0.00000000 NULL
P        0.41721829       2.25159666       7.04939472       0.00000000 NULL
P        0.29299731       3.48172617      10.81183829       0.00000000 NULL
P        2.26850263       3.00418097       5.93379364       0.00000000 NULL
P        1.16714439       0.46249042       9.69623722       0.00000000 NULL
P        3.91899209       0.77953148       2.17135007       0.00000000 NULL
