6
Lattice="3.0377799999999993 -6.496754617437406e-17 5.0724107307602207e-17 -0.7992134360324447 4.525520708842817 -7.384457122653155e-16 -0.07179607354642936 -0.9599243784363755 9.544310313710826" Properties=species:S:1:pos:R:3:initial_magmoms:R:1:castep_labels:S:1 n_minim_iter=1 pbc="T T T"
P        2.79975209      -0.47725447       6.89931469       0.00000000 NULL
P        1.19839843       2.23245770       4.06329637       0.00000000 NULL
P        1.61763064       0.39700348       8.36907834       0.00000000 NULL
P        0.80490158      -0.27940929       3.18943172       0.00000000 NULL
P        1.48670011       0.77624650       0.74640420       0.00000000 NULL
P       -0.10507383       2.71759252       9.24865335       0.00000000 NULL
6
Lattice="3.0361974748843132 0.0001471519917034898 -0.0007334903263226702 -0.7985778683741162 4.52203230485451 0.0009894384746206583 -0.0741097022427493 -0.9575163908992514 9.546627555202805" Properties=species:S:1:pos:R:3:initial_magmoms:R:1:castep_labels:S:1 n_minim_iter=2 pbc="T T T"
P        2.79678519      -0.47561628       6.90038354       0.00000000 NULL
P        1.19684906       2.23160078       4.06434474       0.00000000 NULL
P        1.61461284       0.39839102       8.37066208       0.00000000 NULL
P        0.80375359      -0.27868200       3.19009688       0.00000000 NULL
P        1.48583958       0.77580408       0.74671839       0.00000000 NULL
P       -0.10718711       2.71714859       9.25144466       0.00000000 NULL
6
Lattice="2.9044800824845445 0.012061926678305723 -0.06265573548394847 -0.7461741823433756 4.235357422872567 0.08467448818794841 -0.269313309547829 -0.7555218304546658 9.752599415041109" Properties=species:S:1:pos:R:3:initial_magmoms:R:1:castep_labels:S:1 n_minim_iter=3 pbc="T T T"
P        2.54759112      -0.33794856       6.99781593       0.00000000 NULL
P        1.06677682       2.16255653       4.15721017       0.00000000 NULL
P        1.36170210       0.51521929       8.51313284       0.00000000 NULL
P        0.70704642      -0.21732940       3.24976030       0.00000000 NULL
P        1.41326440       0.74038170       0.77508625       0.00000000 NULL
P       -0.28579614       2.68435911       9.49695594       0.00000000 NULL
6
Lattice="2.8876113612793897 0.023667784203052548 -0.09252154031924409 -0.7244463886229706 4.210791694863504 0.1892677477471756 -0.3664165055459473 -0.5472174874639598 10.114577371909236" Properties=species:S:1:pos:R:3:initial_magmoms:R:1:castep_labels:S:1 n_minim_iter=4 pbc="T T T"
P        2.47320053      -0.18208491       7.23570628       0.00000000 NULL
P        1.02739658       2.24628607       4.35301275       0.00000000 NULL
P        1.26161891       0.70353045       8.82381037       0.00000000 NULL
P        0.67133183      -0.14936934       3.36582348       0.00000000 NULL
P        1.40588732       0.76820629       0.83734965       0.00000000 NULL
P       -0.37135466       2.86002185       9.91297678       0.00000000 NULL
6
Lattice="2.8267458931321148 0.019459857497627867 -0.105822528583244 -0.7147019566736466 4.122949011382323 0.23856537837992645 -0.4054382801365694 -0.431662192731761 10.114308014235284" Properties=species:S:1:pos:R:3:initial_magmoms:R:1:castep_labels:S:1 n_minim_iter=5 pbc="T T T"
P        2.39313509      -0.10817123       7.23012929       0.00000000 NULL
P        0.98204834       2.24403591       4.37284280       0.00000000 NULL
P        1.18595198       0.77660701       8.81702119       0.00000000 NULL
P        0.64197340      -0.11614996       3.36373453       0.00000000 NULL
P        1.37324754       0.76184426       0.85198426       0.00000000 NULL
P       -0.41441089       2.90119833       9.94422214       0.00000000 NULL
6
Lattice="2.844750073824668 0.013601233244915656 -0.11360413533670977 -0.7281665619101133 4.140162142051328 0.26806554496185925 -0.42846129787689874 -0.37694984977559315 10.225582939829643" Properties=species:S:1:pos:R:3:initial_magmoms:R:1:castep_labels:S:1 n_minim_iter=6 pbc="T T T"
P        2.39660308      -0.07498448       7.30574939       0.00000000 NULL
P        0.97461093       2.27382948       4.43412031       0.00000000 NULL
P        1.16921679       0.82544323       8.90946340       0.00000000 NULL
P        0.63885066      -0.09995428       3.39853830       0.00000000 NULL
P        1.37938072       0.76987940       0.87216604       0.00000000 NULL
P       -0.44411811       2.96593900      10.07077633       0.00000000 NULL
6
Lattice="2.8373784635104404 0.006728803763790878 -0.11880793454209938 -0.7364653300659898 4.1246917263312275 0.28723680526081624 -0.4424650799651958 -0.33557766151110346 10.241330915840635" Properties=species:S:1:pos:R:3:initial_magmoms:R:1:castep_labels:S:1 n_minim_iter=7 pbc="T T T"
P        2.38175297      -0.05322598       7.31560582       0.00000000 NULL
P        0.95995587       2.27872528       4.44963933       0.00000000 NULL
P        1.14687610       0.85188148       8.91821003       0.00000000 NULL
P        0.63171144      -0.08905267       3.40235204       0.00000000 NULL
P        1.37286180       0.76839186       0.88016249       0.00000000 NULL
P       -0.46538968       2.99320113      10.09868623       0.00000000 NULL
6
Lattice="2.8380321537999933 -0.006166786497284425 -0.1269251260926379 -0.755848464737249 4.111193916429943 0.3197291118669651 -0.46390874473497035 -0.2676678845881477 10.27920257820173" Properties=species:S:1:pos:R:3:initial_magmoms:R:1:castep_labels:S:1 n_minim_iter=8 pbc="T T T"
P        2.37056953      -0.01866092       7.34095524       0.00000000 NULL
P        0.94065599       2.29242780       4.48157323       0.00000000 NULL
P        1.11757199       0.89722176       8.94245083       0.00000000 NULL
P        0.62363775      -0.07114900       3.41236531       0.00000000 NULL
P        1.36776441       0.76772548       0.89529716       0.00000000 NULL
P       -0.50041983       3.04732010      10.15747177       0.00000000 NULL
6
Lattice="2.847909451101247 -0.03929001226436803 -0.14093668527366598 -0.8077922897895786 4.075182455865943 0.3861477986318413 -0.4976979026265463 -0.12509568323783807 10.306981486626904" Properties=species:S:1:pos:R:3:initial_magmoms:R:1:castep_labels:S:1 n_minim_iter=9 pbc="T T T"
P        2.36362398       0.04772051       7.36224406       0.00000000 NULL
P        0.90476751       2.31304609       4.52811070       0.00000000 NULL
P        1.06655082       0.98407216       8.94314703       0.00000000 NULL
P        0.61103022      -0.03519174       3.41625990       0.00000000 NULL
P        1.35863432       0.76182929       0.92512127       0.00000000 NULL
P       -0.56795312       3.15603214      10.23247865       0.00000000 NULL
6
Lattice="2.896769026562535 -0.061290849190707195 -0.13576918601751034 -0.8534224777260087 4.064052829038887 0.4188867406799157 -0.47566489480999663 -0.049073632139141496 10.2915114506928" Properties=species:S:1:pos:R:3:initial_magmoms:R:1:castep_labels:S:1 n_minim_iter=10 pbc="T T T"
P        2.43212180       0.07799656       7.36787111       0.00000000 NULL
P        0.92141714       2.32633091       4.54690432       0.00000000 NULL
P        1.09230931       1.02730766       8.90777680       0.00000000 NULL
P        0.62500711      -0.01803164       3.41002019       0.00000000 NULL
P        1.37357959       0.75935553       0.95113543       0.00000000 NULL
P       -0.56584392       3.22297956      10.24971485       0.00000000 NULL
6
Lattice="2.8930593311609623 -0.06318809762861852 -0.13297481579317028 -0.8552729075422094 4.037354699767127 0.42134479563548277 -0.46619814832280115 -0.03652536805033717 10.242977016312949" Properties=species:S:1:pos:R:3:initial_magmoms:R:1:castep_labels:S:1 n_minim_iter=11 pbc="T T T"
P        2.43650255       0.08366785       7.33793167       0.00000000 NULL
P        0.92387887       2.31591235       4.52907895       0.00000000 NULL
P        1.09606661       1.02869280       8.86132646       0.00000000 NULL
P        0.62567349      -0.01585160       3.39425433       0.00000000 NULL
P        1.37064647       0.75468700       0.95171652       0.00000000 NULL
P       -0.55714603       3.21464862      10.20726091       0.00000000 NULL
6
Lattice="2.903653451524014 -0.06441114221898568 -0.13108241860508982 -0.8598821540836457 4.030515917341381 0.42530500030973506 -0.46011639122607095 -0.025575537685080547 10.237547806251134" Properties=species:S:1:pos:R:3:initial_magmoms:R:1:castep_labels:S:1 n_minim_iter=12 pbc="T T T"
P        2.45205339       0.08946302       7.33729129       0.00000000 NULL
P        0.93121472       2.31641422       4.53023868       0.00000000 NULL
P        1.10502971       1.03521883       8.85321980       0.00000000 NULL
P        0.62913994      -0.01346825       3.39256298       0.00000000 NULL
P        1.37492236       0.75443492       0.95614821       0.00000000 NULL
P       -0.55143255       3.22009317      10.20713240       0.00000000 NULL
6
Lattice="2.9040732476014406 -0.06446471842802412 -0.1310009472415601 -0.8600724137169875 4.030077442312462 0.4254496370926203 -0.45985341057101914 -0.025128031440808257 10.237055595105314" Properties=species:S:1:pos:R:3:initial_magmoms:R:1:castep_labels:S:1 n_minim_iter=13 pbc="T T T"
P        2.45269034       0.08968865       7.33707916       0.00000000 NULL
P        0.93152056       2.31634578       4.53015989       0.00000000 NULL
P        1.10539667       1.03544084       8.85263258       0.00000000 NULL
P        0.62927509      -0.01337976       3.39240273       0.00000000 NULL
P        1.37508448       0.75439243       0.95631243       0.00000000 NULL
P       -0.55118395       3.22018692      10.20686244       0.00000000 NULL
6
Lattice="2.9256145047760693 -0.06718589363131203 -0.12684931606436986 -0.8697935906612905 4.00772431199281 0.43274232191932943 -0.44645876020317676 -0.002486639387520697 10.211954492813376" Properties=species:S:1:pos:R:3:initial_magmoms:R:1:castep_labels:S:1 n_minim_iter=14 pbc="T T T"
P        2.48531220       0.10108940       7.32624122       0.00000000 NULL
P        0.94720572       2.31278214       4.52609519       0.00000000 NULL
P        1.12413350       1.04660561       8.82269599       0.00000000 NULL
P        0.63616742      -0.00891272       3.38421905       0.00000000 NULL
P        1.38340650       0.75222556       0.96465192       0.00000000 NULL
P       -0.53848360       3.22478547      10.19302991       0.00000000 NULL
6
Lattice="2.950606352173636 -0.06945450145760565 -0.12330840933434743 -0.8797483773573476 3.981615765811122 0.43793050164482616 -0.4352074885287962 0.016138114479245715 10.184024024276088" Properties=species:S:1:pos:R:3:initial_magmoms:R:1:castep_labels:S:1 n_minim_iter=15 pbc="T T T"
P        2.51974072       0.10987182       7.31239728       0.00000000 NULL
P        0.96417621       2.30579382       4.51903597       0.00000000 NULL
P        1.14321913       1.05407869       8.78960097       0.00000000 NULL
P        0.64290107      -0.00588322       3.37476932       0.00000000 NULL
P        1.39315119       0.74930657       0.97214286       0.00000000 NULL
P       -0.52736308       3.22188306      10.17489077       0.00000000 NULL
6
Lattice="2.980027210799051 -0.07100658772829982 -0.12043422447397543 -0.8898009631512431 3.9512989615769194 0.4413238916142339 -0.42638206485580077 0.03144343383751045 10.153711817809768" Properties=species:S:1:pos:R:3:initial_magmoms:R:1:castep_labels:S:1 n_minim_iter=16 pbc="T T T"
P        2.55671308       0.11682808       7.29586922       0.00000000 NULL
P        0.98294615       2.29552362       4.50934270       0.00000000 NULL
P        1.16304606       1.05846295       8.75377098       0.00000000 NULL
P        0.64963200      -0.00395578       3.36414310       0.00000000 NULL
P        1.40481933       0.74587213       0.97899320       0.00000000 NULL
P       -0.51774301       3.21171247      10.15298137       0.00000000 NULL
6
Lattice="3.014803868121373 -0.07157191891585324 -0.11832706423669902 -0.899792598420721 3.915632159479839 0.4430920588673022 -0.4204049240071202 0.043951992494429916 10.11973967432067" Properties=species:S:1:pos:R:3:initial_magmoms:R:1:castep_labels:S:1 n_minim_iter=17 pbc="T T T"
P        2.59682131       0.12261340       7.27569834       0.00000000 NULL
P        1.00396063       2.28162325       4.49652108       0.00000000 NULL
P        1.18384122       1.05999322       8.71408184       0.00000000 NULL
P        0.65645077      -0.00283191       3.35184365       0.00000000 NULL
P        1.41884823       0.74198317       0.98514047       0.00000000 NULL
P       -0.50963116       3.19382573      10.12609101       0.00000000 NULL
6
Lattice="3.057068740272135 -0.07065258093240645 -0.1170153158329538 -0.9095425377226389 3.8741961888796603 0.4434953099301448 -0.4175729918042768 0.05424638295783008 10.082300882684232" Properties=species:S:1:pos:R:3:initial_magmoms:R:1:castep_labels:S:1 n_minim_iter=18 pbc="T T T"
P        2.64192807       0.12816543       7.25202946       0.00000000 NULL
P        1.02843110       2.26428470       4.48080446       0.00000000 NULL
P        1.20662592       1.05928823       8.67074550       0.00000000 NULL
P        0.66379222      -0.00208889       3.33788168       0.00000000 NULL
P        1.43632096       0.73797812       0.99071545       0.00000000 NULL
P       -0.50258816       3.16846707      10.09455391       0.00000000 NULL
6
Lattice="3.1097337022626754 -0.06725661419482527 -0.116159985815576 -0.9183391021326762 3.8253861546443746 0.4429141964687317 -0.41720346986313794 0.06357890024686598 10.03930370061155" Properties=species:S:1:pos:R:3:initial_magmoms:R:1:castep_labels:S:1 n_minim_iter=19 pbc="T T T"
P        2.69538518       0.13535435       7.22373811       0.00000000 NULL
P        1.05875205       2.24355404       4.46171114       0.00000000 NULL
P        1.23376215       1.05744635       8.62225324       0.00000000 NULL
P        0.67261256      -0.00091410       3.32161012       0.00000000 NULL
P        1.45890486       0.73423393       0.99578633       0.00000000 NULL
P       -0.49448588       3.13576152      10.05673205       0.00000000 NULL
6
Lattice="3.174774156396087 -0.06107545627925639 -0.11592312530543745 -0.92624232312881 3.765942318303571 0.44220579876111255 -0.41994969348326533 0.07433413144700621 9.987839341483415" Properties=species:S:1:pos:R:3:initial_magmoms:R:1:castep_labels:S:1 n_minim_iter=20 pbc="T T T"
P        2.75859156       0.14611439       7.18859791       0.00000000 NULL
P        1.09578303       2.21853300       4.43840521       0.00000000 NULL
P        1.26586906       1.05575112       8.56633190       0.00000000 NULL
P        0.68314138       0.00184758       3.30195991       0.00000000 NULL
P        1.48745728       0.73042726       1.00013709       0.00000000 NULL
P       -0.48540472       3.09543278      10.01046120       0.00000000 NULL
6
Lattice="3.248620528891402 -0.05354898263629645 -0.11842603919477745 -0.9344581257098479 3.697990305763432 0.4399823187133154 -0.43193716853830927 0.08207169875465213 9.933173163633953" Properties=species:S:1:pos:R:3:initial_magmoms:R:1:castep_labels:S:1 n_minim_iter=21 pbc="T T T"
P        2.82367828       0.15593465       7.14830611       0.00000000 NULL
P        1.13417383       2.18750142       4.41114286       0.00000000 NULL
P        1.29544369       1.05018737       8.50588576       0.00000000 NULL
P        0.69236159       0.00459340       3.28016148       0.00000000 NULL
P        1.51904698       0.72582627       1.00283609       0.00000000 NULL
P       -0.48309245       3.04445359       9.95919027       0.00000000 NULL
6
Lattice="3.2798326601294674 -0.04885953713643537 -0.12032531504782046 -0.9356836825079236 3.664382363036406 0.43812555909145073 -0.4401239693070867 0.08385814125206043 9.910752475024347" Properties=species:S:1:pos:R:3:initial_magmoms:R:1:castep_labels:S:1 n_minim_iter=22 pbc="T T T"
P        2.84894681       0.16044327       7.13100995       0.00000000 NULL
P        1.15065071       2.17148757       4.39883717       0.00000000 NULL
P        1.30607615       1.04623319       8.47969229       0.00000000 NULL
P        0.69489184       0.00594399       3.27071371       0.00000000 NULL
P        1.53200231       0.72400306       1.00403468       0.00000000 NULL
P       -0.48283510       3.01710762       9.93732217       0.00000000 NULL
6
Lattice="3.460763158988364 -0.017083608814770203 -0.13404384970863473 -0.9359468562774809 3.471685713318587 0.42914048177428127 -0.4975430514981843 0.09564609713672188 9.806078510131723" Properties=species:S:1:pos:R:3:initial_magmoms:R:1:castep_labels:S:1 n_minim_iter=23 pbc="T T T"
P        2.98844133       0.19243961       7.04612851       0.00000000 NULL
P        1.24718474       2.08232868       4.33785465       0.00000000 NULL
P        1.36170684       1.02790852       8.34750037       0.00000000 NULL
P        0.70469077       0.01631835       3.22320157       0.00000000 NULL
P        1.60533097       0.71702301       1.01398197       0.00000000 NULL
P       -0.48362140       2.86172604       9.83595691       0.00000000 NULL
6
Lattice="3.498279353909685 0.03749403458055282 -0.15467185752751236 -0.8645102122889641 3.368087146289012 0.444175494564686 -0.5804865278788162 0.1335483005383061 9.932088423002567" Properties=species:S:1:pos:R:3:initial_magmoms:R:1:castep_labels:S:1 n_minim_iter=24 pbc="T T T"
P        2.96859738       0.26979722       7.11979898       0.00000000 NULL
P        1.28538307       2.06555451       4.38740903       0.00000000 NULL
P        1.33519671       1.06983716       8.41306395       0.00000000 NULL
P        0.67402677       0.04546851       3.24953135       0.00000000 NULL
P        1.61136810       0.74668235       1.05237179       0.00000000 NULL
P       -0.47886339       2.80379110       9.97544204       0.00000000 NULL
6
Lattice="3.4884097762695014 0.011938076039735278 -0.16802248305450904 -0.8999855003456333 3.304990549204866 0.4541631648387439 -0.61412363404583 0.16261835762135443 9.89141414034014" Properties=species:S:1:pos:R:3:initial_magmoms:R:1:castep_labels:S:1 n_minim_iter=25 pbc="T T T"
P        2.93523174       0.26257437       7.07667528       0.00000000 NULL
P        1.25132337       2.02194701       4.36850582       0.00000000 NULL
P        1.28970559       1.06389103       8.36080319       0.00000000 NULL
P        0.65215307       0.05229635       3.22695833       0.00000000 NULL
P        1.58462244       0.73024828       1.05436503       0.00000000 NULL
P       -0.53072891       2.76826333       9.94873067       0.00000000 NULL
6
Lattice="3.50076124696169 0.009962584015378898 -0.17476466320643588 -0.9061780460198867 3.30782479985148 0.46499254489299774 -0.6349743617830502 0.18127228091325323 9.984600241164628" Properties=species:S:1:pos:R:3:initial_magmoms:R:1:castep_labels:S:1 n_minim_iter=26 pbc="T T T"
P        2.93150069       0.27379919       7.13669688       0.00000000 NULL
P        1.24865007       2.02887868       4.41129447       0.00000000 NULL
P        1.27967537       1.08054112       8.43081908       0.00000000 NULL
P        0.64473055       0.05911224       3.25313197       0.00000000 NULL
P        1.58277821       0.73645783       1.07036965       0.00000000 NULL
P       -0.54896153       2.78316702      10.05062168       0.00000000 NULL
6
Lattice="3.494722571951929 0.005363365042539608 -0.17815347719653551 -0.9114409914940343 3.2927548888992284 0.4694220546699924 -0.6440255230745379 0.19229568420034035 10.012767267782857" Properties=species:S:1:pos:R:3:initial_magmoms:R:1:castep_labels:S:1 n_minim_iter=27 pbc="T T T"
P        2.91800316       0.27646136       7.15316894       0.00000000 NULL
P        1.23980574       2.02084980       4.42416098       0.00000000 NULL
P        1.26852513       1.08355318       8.44744478       0.00000000 NULL
P        0.63796000       0.06247450       3.25916277       0.00000000 NULL
P        1.57325823       0.73540213       1.07781024       0.00000000 NULL
P       -0.55908754       2.77751700      10.08492268       0.00000000 NULL
6
Lattice="3.487607844777941 -0.0036766131855627215 -0.18405609147292856 -0.923036440515229 3.271101160731796 0.47758758336669666 -0.6595460273108175 0.21155282588784602 10.077113289508489" Properties=species:S:1:pos:R:3:initial_magmoms:R:1:castep_labels:S:1 n_minim_iter=28 pbc="T T T"
P        2.89762776       0.28026382       7.19247322       0.00000000 NULL
P        1.22492485       2.00909765       4.45342083       0.00000000 NULL
P        1.25100237       1.08939838       8.48934100       0.00000000 NULL
P        0.62719805       0.06794842       3.27465335       0.00000000 NULL
P        1.55816122       0.73400909       1.09257666       0.00000000 NULL
P       -0.57787460       2.77133543      10.16040803       0.00000000 NULL
6
Lattice="3.47803079382743 -0.015993505720741125 -0.1886464952424895 -0.938865843710764 3.250315442377089 0.48531763081583806 -0.6698500512942619 0.23069583053265041 10.148628208383581" Properties=species:S:1:pos:R:3:initial_magmoms:R:1:castep_labels:S:1 n_minim_iter=29 pbc="T T T"
P        2.87763680       0.28076752       7.23762438       0.00000000 NULL
P        1.20793247       1.99607150       4.48625211       0.00000000 NULL
P        1.23595685       1.09321975       8.53766002       0.00000000 NULL
P        0.61791519       0.07233467       3.29270068       0.00000000 NULL
P        1.54160717       0.73102791       1.10864097       0.00000000 NULL
P       -0.59550153       2.76536827      10.24392481       0.00000000 NULL
6
Lattice="3.4670323641998104 -0.03103769742727582 -0.19232384870277422 -0.9583842776928402 3.230730392770768 0.49260559526161685 -0.6763899824685843 0.2493750748209534 10.230472359985315" Properties=species:S:1:pos:R:3:initial_magmoms:R:1:castep_labels:S:1 n_minim_iter=30 pbc="T T T"
P        2.85797941       0.27828460       7.29044674       0.00000000 NULL
P        1.18908024       1.98219053       4.52375215       0.00000000 NULL
P        1.22295237       1.09517463       8.59478224       0.00000000 NULL
P        0.60990356       0.07560846       3.31429169       0.00000000 NULL
P        1.52418825       0.72680407       1.12612595       0.00000000 NULL
P       -0.61274521       2.75958182      10.33855777       0.00000000 NULL
6
Lattice="3.4565794740277376 -0.04788113374333946 -0.19591487126815196 -0.9807266558721447 3.211592246914283 0.4990598127998008 -0.6821030137280906 0.26639198766276784 10.320663259492008" Properties=species:S:1:pos:R:3:initial_magmoms:R:1:castep_labels:S:1 n_minim_iter=31 pbc="T T T"
P        2.83867950       0.27289368       7.34863024       0.00000000 NULL
P        1.16873677       1.96708021       4.56432866       0.00000000 NULL
P        1.21068019       1.09456443       8.65852163       0.00000000 NULL
P        0.60268579       0.07757855       3.33863573       0.00000000 NULL
P        1.50688199       0.72151209       1.14418708       0.00000000 NULL
P       -0.63134726       2.75238969      10.44192383       0.00000000 NULL
6
Lattice="3.44688903529241 -0.06591127123391259 -0.1999961943936503 -1.005037511746681 3.192480066777975 0.5050653560935702 -0.6889995336947684 0.2822793636442106 10.415253003377751" Properties=species:S:1:pos:R:3:initial_magmoms:R:1:castep_labels:S:1 n_minim_iter=32 pbc="T T T"
P        2.81872122       0.26562349       7.40880301       0.00000000 NULL
P        1.14665772       1.95108817       4.60616250       0.00000000 NULL
P        1.19760607       1.09204699       8.72546689       0.00000000 NULL
P        0.59565314       0.07857310       3.36436425       0.00000000 NULL
P        1.48984365       0.71543076       1.16206333       0.00000000 NULL
P       -0.65259278       2.74409268      10.55022280       0.00000000 NULL
6
Lattice="3.4378868394114614 -0.08496074346002615 -0.20461198261766386 -1.031047988196574 3.1738872753316363 0.5116247440827397 -0.6972694347569334 0.29900905004204414 10.511811844638151" Properties=species:S:1:pos:R:3:initial_magmoms:R:1:castep_labels:S:1 n_minim_iter=33 pbc="T T T"
P        2.79803436       0.25811648       7.46926158       0.00000000 NULL
P        1.12291797       1.93542358       4.64878143       0.00000000 NULL
P        1.18346997       1.08948640       8.79398499       0.00000000 NULL
P        0.58868902       0.07930818       3.39073071       0.00000000 NULL
P        1.47312812       0.70899560       1.17959472       0.00000000 NULL
P       -0.67653234       2.73701043      10.66166633       0.00000000 NULL
6
Lattice="3.4295983153077487 -0.10543250236576991 -0.20969993302566042 -1.0593650714105698 3.15387805364898 0.5197242498060064 -0.7065902393002021 0.31913828703408115 10.608355208939365" Properties=species:S:1:pos:R:3:initial_magmoms:R:1:castep_labels:S:1 n_minim_iter=34 pbc="T T T"
P        2.77691493       0.25178457       7.52876799       0.00000000 NULL
P        1.09737077       1.91977246       4.69195347       0.00000000 NULL
P        1.16834275       1.08821047       8.86281916       0.00000000 NULL
P        0.58186602       0.08056490       3.41717410       0.00000000 NULL
P        1.45668220       0.70193152       1.19669936       0.00000000 NULL
P       -0.70338513       2.73195907      10.77494144       0.00000000 NULL
6
Lattice="3.4236535501478818 -0.12682430796502728 -0.21647543235760355 -1.089669413084146 3.134900346517286 0.5297871462822182 -0.7209777662653799 0.34232624815045537 10.71037050054335" Properties=species:S:1:pos:R:3:initial_magmoms:R:1:castep_labels:S:1 n_minim_iter=35 pbc="T T T"
P        2.75408063       0.24697913       7.59022565       0.00000000 NULL
P        1.06951309       1.90568139       4.73759745       0.00000000 NULL
P        1.15010673       1.08891865       8.93582472       0.00000000 NULL
P        0.57417972       0.08240074       3.44528214       0.00000000 NULL
P        1.44088373       0.69505241       1.21344350       0.00000000 NULL
P       -0.73655694       2.73056318      10.89538951       0.00000000 NULL
6
Lattice="3.4220084157409443 -0.13331379205629038 -0.2189325594704402 -1.0989042757544563 3.1296824668920173 0.5334447179690817 -0.726608212009177 0.3502990031860894 10.739722401245682" Properties=species:S:1:pos:R:3:initial_magmoms:R:1:castep_labels:S:1 n_minim_iter=36 pbc="T T T"
P        2.74637228       0.24627670       7.60736693       0.00000000 NULL
P        1.06050290       1.90216622       4.75086096       0.00000000 NULL
P        1.14364285       1.08997495       8.95668873       0.00000000 NULL
P        0.57156164       0.08322712       3.45332308       0.00000000 NULL
P        1.43617683       0.69314593       1.21799977       0.00000000 NULL
P       -0.74804038       2.73155962      10.93075941       0.00000000 NULL
6
Lattice="3.4005924199423805 -0.22051982503144146 -0.25353843162728606 -1.2231847557684297 3.064134181738254 0.5865374464551633 -0.8072725132859421 0.4639013404921378 11.143620456957368" Properties=species:S:1:pos:R:3:initial_magmoms:R:1:castep_labels:S:1 n_minim_iter=37 pbc="T T T"
P        2.63960233       0.24225143       7.84198345       0.00000000 NULL
P        0.93732989       1.86056767       4.93449359       0.00000000 NULL
P        1.05379352       1.10947018       9.24288576       0.00000000 NULL
P        0.53530952       0.09640112       3.56388810       0.00000000 NULL
P        1.37205322       0.66947910       1.28083096       0.00000000 NULL
P       -0.90735745       2.75531887      11.42122590       0.00000000 NULL
6
Lattice="3.385398632425879 -0.33545999336501503 -0.3272198585822753 -1.390419062711016 3.0466699359585325 0.7061144910264724 -1.0020903339590912 0.6880414090190842 11.573537743948874" Properties=species:S:1:pos:R:3:initial_magmoms:R:1:castep_labels:S:1 n_minim_iter=38 pbc="T T T"
P        2.43246879       0.30010407       8.04418828       0.00000000 NULL
P        0.73481355       1.87839041       5.14178234       0.00000000 NULL
P        0.88425804       1.20511388       9.51418720       0.00000000 NULL
P        0.46310566       0.13674849       3.68035489       0.00000000 NULL
P        1.29332583       0.67043853       1.32395435       0.00000000 NULL
P       -1.20800248       2.91079469      12.04154989       0.00000000 NULL
6
Lattice="3.391046928128837 -0.20767672198435744 -0.31647202713939115 -1.201540458249755 3.0261832509432294 0.6774035802290491 -1.0088344577330417 0.6276481575556772 11.583158151526032" Properties=species:S:1:pos:R:3:initial_magmoms:R:1:castep_labels:S:1 n_minim_iter=39 pbc="T T T"
P        2.42871679       0.38193965       8.05406688       0.00000000 NULL
P        0.84003870       1.91095504       5.12786703       0.00000000 NULL
P        0.94645875       1.22052377       9.49174567       0.00000000 NULL
P        0.45403621       0.15044165       3.70507316       0.00000000 NULL
P        1.35932265       0.73735108       1.31011242       0.00000000 NULL
P       -1.07330657       2.85818033      12.06899926       0.00000000 NULL
6
Lattice="3.39534908812351 -0.29017226284508674 -0.3247247624074251 -1.3255697239056323 3.05029047430036 0.6885402834681564 -1.0087969513125197 0.64799627571213 11.54864393501987" Properties=species:S:1:pos:R:3:initial_magmoms:R:1:castep_labels:S:1 n_minim_iter=40 pbc="T T T"
P        2.42989685       0.31882247       8.01790155       0.00000000 NULL
P        0.77692494       1.88241035       5.11261971       0.00000000 NULL
P        0.91216149       1.19211470       9.45396332       0.00000000 NULL
P        0.44359632       0.14070722       3.69607625       0.00000000 NULL
P        1.34077965       0.70690799       1.30517547       0.00000000 NULL
P       -1.17111882       2.87381286      12.04979248       0.00000000 NULL
