27
Lattice="8.762729999999998 -5.0123196327755e-17 0.0 -4.381365 7.5887467865040135 0.0 0.0 0.0 9.04272" Properties=species:S:1:pos:R:3:initial_magmoms:R:1:castep_labels:S:1 n_minim_iter=1 pbc="T T T"
P        3.88958131       4.20033644       4.60194962       0.00000000 NULL
P        6.07417328       2.12010234       4.60194962       0.00000000 NULL
P        3.18034172       1.26830725       4.60194962       0.00000000 NULL
P        3.17169466       5.31402904       8.32303343       0.00000000 NULL
P        7.39760269       2.18496412       8.32303343       0.00000000 NULL
P        2.57479896       0.08975287       8.32303343       0.00000000 NULL
P        3.65878766       0.15887041       2.99800621       0.00000000 NULL
P        2.68955785       4.34070852       2.99800621       0.00000000 NULL
P        6.79575080       3.08916710       2.99800621       0.00000000 NULL
P        3.69088948       3.46676795       8.99220375       0.00000000 NULL
P        5.53823025       2.65895876       8.99220375       0.00000000 NULL
P        3.91497658       1.46301932       8.99220375       0.00000000 NULL
P       -1.70703107       5.92642649       1.79415432       0.00000000 NULL
P        1.60458730       6.10386581       1.79415432       0.00000000 NULL
P        0.10244508       3.14720052       1.79415432       0.00000000 NULL
P       -2.69763841       7.42980883       3.69204763       0.00000000 NULL
P        3.40185827       6.21006577       3.69204763       0.00000000 NULL
P       -0.70421855       1.53761822       3.69204763       0.00000000 NULL
P        0.60092743       1.05133208       0.23895840       0.00000000 NULL
P       -3.77134755       6.54266233       0.23895840       0.00000000 NULL
P        3.17042143       7.58349841       0.23895840       0.00000000 NULL
P        4.40175105       6.42067853       7.09852525       0.00000000 NULL
P        7.74096106       0.56637929       7.09852525       0.00000000 NULL
P        1.00138419       0.60168821       7.09852525       0.00000000 NULL
P        0.54990819       3.44972818       8.23433972       0.00000000 NULL
P       -1.66876598       5.38764823       8.23433972       0.00000000 NULL
P        1.11885910       6.34011640       8.23433972       0.00000000 NULL
27
Lattice="8.80278725277584 4.320888453484349e-16 0.0 -4.401393626387921 7.623437385013707 0.0 0.0 0.0 9.057474849803619" Properties=species:S:1:pos:R:3:initial_magmoms:R:1:castep_labels:S:1 n_minim_iter=2 pbc="T T T"
P        3.90747735       4.21956650       4.60963170       0.00000000 NULL
P        6.10190761       2.12967949       4.60963170       0.00000000 NULL
P        3.19479724       1.27419064       4.60963170       0.00000000 NULL
P        3.18589631       5.33830895       8.33666108       0.00000000 NULL
P        7.43155751       2.19521577       8.33666108       0.00000000 NULL
P        2.58672837       0.08991191       8.33666108       0.00000000 NULL
P        3.67565346       0.15951595       3.00265250       0.00000000 NULL
P        2.70171264       4.36047014       3.00265250       0.00000000 NULL
P        6.82681609       3.10345053       3.00265250       0.00000000 NULL
P        3.70759426       3.48268535       9.00698079       0.00000000 NULL
P        5.56369136       2.67122389       9.00698079       0.00000000 NULL
P        3.93289657       1.46952738       9.00698079       0.00000000 NULL
P       -1.71488632       5.95348244       1.79701476       0.00000000 NULL
P        1.61191744       6.13183128       1.79701476       0.00000000 NULL
P        0.10297019       3.16156029       1.79701476       0.00000000 NULL
P       -2.70998603       7.46376491       3.69808464       0.00000000 NULL
P        3.41741028       6.23847168       3.69808464       0.00000000 NULL
P       -0.70742294       1.54463742       3.69808464       0.00000000 NULL
P        0.60394251       1.05650290       0.23957785       0.00000000 NULL
P       -3.78840565       6.57215638       0.23957785       0.00000000 NULL
P        3.18446446       7.61821473       0.23957785       0.00000000 NULL
P        4.42216842       6.44940718       7.10975306       0.00000000 NULL
P        7.77566075       0.56902361       7.10975306       0.00000000 NULL
P        1.00635302       0.60500584       7.10975306       0.00000000 NULL
P        0.55235233       3.46548505       8.24787565       0.00000000 NULL
P       -1.67637083       5.41234371       8.24787565       0.00000000 NULL
P        1.12401980       6.36904525       8.24787565       0.00000000 NULL
27
Lattice="9.25611053112964 -7.150948675766607e-16 0.0 -4.62805526556482 8.016026860194941 0.0 0.0 0.0 9.213413556292597" Properties=species:S:1:pos:R:3:initial_magmoms:R:1:castep_labels:S:1 n_minim_iter=3 pbc="T T T"
P        4.11007941       4.43732123       4.69097032       0.00000000 NULL
P        6.41584940       2.23793307       4.69097032       0.00000000 NULL
P        3.35823838       1.34077176       4.69097032       0.00000000 NULL
P        3.34625092       5.61310454       8.48071789       0.00000000 NULL
P        7.81602185       2.31153628       8.48071789       0.00000000 NULL
P        2.72189441       0.09138524       8.48071789       0.00000000 NULL
P        3.86655268       0.16674617       3.05149311       0.00000000 NULL
P        2.83918627       4.58412093       3.05149311       0.00000000 NULL
P        7.17842823       3.26515896       3.05149311       0.00000000 NULL
P        3.89657606       3.66281213       9.16326867       0.00000000 NULL
P        5.85185651       2.81008694       9.16326867       0.00000000 NULL
P        4.13573461       1.54312699       9.16326867       0.00000000 NULL
P       -1.80387190       6.25968851       1.82709342       0.00000000 NULL
P        1.69493088       6.44838150       1.82709342       0.00000000 NULL
P        0.10894241       3.32398291       1.82709342       0.00000000 NULL
P       -2.84956819       7.84808760       3.76187298       0.00000000 NULL
P        3.59337299       6.55978151       3.76187298       0.00000000 NULL
P       -0.74380341       1.62418382       3.76187298       0.00000000 NULL
P        0.63830714       1.11532597       0.24640797       0.00000000 NULL
P       -3.98130729       6.90557368       0.24640797       0.00000000 NULL
P        3.34300153       8.01115327       0.24640797       0.00000000 NULL
P        4.65353248       6.77410817       7.22802885       0.00000000 NULL
P        8.16783971       0.59889543       7.22802885       0.00000000 NULL
P        1.06279499       0.64302246       7.22802885       0.00000000 NULL
P        0.57980926       3.64371993       8.39117172       0.00000000 NULL
P       -1.76240495       5.69203735       8.39117172       0.00000000 NULL
P        1.18259708       6.69629565       8.39117172       0.00000000 NULL
27
Lattice="9.368577902645324 4.311016567035357e-16 0.0 -4.684288951322663 8.113426461024385 0.0 0.0 0.0 9.133297281537562" Properties=species:S:1:pos:R:3:initial_magmoms:R:1:castep_labels:S:1 n_minim_iter=4 pbc="T T T"
P        4.16056229       4.49296679       4.65097424       0.00000000 NULL
P        6.49503212       2.26379043       4.65097424       0.00000000 NULL
P        3.39727384       1.35666844       4.65097424       0.00000000 NULL
P        3.38307294       5.68175572       8.40714307       0.00000000 NULL
P        7.91329821       2.34272149       8.40714307       0.00000000 NULL
P        2.75649711       0.08894844       8.40714307       0.00000000 NULL
P        3.91340546       0.16787586       3.02321371       0.00000000 NULL
P        2.87297192       4.64037999       3.02321371       0.00000000 NULL
P        7.26649088       3.30516980       3.02321371       0.00000000 NULL
P        3.94333907       3.70693377       9.08431639       0.00000000 NULL
P        5.92291917       2.84492777       9.08431639       0.00000000 NULL
P        4.18661002       1.56156412       9.08431639       0.00000000 NULL
P       -1.82668971       6.33609534       1.80995242       0.00000000 NULL
P        1.71627636       6.52733849       1.80995242       0.00000000 NULL
P        0.11041475       3.36341829       1.80995242       0.00000000 NULL
P       -2.88206242       7.94405224       3.72882931       0.00000000 NULL
P        3.63649424       6.63733961       3.72882931       0.00000000 NULL
P       -0.75443042       1.64546026       3.72882931       0.00000000 NULL
P        0.64859325       1.13227658       0.24609864       0.00000000 NULL
P       -4.02800436       6.98558994       0.24609864       0.00000000 NULL
P        3.37941251       8.10898560       0.24609864       0.00000000 NULL
P        4.71314126       6.85191885       7.16256964       0.00000000 NULL
P        8.26165504       0.60576697       7.16256964       0.00000000 NULL
P        1.07807195       0.65573983       7.16256964       0.00000000 NULL
P        0.58465673       3.68668008       8.32061612       0.00000000 NULL
P       -1.78385778       5.76375884       8.32061612       0.00000000 NULL
P        1.19920245       6.77641319       8.32061612       0.00000000 NULL
27
Lattice="9.442813703624306 9.50809362961705e-16 0.0 -4.721406851812155 8.17771655054247 0.0 0.0 0.0 8.975617440443385" Properties=species:S:1:pos:R:3:initial_magmoms:R:1:castep_labels:S:1 n_minim_iter=5 pbc="T T T"
P        4.19423667       4.53133530       4.57160068       0.00000000 NULL
P        6.54854094       2.27973339       4.57160068       0.00000000 NULL
P        3.42144435       1.36664704       4.57160068       0.00000000 NULL
P        3.40449799       5.72749697       8.26223298       0.00000000 NULL
P        7.97931667       2.36558632       8.26223298       0.00000000 NULL
P        2.78040730       0.08463245       8.26223298       0.00000000 NULL
P        3.94385202       0.16781514       2.96877253       0.00000000 NULL
P        2.89481396       4.67833295       2.96877253       0.00000000 NULL
P        7.32555599       3.33156765       2.96877253       0.00000000 NULL
P        3.97423471       3.73531473       8.92835474       0.00000000 NULL
P        5.96916788       2.86827096       8.92835474       0.00000000 NULL
P        4.22081937       1.57413004       8.92835474       0.00000000 NULL
P       -1.84239940       6.38687153       1.77685498       0.00000000 NULL
P        1.73098678       6.57984547       1.77685498       0.00000000 NULL
P        0.11141403       3.38871529       1.77685498       0.00000000 NULL
P       -2.90129720       8.00804915       3.66391396       0.00000000 NULL
P        3.66441668       6.68628906       3.66391396       0.00000000 NULL
P       -0.76311807       1.66109409       3.66391396       0.00000000 NULL
P        0.65698135       1.14558291       0.24410849       0.00000000 NULL
P       -4.05779269       7.03596256       0.24410849       0.00000000 NULL
P        3.40081275       8.17388682       0.24410849       0.00000000 NULL
P        4.75461382       6.90087264       7.03570352       0.00000000 NULL
P        8.32043190       0.60966388       7.03570352       0.00000000 NULL
P        1.08917625       0.66717922       7.03570352       0.00000000 NULL
P        0.58597196       3.71358506       8.18052683       0.00000000 NULL
P       -1.79833289       5.81345742       8.18052683       0.00000000 NULL
P        1.21236234       6.82838981       8.18052683       0.00000000 NULL
27
Lattice="9.646189931191977 -2.8967221659464305e-16 0.0 -4.823094965595989 8.353845530141916 0.0 0.0 0.0 8.402449721759677" Properties=species:S:1:pos:R:3:initial_magmoms:R:1:castep_labels:S:1 n_minim_iter=6 pbc="T T T"
P        4.28860606       4.64086285       4.28360297       0.00000000 NULL
P        6.69789802       2.31937232       4.28360297       0.00000000 NULL
P        3.48278226       1.39360954       4.28360297       0.00000000 NULL
P        3.45535201       5.85346123       7.73577415       0.00000000 NULL
P        8.16466605       2.43469230       7.73577415       0.00000000 NULL
P        2.84926828       0.06569117       7.73577415       0.00000000 NULL
P        4.02674384       0.16483305       2.77005490       0.00000000 NULL
P        2.95247361       4.78416655       2.77005490       0.00000000 NULL
P        7.49006889       3.40484510       2.77005490       0.00000000 NULL
P        4.05959490       3.81057950       8.36150732       0.00000000 NULL
P        6.09335713       2.93284347       8.36150732       0.00000000 NULL
P        4.31633431       1.61042173       8.36150732       0.00000000 NULL
P       -1.88709911       6.52612294       1.65595679       0.00000000 NULL
P        1.77224380       6.72505983       1.65595679       0.00000000 NULL
P        0.11485674       3.45650746       1.65595679       0.00000000 NULL
P       -2.94795897       8.18542752       3.42799983       0.00000000 NULL
P        3.73967365       6.81413913       3.42799983       0.00000000 NULL
P       -0.79171324       1.70812358       3.42799983       0.00000000 NULL
P        0.68390530       1.18715503       0.23725452       0.00000000 NULL
P       -4.13694024       7.16798865       0.23725452       0.00000000 NULL
P        3.45303638       8.35254655       0.23725452       0.00000000 NULL
P        4.87390156       7.02968224       6.57418700       0.00000000 NULL
P        8.47402854       0.61808184       6.57418700       0.00000000 NULL
P        1.12135623       0.70608062       6.57418700       0.00000000 NULL
P        0.58459572       3.78281791       7.67174465       0.00000000 NULL
P       -1.83937546       5.95616183       7.67174465       0.00000000 NULL
P        1.25478118       6.96871049       7.67174465       0.00000000 NULL
27
Lattice="9.76548509594043 -9.742350569747651e-16 0.0 -4.882742547970215 8.457158173362728 0.0 0.0 0.0 8.459412698874564" Properties=species:S:1:pos:R:3:initial_magmoms:R:1:castep_labels:S:1 n_minim_iter=7 pbc="T T T"
P        4.35089444       4.70906581       4.31909446       0.00000000 NULL
P        6.78546692       2.33464015       4.31909446       0.00000000 NULL
P        3.51186774       1.41345137       4.31909446       0.00000000 NULL
P        3.47806017       5.92668039       7.78988023       0.00000000 NULL
P        8.27636922       2.48172952       7.78988023       0.00000000 NULL
P        2.89379972       0.04874742       7.78988023       0.00000000 NULL
P        4.07759474       0.15810833       2.77798415       0.00000000 NULL
P        2.98087198       4.84680338       2.77798415       0.00000000 NULL
P        7.58976238       3.45224562       2.77798415       0.00000000 NULL
P        4.11151961       3.85091641       8.42088615       0.00000000 NULL
P        6.16197515       2.97101954       8.42088615       0.00000000 NULL
P        4.37473434       1.63522139       8.42088615       0.00000000 NULL
P       -1.91420521       6.60549966       1.66099162       0.00000000 NULL
P        1.79489154       6.81215869       1.66099162       0.00000000 NULL
P        0.11931513       3.49665716       1.66099162       0.00000000 NULL
P       -2.96985013       8.29255372       3.45025593       0.00000000 NULL
P        3.78374567       6.88284698       3.45025593       0.00000000 NULL
P       -0.81389408       1.73891481       3.45025593       0.00000000 NULL
P        0.70183238       1.21566236       0.25033631       0.00000000 NULL
P       -4.18086328       7.24152232       0.25033631       0.00000000 NULL
P        3.47903235       8.45713082       0.25033631       0.00000000 NULL
P        4.94710787       7.10240601       6.60420808       0.00000000 NULL
P        8.56005362       0.62163407       6.60420808       0.00000000 NULL
P        1.14106761       0.73311725       6.60420808       0.00000000 NULL
P        0.57955640       3.81743025       7.73404516       0.00000000 NULL
P       -1.86652820       6.04653249       7.73404516       0.00000000 NULL
P        1.28697326       7.05035277       7.73404516       0.00000000 NULL
27
Lattice="9.640903365547269 -5.604051534504334e-17 0.0 -4.820451682773635 8.349267229994826 0.0 0.0 0.0 8.3272735502955" Properties=species:S:1:pos:R:3:initial_magmoms:R:1:castep_labels:S:1 n_minim_iter=8 pbc="T T T"
P        4.29660793       4.65223388       4.25231025       0.00000000 NULL
P        6.70110140       2.30217867       4.25231025       0.00000000 NULL
P        3.46364716       1.39485385       4.25231025       0.00000000 NULL
P        3.42923058       5.85188952       7.66846608       0.00000000 NULL
P        8.17372233       2.45352167       7.66846608       0.00000000 NULL
P        2.85840357       0.04385521       7.66846608       0.00000000 NULL
P        4.02493493       0.15457886       2.73268317       0.00000000 NULL
P        2.94185439       4.78628190       2.73268317       0.00000000 NULL
P        7.49456716       3.40840564       2.73268317       0.00000000 NULL
P        4.05971023       3.79995388       8.28996391       0.00000000 NULL
P        6.08145412       2.93347810       8.28996391       0.00000000 NULL
P        4.32019213       1.61583442       8.28996391       0.00000000 NULL
P       -1.89069867       6.52110948       1.63322350       0.00000000 NULL
P        1.77234508       6.72610557       1.63322350       0.00000000 NULL
P        0.11835503       3.45131859       1.63322350       0.00000000 NULL
P       -2.92753019       8.18855556       3.39607133       0.00000000 NULL
P        3.73481151       6.79030497       3.39607133       0.00000000 NULL
P       -0.80727988       1.71967310       3.39607133       0.00000000 NULL
P        0.69460291       1.20277370       0.24823841       0.00000000 NULL
P       -4.12611959       7.14633662       0.24823841       0.00000000 NULL
P        3.43151813       8.34942331       0.24823841       0.00000000 NULL
P        4.88664822       7.00925620       6.49876016       0.00000000 NULL
P        8.44732246       0.61267763       6.49876016       0.00000000 NULL
P        1.12738580       0.72733257       6.49876016       0.00000000 NULL
P        0.56891986       3.76505179       7.61616940       0.00000000 NULL
P       -1.84428015       5.97404229       7.61616940       0.00000000 NULL
P        1.27536174       6.95943955       7.61616940       0.00000000 NULL
27
Lattice="9.671068016083069 -6.425985480067451e-16 0.0 -4.8355340080415345 8.37539058365511 0.0 0.0 0.0 8.335865427155293" Properties=species:S:1:pos:R:3:initial_magmoms:R:1:castep_labels:S:1 n_minim_iter=9 pbc="T T T"
P        4.31173852       4.66899597       4.25777952       0.00000000 NULL
P        6.72313483       2.30681751       4.25777952       0.00000000 NULL
P        3.47173012       1.39957627       4.25777952       0.00000000 NULL
P        3.43625913       5.87041402       7.67662239       0.00000000 NULL
P        8.20133307       2.46429588       7.67662239       0.00000000 NULL
P        2.86901126       0.04067986       7.67662239       0.00000000 NULL
P        4.03794875       0.15364589       2.73346574       0.00000000 NULL
P        2.94962183       4.80160144       2.73346574       0.00000000 NULL
P        7.51903288       3.42014242       2.73346574       0.00000000 NULL
P        4.07247289       3.81082521       8.29907206       0.00000000 NULL
P        6.09956996       2.94311301       8.29907206       0.00000000 NULL
P        4.33456062       1.62145154       8.29907206       0.00000000 NULL
P       -1.89729810       6.54101216       1.63371676       0.00000000 NULL
P        1.77779870       6.74799286       1.63371676       0.00000000 NULL
P        0.11950084       3.46177532       1.63371676       0.00000000 NULL
P       -2.93402380       8.21551414       3.39953950       0.00000000 NULL
P        3.74632281       6.80857266       3.39953950       0.00000000 NULL
P       -0.81229756       1.72669353       3.39953950       0.00000000 NULL
P        0.69863581       1.20902505       0.25063174       0.00000000 NULL
P       -4.13780454       7.16584170       0.25063174       0.00000000 NULL
P        3.43917017       8.37591358       0.25063174       0.00000000 NULL
P        4.90441892       7.02864940       6.50285274       0.00000000 NULL
P        8.47031444       0.61371451       6.50285274       0.00000000 NULL
P        1.13187011       0.73302585       6.50285274       0.00000000 NULL
P        0.56839105       3.77437256       7.62588690       0.00000000 NULL
P       -1.85102605       5.99596322       7.62588690       0.00000000 NULL
P        1.28263645       6.98044456       7.62588690       0.00000000 NULL
27
Lattice="9.67259627386595 2.3471596750253604e-15 0.0 -4.836298136932978 8.376714093718615 0.0 0.0 0.0 8.317831330364518" Properties=species:S:1:pos:R:3:initial_magmoms:R:1:castep_labels:S:1 n_minim_iter=10 pbc="T T T"
P        4.31413313       4.67234415       4.24962267       0.00000000 NULL
P        6.72560126       2.30439313       4.24962267       0.00000000 NULL
P        3.46916146       1.39997598       4.24962267       0.00000000 NULL
P        3.43271197       5.87170018       7.66026399       0.00000000 NULL
P        8.20498463       2.46804823       7.66026399       0.00000000 NULL
P        2.87119925       0.03696485       7.66026399       0.00000000 NULL
P        4.03887767       0.15218819       2.72539705       0.00000000 NULL
P        2.94865910       4.80284933       2.72539705       0.00000000 NULL
P        7.52135908       3.42167574       2.72539705       0.00000000 NULL
P        4.07325803       3.81020673       8.28173197       0.00000000 NULL
P        6.09940590       2.94406580       8.28173197       0.00000000 NULL
P        4.33623192       1.62244073       8.28173197       0.00000000 NULL
P       -1.89836866       6.54152525       1.62878307       0.00000000 NULL
P        1.77801420       6.74998696       1.62878307       0.00000000 NULL
P        0.12035590       3.46191515       1.62878307       0.00000000 NULL
P       -2.93129354       8.21839548       3.39212754       0.00000000 NULL
P        3.74668886       6.80609103       3.39212754       0.00000000 NULL
P       -0.81539388       1.72894085       3.39212754       0.00000000 NULL
P        0.70071399       1.21188604       0.25231509       0.00000000 NULL
P       -4.13713007       7.16393496       0.25231509       0.00000000 NULL
P        3.43641753       8.37760636       0.25231509       0.00000000 NULL
P        4.90786987       7.02708499       6.48607935       0.00000000 NULL
P        8.46799829       0.61283162       6.48607935       0.00000000 NULL
P        1.13302770       0.73679665       6.48607935       0.00000000 NULL
P        0.56582820       3.77205009       7.61156122       0.00000000 NULL
P       -1.85252008       6.00066745       7.61156122       0.00000000 NULL
P        1.28669332       6.98070981       7.61156122       0.00000000 NULL
27
Lattice="9.741837292681181 -2.5445132929966263e-16 0.0 -4.8709186463405905 8.43667857499652 0.0 0.0 0.0 7.9508315064123" Properties=species:S:1:pos:R:3:initial_magmoms:R:1:castep_labels:S:1 n_minim_iter=11 pbc="T T T"
P        4.38487774       4.76691746       4.08490433       0.00000000 NULL
P        6.80675237       2.25580433       4.08490433       0.00000000 NULL
P        3.42112729       1.41395595       4.08490433       0.00000000 NULL
P        3.36314911       5.92212500       7.32747246       0.00000000 NULL
P        8.31805576       2.56304351       7.32747246       0.00000000 NULL
P        2.93155253      -0.04849077       7.32747246       0.00000000 NULL
P        4.07574533       0.11987381       2.55751495       0.00000000 NULL
P        2.93686072       4.84704268       2.55751495       0.00000000 NULL
P        7.60015135       3.46976125       2.55751495       0.00000000 NULL
P        4.10468823       3.81000970       7.93011608       0.00000000 NULL
P        6.11814069       2.97690944       7.93011608       0.00000000 NULL
P        4.38992847       1.64975859       7.93011608       0.00000000 NULL
P       -1.92960271       6.57503845       1.52623558       0.00000000 NULL
P        1.78803400       6.82024432       1.52623558       0.00000000 NULL
P        0.14157016       3.47807355       1.52623558       0.00000000 NULL
P       -2.87873680       8.31506441       3.24190822       0.00000000 NULL
P        3.76950774       6.77220557       3.24190822       0.00000000 NULL
P       -0.89076948       1.78608633       3.24190822       0.00000000 NULL
P        0.75141645       1.28182407       0.29037291       0.00000000 NULL
P       -4.13653369       7.14502081       0.29037291       0.00000000 NULL
P        3.38511870       8.44651143       0.29037291       0.00000000 NULL
P        5.00476894       7.01613737       6.14070579       0.00000000 NULL
P        8.44468834       0.59435285       6.14070579       0.00000000 NULL
P        1.16330011       0.82618752       6.14070579       0.00000000 NULL
P        0.50869231       3.73073073       7.32282335       0.00000000 NULL
P       -1.89435625       6.13077275       7.32282335       0.00000000 NULL
P        1.38566539       7.01185283       7.32282335       0.00000000 NULL
27
Lattice="10.431731666277507 1.034136477953995e-15 0.0 -5.215865833138754 9.03414462845889 0.0 0.0 0.0 9.120332757741583" Properties=species:S:1:pos:R:3:initial_magmoms:R:1:castep_labels:S:1 n_minim_iter=12 pbc="T T T"
P        4.71623435       5.13392702       4.68762971       0.00000000 NULL
P        7.30386091       2.38280236       4.68762971       0.00000000 NULL
P        3.62750379       1.51741435       4.68762971       0.00000000 NULL
P        3.58426462       6.34501125       8.40127722       0.00000000 NULL
P        8.91867549       2.75757479       8.40127722       0.00000000 NULL
P        3.14465895      -0.06844231       8.40127722       0.00000000 NULL
P        4.38783531       0.13194764       2.90648055       0.00000000 NULL
P        3.13621922       5.16819396       2.90648055       0.00000000 NULL
P        8.12354452       3.73400213       2.90648055       0.00000000 NULL
P        4.37831669       4.07844103       9.11224804       0.00000000 NULL
P        6.55874206       3.20319064       9.11224804       0.00000000 NULL
P        4.71054030       1.75251207       9.11224804       0.00000000 NULL
P       -2.06992842       7.01750141       1.75147531       0.00000000 NULL
P        1.89643391       7.31800452       1.75147531       0.00000000 NULL
P        0.17349607       3.73278243       1.75147531       0.00000000 NULL
P       -3.06352957       8.93846720       3.72874903       0.00000000 NULL
P        4.05683965       7.21800546       3.72874903       0.00000000 NULL
P       -0.99330853       1.91181570       3.72874903       0.00000000 NULL
P        0.82200346       1.38719135       0.35935544       0.00000000 NULL
P       -4.42552358       7.62867307       0.35935544       0.00000000 NULL
P        3.60352167       9.05242394       0.35935544       0.00000000 NULL
P        5.37617332       7.50316835       7.02398562       0.00000000 NULL
P        9.02571461       0.62665778       7.02398562       0.00000000 NULL
P        1.24571113       0.90431760       7.02398562       0.00000000 NULL
P        0.53632552       3.96593223       8.39660096       0.00000000 NULL
P       -2.04942950       6.58670699       8.39660096       0.00000000 NULL
P        1.51310553       7.51564914       8.39660096       0.00000000 NULL
27
Lattice="9.52767127689956 -1.2608965475460656e-16 0.0 -4.76383563844978 8.251205364702338 0.0 0.0 0.0 8.35186765059619" Properties=species:S:1:pos:R:3:initial_magmoms:R:1:castep_labels:S:1 n_minim_iter=13 pbc="T T T"
P        4.30427569       4.69242938       4.28990553       0.00000000 NULL
P        6.67546178       2.17737858       4.28990553       0.00000000 NULL
P        3.31177086       1.38139659       4.28990553       0.00000000 NULL
P        3.27405365       5.79919268       7.69314313       0.00000000 NULL
P        8.14905794       2.51619539       7.69314313       0.00000000 NULL
P        2.86839674      -0.06418352       7.69314313       0.00000000 NULL
P        4.00237383       0.12076694       2.66328283       0.00000000 NULL
P        2.86723691       4.72466448       2.66328283       0.00000000 NULL
P        7.42189760       3.40577312       2.66328283       0.00000000 NULL
P        4.00058261       3.72189624       8.34431530       0.00000000 NULL
P        5.98680197       2.92565107       8.34431530       0.00000000 NULL
P        4.30412375       1.60365723       8.34431530       0.00000000 NULL
P       -1.89148297       6.41113637       1.60091321       0.00000000 NULL
P        1.73411376       6.68370948       1.60091321       0.00000000 NULL
P        0.15737063       3.40756405       1.60091321       0.00000000 NULL
P       -2.79219617       8.16610470       3.41425820       0.00000000 NULL
P        3.70431751       6.58626583       3.41425820       0.00000000 NULL
P       -0.91211992       1.75003938       3.41425820       0.00000000 NULL
P        0.74850228       1.26639753       0.32583233       0.00000000 NULL
P       -4.04135340       6.96978461       0.32583233       0.00000000 NULL
P        3.29285254       8.26622777       0.32583233       0.00000000 NULL
P        4.90909912       6.85674248       6.43610495       0.00000000 NULL
P        8.24740020       0.57142958       6.43610495       0.00000000 NULL
P        1.13500902       0.82303249       6.43610495       0.00000000 NULL
P        0.48695727       3.61786793       7.69316727       0.00000000 NULL
P       -1.87414779       6.02055404       7.69316727       0.00000000 NULL
P        1.38719195       6.86398794       7.69316727       0.00000000 NULL
27
Lattice="9.63678188683814 -2.861432888115466e-15 0.0 -4.818390943419067 8.345697924731564 0.0 0.0 0.0 8.266102195657638" Properties=species:S:1:pos:R:3:initial_magmoms:R:1:castep_labels:S:1 n_minim_iter=14 pbc="T T T"
P        4.35371007       4.74653769       4.24571993       0.00000000 NULL
P        6.75215908       2.20200556       4.24571993       0.00000000 NULL
P        3.34930512       1.39715385       4.24571993       0.00000000 NULL