16
Lattice="5.0931079382917535 -0.1523544611904265 -0.13822737126725787 1.9512340808742157 7.300878801756077 0.43204716507104346 1.9005574287383855 1.7218912911525024 9.065346603689944" Properties=species:S:1:pos:R:3:initial_magmoms:R:1:castep_labels:S:1:forces:R:3 n_minim_iter=1 energy=-81.899657798391 stress="-0.0008672430424962389 0.00013257369542774255 0.0004948093806763083 0.00013257369542774255 0.0001245694696304504 0.0004164272584243067 0.0004948093806763083 0.0004164272584243067 -0.00132176448665951" free_energy=-81.899657798391 pbc="T T T"
P        1.72118191       1.82885851       6.37094112       0.00000000 NULL      -0.20017300       0.67505000      -0.63101800
P        4.71432501       2.98691174       8.84134133       0.00000000 NULL      -0.25941700      -0.28741600       0.03709200
P        5.17261613       7.67410986       5.90473877       0.00000000 NULL      -0.29470900       0.39216000       0.10640600
P        3.72661934       1.52840887       1.75778250       0.00000000 NULL       0.28461000      -0.01183200      -0.07495200
P        4.33051242       2.70303824       4.82317247       0.00000000 NULL       0.37621200      -0.36953800      -0.36845800
P        3.37413714       3.75519862       1.74051231       0.00000000 NULL      -0.08447900      -0.04480300      -1.04200900
P        6.16148336       4.01476150       7.46309138       0.00000000 NULL       0.02564000      -0.00113000       0.14764200
P        3.31684240       4.81918537       4.33964251       0.00000000 NULL      -0.40030600       0.12611400       0.19865000
P        4.11454241       4.21673856       6.37281635       0.00000000 NULL       0.42959200      -0.14539500      -0.07664800
P        3.59658657       5.98055980       2.39516853       0.00000000 NULL      -0.05920300       0.31306500      -0.25074200
P        7.83302862       7.77461894       8.14951450       0.00000000 NULL       0.30487100       0.01495200       0.59354800
P        6.84293524       6.26859551       4.85244004       0.00000000 NULL       0.03718800      -0.59957800      -0.10956100
P        5.95565787       6.02268215       8.58962470       0.00000000 NULL      -0.04570800       0.12174200       0.64078800
P        3.23497908       4.69938494       9.14901955       0.00000000 NULL       0.02814900      -0.24893700       0.60258100
P        3.99007850       6.19190902       7.64421896       0.00000000 NULL       0.00116400       0.15342500      -0.20624000
P        5.19131987       4.58942227       2.89098861       0.00000000 NULL      -0.14343100      -0.08787900       0.43292200
16
Lattice="5.151648442011041 -0.1600257070214034 -0.17271967294266183 1.9580113087797164 7.283623581263111 0.387403143992333 1.86042261412238 1.6669163585276456 9.199899298683015" Properties=species:S:1:pos:R:3:initial_magmoms:R:1:castep_labels:S:1:forces:R:3 n_minim_iter=2 energy=-82.00308823359 stress="0.011709331335447876 0.000753300883622174 -0.0005820357800610781 0.000753300883622174 0.012134073410923681 -0.0044870995268578165 -0.0005820357800610781 -0.0044870995268578165 0.014711825388490226" free_energy=-82.00308823359 pbc="T T T"
P        1.68864154       1.81449185       6.43503688       0.00000000 NULL      -0.44273800       0.18719300      -0.18220700
P        4.69517341       2.91539255       8.94856729       0.00000000 NULL      -0.08474500      -0.02288700      -0.01970900
P        5.16822219       7.63616292       5.93564272       0.00000000 NULL      -0.37711700       0.58625700       0.21439500
P        3.76566553       1.50968608       1.75271703       0.00000000 NULL       0.14805800       0.02846600      -0.34269500
P        4.35818003       2.65125310       4.84929168       0.00000000 NULL       0.30954200      -0.22105600      -0.19761200
P        3.39150993       3.73259551       1.68788460       0.00000000 NULL      -0.01786700       0.00564700      -0.88500200
P        6.17677628       3.95748395       7.53583134       0.00000000 NULL      -0.23053500      -0.03225800       0.37904500
P        3.30242602       4.78722550       4.37468968       0.00000000 NULL      -0.09388200       0.10657700       0.07098600
P        4.12915850       4.16302884       6.43012945       0.00000000 NULL       0.35744200      -0.24273600      -0.33155000
P        3.60920659       5.96399636       2.37103701       0.00000000 NULL       0.11210500      -0.16597700       0.14524200
P        7.86700682       7.70531704       8.22021015       0.00000000 NULL       0.57986500       0.30556000       0.02485200
P        6.87950487       6.19790279       4.85373997       0.00000000 NULL       0.02228300      -0.64194700      -0.17128600
P        5.95504440       5.96106614       8.69141386       0.00000000 NULL      -0.15890200       0.09084600       0.42739600
P        3.20523134       4.62732982       9.28376415       0.00000000 NULL       0.40537600      -0.04486500       0.26756800
P        3.97516254       6.13985851       7.70856416       0.00000000 NULL       0.07922300      -0.07875500       0.15517700
P        5.21766919       4.55423905       2.89929370       0.00000000 NULL      -0.60810900       0.13993600       0.44539700
16
Lattice="5.133120881217613 -0.1794698836959532 -0.22744611544395082 1.9112949221287325 7.066934282271441 0.3645246895708583 1.7472637301735483 1.606475639139585 9.183156048576102" Properties=species:S:1:pos:R:3:initial_magmoms:R:1:castep_labels:S:1:forces:R:3 n_minim_iter=3 energy=-82.301565221566 stress="0.0026541571225941144 0.005129588749834188 -0.0014495198427437088 0.005129588749834188 -0.002729799288184543 -0.007659514949839922 -0.0014495198427437088 -0.007659514949839922 0.009843891272730075" free_energy=-82.301565221566 pbc="T T T"
P        1.58817983       1.80004195       6.37217098       0.00000000 NULL      -0.76406300       0.12986600       0.03417600
P        4.54809425       2.78640575       8.90424962       0.00000000 NULL      -0.03888500      -0.41042100      -0.17872500
P        5.02393869       7.42251119       5.88998242       0.00000000 NULL      -0.39523600       0.70437400       0.22372500
P        3.74594006       1.44755814       1.70495253       0.00000000 NULL       0.22991700      -0.30648500      -0.18200600
P        4.30584137       2.52628897       4.77576482       0.00000000 NULL       0.47305100      -0.49671000      -0.14739100
P        3.33723503       3.60715525       1.57037598       0.00000000 NULL      -0.19728300       0.05651300      -0.30000900
P        6.05286068       3.81207701       7.48502664       0.00000000 NULL      -0.12474900      -0.17348800       0.32989400
P        3.19014079       4.64290580       4.35511361       0.00000000 NULL       0.02681400       0.05670700      -0.16282600
P        4.05749660       4.01056814       6.37929600       0.00000000 NULL       0.09831900      -0.25224900      -0.47188900
P        3.53754943       5.79696717       2.31449411       0.00000000 NULL       0.01201800      -0.06887800       0.34822500
P        7.73569277       7.44779650       8.18011385       0.00000000 NULL       0.55750400       0.61792300      -0.24747700
P        6.77364386       5.94185083       4.77185084       0.00000000 NULL      -0.14274000      -0.62636600      -0.28849000
P        5.80492664       5.76815997       8.67883727       0.00000000 NULL       0.08733900       0.53873400      -0.00024000
P        3.07551503       4.45853602       9.29722466       0.00000000 NULL       0.37437600       0.12498300       0.19442300
P        3.84866782       5.95307894       7.65340239       0.00000000 NULL      -0.00825800      -0.23035600       0.33493200
P        5.12923205       4.39350239       2.87808690       0.00000000 NULL      -0.18812400       0.33585200       0.51367900
16
Lattice="5.159454001450956 -0.28276167661594076 -0.2619066727067472 1.77219976858433 7.025068713917795 0.477231319330029 1.6623784537855464 1.7275495177330125 9.106691500942418" Properties=species:S:1:pos:R:3:initial_magmoms:R:1:castep_labels:S:1:forces:R:3 n_minim_iter=4 energy=-82.492057255537 stress="0.003942313144091046 -0.004503472315322441 -0.0007384955770644112 -0.004503472315322441 0.005795967425859426 0.0029204403078329096 -0.0007384955770644112 0.0029204403078329096 0.0033451752889959887" free_energy=-82.492057255537 pbc="T T T"
P        1.49458976       1.92164962       6.28723097       0.00000000 NULL      -0.71985600       0.00451100       0.03483200
P        4.43472567       2.82437689       8.83482148       0.00000000 NULL      -0.31239600      -0.43786800      -0.06464500
P        4.82880262       7.44830162       5.94294947       0.00000000 NULL      -0.60257200       0.86967200       0.18888400
P        3.74315187       1.39768401       1.68125110       0.00000000 NULL       0.22272000      -0.19519400      -0.05721700
P        4.27358900       2.49039501       4.71652385       0.00000000 NULL       0.65040100      -0.28363800       0.20332100
P        3.26122507       3.56056644       1.52261895       0.00000000 NULL      -0.44837600      -0.22673300       1.07828100
P        5.95134549       3.81546279       7.45216437       0.00000000 NULL      -0.13311400       0.10739300       0.29733300
P        3.05229868       4.65827396       4.38710998       0.00000000 NULL      -0.29788700       0.24385000      -0.35483100
P        3.98281995       4.02179635       6.34906746       0.00000000 NULL      -0.04873000      -0.29832100      -0.52263400
P        3.41458049       5.77852671       2.36023613       0.00000000 NULL       0.15153700      -0.40670100       0.40488600
P        7.58878335       7.43305958       8.21893620       0.00000000 NULL       0.74462700       0.40313400      -0.35742600
P        6.65202931       5.83663855       4.77582263       0.00000000 NULL      -0.07963700      -0.70838800      -0.43079200
P        5.65083983       5.80888072       8.70176943       0.00000000 NULL       0.54939300       0.72614000      -1.34590700
P        2.94267588       4.53633239       9.30612245       0.00000000 NULL       0.47757700      -0.22334200       0.07943500
P        3.69350557       6.00808229       7.64780399       0.00000000 NULL      -0.08895400      -0.25564700       0.35404100
P        5.02823626       4.33464210       2.93089775       0.00000000 NULL      -0.06473500       0.68113100       0.49244000
16
Lattice="5.196245304301066 -0.23272109241366973 -0.2392415538182484 1.860294335707495 7.049686770178083 0.4627868837886921 1.7277767318789135 1.7334501305116299 8.894185947749145" Properties=species:S:1:pos:R:3:initial_magmoms:R:1:castep_labels:S:1:forces:R:3 n_minim_iter=5 energy=-82.853025035595 stress="-0.0035844618046034266 0.006067837581202316 0.007530933698680319 0.006067837581202316 0.0010267844801988227 0.00019764883575774136 0.007530933698680319 0.00019764883575774136 -0.007311632665062219" free_energy=-82.853025035595 pbc="T T T"
P        1.48009447       2.00394800       6.08115666       0.00000000 NULL      -0.79011700      -0.33077300       0.21454000
P        4.49187180       2.80123150       8.63272356       0.00000000 NULL       0.00188600      -0.20908300      -0.07735700
P        4.89766099       7.58475567       5.83429844       0.00000000 NULL      -0.43901400       0.66350900      -0.00672100
P        3.84037196       1.41443233       1.63895249       0.00000000 NULL       0.12623700      -0.05586100      -0.07630300
P        4.43229109       2.46513741       4.57919636       0.00000000 NULL       0.72949900      -0.57140100       0.41376000
P        3.29582722       3.58307218       1.42916628       0.00000000 NULL      -0.62047100      -0.52825700       2.10531800
P        6.06130260       3.86791822       7.32247190       0.00000000 NULL      -0.16736900       0.03876900       0.16824200
P        3.08560963       4.71136400       4.28972536       0.00000000 NULL       0.56921200      -0.39539900      -0.74589900
P        4.12567495       4.02451535       6.16596301       0.00000000 NULL      -0.19019400      -0.11613400      -0.33531300
P        3.50821029       5.83273392       2.30572606       0.00000000 NULL       0.06497900      -0.44268600       0.34538100
P        7.82917675       7.53268547       8.07832594       0.00000000 NULL       0.46239800       0.58387100      -0.34319200
P        6.78262764       5.80131948       4.63960075       0.00000000 NULL      -0.96170800       0.08622800      -0.13203000
P        5.81088266       5.91198541       8.51370332       0.00000000 NULL       0.52109200       0.75915200      -2.08150700
P        3.07608288       4.52640239       9.15770839       0.00000000 NULL       0.40802500       0.06678200      -0.02538000
P        3.80819226       6.04182164       7.47112288       0.00000000 NULL       0.04740700      -0.21304700       0.27516600
P        5.10441289       4.41042383       2.94849858       0.00000000 NULL       0.23813600       0.66432800       0.30129700
16
Lattice="5.236623326574666 -0.2970018201199156 -0.3580245747202997 1.7679510872786606 6.899932453962339 0.4218420486379685 1.50712413705174 1.684628044300022 8.853555141551928" Properties=species:S:1:pos:R:3:initial_magmoms:R:1:castep_labels:S:1:forces:R:3 n_minim_iter=6 energy=-83.107616325622 stress="-0.010368730004934176 0.004850057469731991 -0.002352927434088283 0.004850057469731991 -0.00403488900954502 -0.0018817171311935306 -0.002352927434088283 -0.0018817171311935306 -0.008799544638244294" free_energy=-83.107616325622 pbc="T T T"
P        1.26981193       1.99857299       6.00928458       0.00000000 NULL      -0.50773800      -0.42508400       0.33534400
P        4.25472507       2.66077134       8.52765104       0.00000000 NULL      -0.01450800      -0.24867500      -0.24100600
P        4.64185102       7.44997775       5.74105793       0.00000000 NULL      -0.47341900       0.54638300      -0.06470500
P        3.83867653       1.32831218       1.54081918       0.00000000 NULL       0.21264900      -0.11375600       0.09798700
P        4.37938392       2.32010242       4.45485366       0.00000000 NULL       0.56096600      -0.63619400       0.63533300
P        3.20964375       3.46617329       1.32516692       0.00000000 NULL      -0.11700200      -0.34873500       1.85080700
P        5.87047127       3.72403468       7.20645744       0.00000000 NULL      -0.21944100       0.11330300       0.24154800
P        2.91156494       4.60082523       4.21715172       0.00000000 NULL       0.71340100      -0.50200000      -1.09464500
P        3.98472323       3.88049740       6.04330968       0.00000000 NULL      -0.39131800      -0.07405700      -0.34031700
P        3.39809053       5.69260634       2.22598360       0.00000000 NULL      -0.00011700      -0.33050400       0.44658000
P        7.63843987       7.32075257       7.92409814       0.00000000 NULL       0.42844000       0.49713200      -0.48355400
P        6.63146391       5.54908572       4.46209819       0.00000000 NULL      -1.25276500       0.42056400       0.05432300
P        5.58607249       5.77163052       8.37354380       0.00000000 NULL       0.40592400       0.65131200      -1.54650400
P        2.84136706       4.39038163       9.13166320       0.00000000 NULL       0.20113800      -0.10548500      -0.40056900
P        3.57455222       5.88851789       7.38495992       0.00000000 NULL      -0.18136500      -0.12139700       0.17341300
P        4.99437969       4.28626322       2.88454162       0.00000000 NULL       0.63515500       0.67719400       0.33596500
16
Lattice="5.318842631882721 -0.34399173640810715 -0.32713713437154956 1.7302956007314705 6.708049643545255 0.4706347496788464 1.5789927561995531 1.665102738009481 8.952327662273131" Properties=species:S:1:pos:R:3:initial_magmoms:R:1:castep_labels:S:1:forces:R:3 n_minim_iter=7 energy=-83.196737619092 stress="-0.0024838160480064185 0.003327180428006553 0.0038504461007337083 0.003327180428006553 -0.012482053016487093 -0.00038257587899444143 0.0038504461007337083 -0.00038257587899444143 -0.003486703201613659" free_energy=-83.196737619092 pbc="T T T"
P        1.29066010       1.98129923       6.06404581       0.00000000 NULL      -0.38830300      -0.41907500       0.30459000
P        4.34539131       2.57188326       8.64477414       0.00000000 NULL       0.15011500      -0.33232300      -0.00523200
P        4.65608918       7.26823397       5.86822113       0.00000000 NULL      -0.47947300       0.35885100      -0.11723700
P        3.91356718       1.25856326       1.58229615       0.00000000 NULL       0.02129500      -0.36684900      -0.18931100
P        4.48762110       2.21219993       4.52877260       0.00000000 NULL       0.54108100      -0.49614100       0.67015000
P        3.22635397       3.34508805       1.36305480       0.00000000 NULL      -0.26339200      -0.22550000       1.85067300
P        5.97300093       3.60340872       7.34290794       0.00000000 NULL      -0.43023300       0.27086400       0.12013900
P        2.93428918       4.47376787       4.28915960       0.00000000 NULL       0.67112100      -0.56645000      -0.84793600
P        4.06728284       3.75775620       6.13027491       0.00000000 NULL      -0.30467700       0.01606400      -0.26498200
P        3.41063502       5.52612529       2.29691318       0.00000000 NULL       0.05788300      -0.22540200       0.50383800
P        7.76979897       7.10080681       8.09472389       0.00000000 NULL       0.31162000       0.40013900      -0.48417000
P        6.69928452       5.33624448       4.56705016       0.00000000 NULL      -1.19190100       0.40412500      -0.01224400
P        5.68493362       5.62054525       8.51194809       0.00000000 NULL       0.27234300       0.82750700      -1.75407100
P        2.91972452       4.27798784       9.27340467       0.00000000 NULL       0.21869000      -0.12090500      -0.34446500
P        3.62364814       5.73623616       7.50322106       0.00000000 NULL       0.10651800      -0.22531500       0.35371300
P        5.04733134       4.14945509       2.99155538       0.00000000 NULL       0.70731200       0.70040900       0.21654500
16
Lattice="5.212749814705057 -0.3823390836063522 -0.2966017975487463 1.6368778636285488 6.711867103770789 0.4519721915988707 1.5807570279100047 1.6148307220372506 9.006563195616563" Properties=species:S:1:pos:R:3:initial_magmoms:R:1:castep_labels:S:1:forces:R:3 n_minim_iter=8 energy=-83.373655309633 stress="-0.009831209814568934 0.002289326713799006 0.003193579107982684 0.002289326713799006 -0.011105607327228643 -0.002039199010738735 0.003193579107982684 -0.002039199010738735 -0.00611590443873685" free_energy=-83.373655309633 pbc="T T T"
P        1.25686628       1.98176495       6.05690554       0.00000000 NULL      -0.35783200      -0.47490800       0.68638400
P        4.26750085       2.48228513       8.71191617       0.00000000 NULL       0.14812700      -0.43592300       0.09121800
P        4.46634285       7.27636549       5.90121267       0.00000000 NULL      -0.08113600      -0.06147900      -0.40349000
P        3.86063628       1.21862888       1.58555369       0.00000000 NULL       0.04728300      -0.24017600      -0.25393100
P        4.45930578       2.11217420       4.57815489       0.00000000 NULL       0.45738900      -0.49148000       0.68655800
P        3.13629138       3.31294982       1.35295682       0.00000000 NULL      -0.14981300      -0.17149800       2.04473600
P        5.82372730       3.55719020       7.43454162       0.00000000 NULL       0.03954900       0.18681900      -0.01487900
P        2.87446327       4.41950503       4.27245302       0.00000000 NULL       0.11541800      -0.09221800      -0.50880400
P        4.01196316       3.69681721       6.15420558       0.00000000 NULL      -0.71878400       0.09260900      -0.47013200
P        3.30415063       5.51612139       2.30709770       0.00000000 NULL       0.12362300      -0.35421600       0.49099300
P        7.64248808       7.03168720       8.18276630       0.00000000 NULL       0.03893000       0.43672700      -0.46337800
P        6.46200801       5.26555298       4.61559547       0.00000000 NULL      -0.47872300       0.04670300      -0.25332300
P        5.56322420       5.58105951       8.56150310       0.00000000 NULL       0.53655100       0.92119300      -1.75643000
P        2.88987404       4.18571070       9.34785266       0.00000000 NULL      -0.28506300      -0.04209600      -0.35791300
P        3.54180012       5.69877093       7.53355508       0.00000000 NULL      -0.08754100      -0.11126200       0.24932500
P        4.93882619       4.12936764       3.06837122       0.00000000 NULL       0.65202300       0.79120500       0.23306700
16
Lattice="5.275754686762499 -0.32878339518783317 -0.3447232248667361 1.73544819899995 6.708741070478427 0.519654192177331 1.5392075750773857 1.7374766376986055 8.96297172882399" Properties=species:S:1:pos:R:3:initial_magmoms:R:1:castep_labels:S:1:forces:R:3 n_minim_iter=9 energy=-83.441167307607 stress="-0.0072331056883276 0.005723134220652702 -0.00014747976836157966 0.005723134220652702 -0.012230659458616261 0.002213290820927756 -0.00014747976836157966 0.002213290820927756 -0.006761307998148198" free_energy=-83.441167307607 pbc="T T T"
P        1.23868464       2.07529247       6.02739924       0.00000000 NULL      -0.25516500      -0.38329000       0.81913700
P        4.26994548       2.61490958       8.66592721       0.00000000 NULL       0.17498500      -0.29884500      -0.05458000
P        4.53782758       7.37863810       5.91062962       0.00000000 NULL      -0.12264600      -0.16356900      -0.42637900
P        3.92302573       1.27411515       1.53710081       0.00000000 NULL       0.24842500      -0.46366500       0.01574700
P        4.52654512       2.18229555       4.55228404       0.00000000 NULL       0.30392500      -0.26051600       0.65286500
P        3.21076268       3.34631330       1.35678589       0.00000000 NULL      -0.35103900      -0.07049500       1.83633200
P        5.85989364       3.71336089       7.40001079       0.00000000 NULL       0.10128800       0.11025800       0.05967800
P        2.92508371       4.47881418       4.26605098       0.00000000 NULL      -0.29788300       0.12416000      -0.41019500
P        4.05357781       3.80139413       6.11867781       0.00000000 NULL      -0.66497500      -0.00284100      -0.33196200
P        3.39668782       5.56037038       2.33786844       0.00000000 NULL       0.03709000      -0.18134600       0.37683500
P        7.76709730       7.19056948       8.17576494       0.00000000 NULL       0.12352200       0.43624700      -0.59903500
P        6.53337054       5.36172228       4.60121399       0.00000000 NULL      -0.22698600      -0.13751100      -0.34560900
P        5.62428127       5.74091326       8.52891688       0.00000000 NULL       0.33101400       0.73516700      -1.63993300
P        2.88505632       4.29621664       9.33086094       0.00000000 NULL       0.06124500       0.13921500      -0.35342500
P        3.58801156       5.81719922       7.52584034       0.00000000 NULL      -0.20128000      -0.16813200       0.20387600
P        5.03360784       4.21808978       3.08577272       0.00000000 NULL       0.73848000       0.58516300       0.19664800
16
Lattice="5.30599185082303 -0.3688966768557344 -0.3396580727548216 1.6877789962497551 6.676559385976046 0.4747475031754155 1.5409567989861799 1.6675667490275463 8.856234212373996" Properties=species:S:1:pos:R:3:initial_magmoms:R:1:castep_labels:S:1:forces:R:3 n_minim_iter=10 energy=-83.531955446999 stress="-0.004992673286334357 0.002935009176720428 -0.001076985189237235 0.002935009176720428 -0.012448026443864996 -0.0010562175743226091 -0.001076985189237235 -0.0010562175743226091 -0.012763542924176429" free_energy=-83.531955446999 pbc="T T T"
P        1.23442594       2.03593709       5.95164858       0.00000000 NULL      -0.17487300      -0.46020800       0.83169900
P        4.27973671       2.51258580       8.56707900       0.00000000 NULL      -0.05833900      -0.37549200      -0.30472400
P        4.48900838       7.28816627       5.78204381       0.00000000 NULL      -0.16735300      -0.12779000      -0.40552700
P        3.95294135       1.22639733       1.48777010       0.00000000 NULL       0.35851600      -0.32523800       0.22148600
P        4.56042969       2.08922613       4.50876594       0.00000000 NULL       0.27745500      -0.21177800       0.48367400
P        3.20617112       3.30376281       1.32393152       0.00000000 NULL      -0.45589100      -0.14918600       1.77266700
P        5.85676796       3.63047487       7.31093772       0.00000000 NULL       0.08400600       0.07874500      -0.10389600
P        2.88833450       4.42041563       4.18641399       0.00000000 NULL      -0.32909600       0.02272900      -0.38837400
P        4.04166748       3.72460917       6.01615820       0.00000000 NULL      -0.56050600      -0.00938300      -0.21590700
P        3.37520391       5.50817922       2.28247476       0.00000000 NULL       0.16583100      -0.19724500       0.43576000
P        7.76960216       7.06545901       8.05906900       0.00000000 NULL       0.07927600       0.47119500      -0.57144600
P        6.50354278       5.25262686       4.51522489       0.00000000 NULL      -0.10986900      -0.00375300      -0.19183800
P        5.61073971       5.64700585       8.39205156       0.00000000 NULL       0.32409200       0.81215900      -1.58108100
P        2.86173450       4.18847107       9.21002294       0.00000000 NULL       0.17580300       0.19867700      -0.28090400
P        3.56075921       5.74133323       7.40162628       0.00000000 NULL      -0.13325000      -0.23086800       0.22768600
P        5.04238552       4.16343401       3.05359702       0.00000000 NULL       0.52419800       0.50743500       0.07072400
16
Lattice="5.165669478583802 -0.42151658336448333 -0.3080902064619775 1.562885949688796 6.65751049443496 0.5553608034995579 1.5338614918970173 1.72106576583933 9.050369840257602" Properties=species:S:1:pos:R:3:initial_magmoms:R:1:castep_labels:S:1:forces:R:3 n_minim_iter=11 energy=-83.71946900336 stress="-0.010972605039900786 0.0036814135003734507 -0.0030137175377578495 0.0036814135003734507 -0.01150912313883489 0.0002866054925559366 -0.0030137175377578495 0.0002866054925559366 -0.010440701397597885" free_energy=-83.71946900336 pbc="T T T"
P        1.21876141       2.08878695       6.10359210       0.00000000 NULL       0.23511900      -0.48918200       0.98720300
P        4.18701319       2.51563107       8.79988953       0.00000000 NULL      -0.16287700      -0.31069300      -0.24412400
P        4.28444898       7.27454477       5.93874337       0.00000000 NULL      -0.28418200      -0.04316400      -0.37544600
P        3.88401227       1.19100236       1.50805908       0.00000000 NULL       0.55355400      -0.18684100       0.23841700
P        4.48836211       2.03178977       4.68679109       0.00000000 NULL      -0.00463000       0.00641200       0.48980300
P        3.09282804       3.27884157       1.41022489       0.00000000 NULL      -0.43662500      -0.08515800       1.32206800
P        5.68303977       3.66452807       7.54975118       0.00000000 NULL       0.23477200       0.10252900      -0.26287700
P        2.73394202       4.42700927       4.31600269       0.00000000 NULL       0.18752800      -0.42303000      -0.44432300
P        3.90840654       3.73268833       6.16573918       0.00000000 NULL      -0.49745000      -0.11070500      -0.32053600
P        3.24757907       5.49053408       2.40800310       0.00000000 NULL       0.13025400      -0.23008300       0.42203600
P        7.55257552       7.05698273       8.36136851       0.00000000 NULL      -0.00038700       0.34394200      -0.62769700
P        6.25618234       5.18465570       4.68632609       0.00000000 NULL      -0.31677600       0.54830400       0.19406500
P        5.43546785       5.68960456       8.61667950       0.00000000 NULL       0.39123300       0.65629700      -1.24147100
P        2.77282399       4.19430333       9.45346562       0.00000000 NULL      -0.03663800       0.12963500      -0.15134100
P        3.43311153       5.78144420       7.60172463       0.00000000 NULL      -0.28209700      -0.24285800       0.26182700
P        4.90137779       4.16430351       3.24037255       0.00000000 NULL       0.28920200       0.33459500      -0.24760400
16
Lattice="5.023660324722141 -0.5371831771187854 -0.24051565830099378 1.349307851680312 6.637481739030349 0.6106367956158532 1.5665734206609925 1.7100354212685769 9.229502657138372" Properties=species:S:1:pos:R:3:initial_magmoms:R:1:castep_labels:S:1:forces:R:3 n_minim_iter=12 energy=-84.147397595085 stress="-0.007350154991123956 0.0018790915561780564 -0.008897467935378574 0.0018790915561780564 -0.0044402833674923245 -0.0019291513021067331 -0.008897467935378574 -0.0019291513021067331 -0.008527895020098052" free_energy=-84.147397595085 pbc="T T T"
P        1.30072431       2.10062615       6.33606940       0.00000000 NULL       0.17123400      -0.20707300       0.63632000
P        4.08034263       2.39008313       9.04280665       0.00000000 NULL       0.29066200       0.24293300      -0.25665900
P        3.94167830       7.19909836       5.98149557       0.00000000 NULL      -0.27121600      -0.00270100       0.02167100
P        3.92874176       1.09380468       1.48051747       0.00000000 NULL       0.14493500       0.39633800       0.12333100
P        4.43754139       1.88461766       4.93500268       0.00000000 NULL      -0.13041900      -0.17459500       0.39942900
P        2.89378637       3.22683824       1.47659115       0.00000000 NULL       0.42188800      -0.18820100       0.60679900
P        5.52069169       3.64710617       7.77049792       0.00000000 NULL      -0.11669600      -0.09534700      -0.14029600
P        2.52824872       4.33419929       4.42700514       0.00000000 NULL      -0.09418200      -0.61170200      -0.30513900