9
Lattice="5.134537451057219 0.1868689082699659 -0.10503869981914335 -0.13519232435506198 6.814160469954368 0.6907924952577377 -1.8056134101945567 -0.4976936393978793 6.4435682887948955" Properties=species:S:1:pos:R:3:initial_magmoms:R:1:castep_labels:S:1:forces:R:3 n_minim_iter=1 energy=-45.138280985742 stress="0.003126723659842591 0.000167020727404286 1.1733958844680752e-05 0.000167020727404286 0.0008504684812444649 -0.0015243076725589995 1.1733958844680752e-05 -0.0015243076725589995 0.0037313103544285194" free_energy=-45.138280985742 pbc="T T T"
P        2.95043283       3.10203155       2.87669301       0.00000000 NULL       0.05161400       0.47426300      -0.08032900
P       -0.73448886       0.53204858       2.93366262       0.00000000 NULL       0.39111700      -0.37335400       0.95345500
P       -0.41591277       4.30884487       3.89005713       0.00000000 NULL      -0.19736000       0.13874600       0.61270900
P        1.16862561       2.76818514       4.29398517       0.00000000 NULL       0.48391000      -0.33380400       0.28464300
P       -0.58556002       4.91899667       6.13533377       0.00000000 NULL      -0.03519200       0.15411100      -0.52358500
P        0.33403417       2.41109257       2.27910345       0.00000000 NULL      -0.25650600      -0.45665500      -0.56707700
P        0.60952475      -0.05581412       5.10959106       0.00000000 NULL      -0.28602300      -0.19839200      -0.60868000
P        0.43003093       5.86856206       2.63120065       0.00000000 NULL       0.15382000       0.34599200      -0.04349800
P        3.34303082       1.69300331       1.15769605       0.00000000 NULL      -0.30537900       0.24909300      -0.02763700
9
Lattice="5.00367760750015 0.1773272222135528 -0.10008821737223494 -0.1410557007947883 6.775801342729977 0.7539475349741541 -1.7596664958414556 -0.4123714096423303 6.242978676058478" Properties=species:S:1:pos:R:3:initial_magmoms:R:1:castep_labels:S:1:forces:R:3 n_minim_iter=2 energy=-45.213962176152 stress="-0.012595706454851469 -0.0037572623569266284 -0.0002188366692798747 -0.0037572623569266284 -0.02168521349310365 -0.0004893863591571497 -0.0002188366692798747 -0.0004893863591571497 -0.01612177008830432" free_energy=-45.213962176152 pbc="T T T"
P        2.87269189       3.12922575       2.82510867       0.00000000 NULL       0.32297300       0.69557400      -0.17037700
P       -0.70290085       0.55241564       2.88525486       0.00000000 NULL       0.24996700      -0.71905500       1.02607900
P       -0.41859676       4.33292332       3.84746247       0.00000000 NULL      -0.38342900       0.02838000       0.44140100
P        1.15193209       2.78842957       4.20820733       0.00000000 NULL       0.50503300      -0.35791700       0.81547100
P       -0.57921416       4.96680953       5.99224852       0.00000000 NULL      -0.49199100      -0.40574600       0.09963800
P        0.31293877       2.40529468       2.21967630       0.00000000 NULL      -0.22132200      -0.31841900      -0.92822700
P        0.58341085      -0.00071093       4.93286693       0.00000000 NULL       0.19784200       0.24938300      -0.58543200
P        0.41632468       5.87240152       2.62264240       0.00000000 NULL       0.36486900       0.47087500      -0.29066900
P        3.24470232       1.70008489       1.14239045       0.00000000 NULL      -0.54394100       0.35692400      -0.40788400
9
Lattice="4.906266619856814 0.20599988442025338 -0.09214520972649276 -0.10478339814108649 7.002394165184115 0.89245210999695 -1.7254791570368309 -0.29253344620217864 6.101435270133655" Properties=species:S:1:pos:R:3:initial_magmoms:R:1:castep_labels:S:1:forces:R:3 n_minim_iter=3 energy=-45.45913498642 stress="-0.0027002197983792306 -0.004395800959849996 -0.0020537911099871146 -0.004395800959849996 -0.01401140980826947 0.00036813371906661504 -0.0020537911099871146 0.00036813371906661504 -0.01965064013389372" free_energy=-45.45913498642 pbc="T T T"
P        2.83840966       3.34186033       2.83303008       0.00000000 NULL       0.83759000       0.66986000      -0.58200900
P       -0.66002508       0.60320206       2.90142583       0.00000000 NULL       0.23162200      -0.50996600       0.33693500
P       -0.40318237       4.56316129       3.90571941       0.00000000 NULL      -0.03885400      -0.18342000      -0.17641100
P        1.17750545       2.95243210       4.20659953       0.00000000 NULL      -0.07519900      -0.21259800       0.58485400
P       -0.54815821       5.25885885       5.94871776       0.00000000 NULL      -0.48815900      -0.30538900       0.73029500
P        0.30175656       2.49771255       2.18492030       0.00000000 NULL      -0.49016000      -0.51121100      -0.57048900
P        0.55770657       0.10200719       4.78744398       0.00000000 NULL       0.39603000       0.10182100      -0.27022600
P        0.45018105       6.14273202       2.69727844       0.00000000 NULL       0.14503600       0.35791200      -0.05519300
P        3.16666739       1.81433191       1.15381039       0.00000000 NULL      -0.51790500       0.59299200       0.00224400
9
Lattice="4.488043871490531 0.312685729308097 -0.009980462726579618 0.0549991672766624 7.245299264514596 1.135478860537128 -1.4893466454316964 -0.1291888758696071 6.210626940334971" Properties=species:S:1:pos:R:3:initial_magmoms:R:1:castep_labels:S:1:forces:R:3 n_minim_iter=4 energy=-45.851316775259 stress="-0.005075062406455206 -0.003119521956502296 -0.00495800540769042 -0.003119521956502296 -0.015794768840947306 0.0015740525331151517 -0.00495800540769042 0.0015740525331151517 -0.023538067017384617" free_energy=-45.851316775259 pbc="T T T"
P        2.73326135       3.67035674       3.03126391       0.00000000 NULL       1.31467800       1.14937800      -1.02010800
P       -0.50598683       0.66253948       3.07320135       0.00000000 NULL      -0.65805200       0.06520500      -0.97137800
P       -0.23321106       4.83830688       4.18920474       0.00000000 NULL      -0.07452500       0.10949800      -0.20588500
P        1.23501131       3.17505042       4.45741498       0.00000000 NULL      -0.24546800      -0.37524700       0.62305400
P       -0.32016877       5.62081580       6.22107996       0.00000000 NULL      -0.41308900      -0.47290100       0.73103600
P        0.31871361       2.58101026       2.24922014       0.00000000 NULL      -0.64884600      -0.46466400      -0.03784400
P        0.56802791       0.25391489       4.84769811       0.00000000 NULL       0.85741200       0.03038900       0.93998800
P        0.58895665       6.47983784       2.96588134       0.00000000 NULL       0.09959600      -0.30689300      -0.15672100
P        2.91095370       2.02294606       1.29518724       0.00000000 NULL      -0.23170600       0.26523600       0.09785800
9
Lattice="4.29195224565319 0.30895929456264315 0.12957111834124715 0.0702262017147725 7.42475836481902 1.2706705710046293 -1.2486506558656822 -0.015605551967562603 6.229261309910803" Properties=species:S:1:pos:R:3:initial_magmoms:R:1:castep_labels:S:1:forces:R:3 n_minim_iter=5 energy=-46.001667914314 stress="-0.00791537243195181 -0.00726561579284514 0.0013729190587846993 -0.00726561579284514 -0.014716402939142515 0.0037626738686850993 0.0013729190587846993 0.0037626738686850993 -0.02439271075837113" free_energy=-46.001667914314 pbc="T T T"
P        2.71893595       3.87084018       3.18468525       0.00000000 NULL       1.00629500       1.44618100      -1.16022900
P       -0.39466987       0.71864626       3.12985550       0.00000000 NULL      -0.78490300      -0.07205500      -0.98667500
P       -0.12544339       5.04573488       4.35261869       0.00000000 NULL       0.04797700      -0.51858200      -0.47963900
P        1.32718666       3.28757796       4.62269217       0.00000000 NULL      -0.68162900      -0.15114100       0.70151200
P       -0.14658010       5.85845478       6.33966450       0.00000000 NULL      -0.36551700      -0.66338300       1.14071800
P        0.33348011       2.62603407       2.28762460       0.00000000 NULL      -0.04794000       0.03743300       0.37366900
P        0.67691725       0.32928908       4.91306120       0.00000000 NULL       0.73151400       0.21464200       0.74051500
P        0.64317047       6.67990948       3.11651434       0.00000000 NULL       0.05365000      -0.23013300      -0.22842600
P        2.80109183       2.10226232       1.43417914       0.00000000 NULL       0.04055300      -0.06296100      -0.10144500
9
Lattice="4.238624951008744 0.35060660571959007 0.1130572368276842 0.12441129158102278 7.437005607447805 1.2793413295453013 -1.2537865863685065 -0.025327962061724628 6.25458533904385" Properties=species:S:1:pos:R:3:initial_magmoms:R:1:castep_labels:S:1:forces:R:3 n_minim_iter=6 energy=-46.061832564056 stress="-0.008870769231993775 -0.0034803035079915084 -0.002197225741807388 -0.0034803035079915084 -0.014244122527121393 0.0014799213267303799 -0.002197225741807388 0.0014799213267303799 -0.024596686339893956" free_energy=-46.061832564056 pbc="T T T"
P        2.71240531       3.94145592       3.17511764       0.00000000 NULL       0.50950200       1.33592400      -0.78146700
P       -0.39700668       0.70950311       3.14863027       0.00000000 NULL      -0.83155300       0.06943600      -1.18210400
P       -0.10254377       5.05427493       4.38517278       0.00000000 NULL       0.10644100      -0.47937200      -0.74859800
P        1.32753561       3.29464746       4.64750967       0.00000000 NULL      -0.29517200      -0.03481100       0.32523500
P       -0.11948809       5.86606921       6.35538629       0.00000000 NULL      -0.32355500      -0.52426200       1.25458500
P        0.33648300       2.62160450       2.28859177       0.00000000 NULL       0.11930400       0.06440700       0.55478400
P        0.65233861       0.33349660       4.92607952       0.00000000 NULL       0.74801100       0.10246200       0.91918500
P        0.68056599       6.69734248       3.12383439       0.00000000 NULL      -0.00512800      -0.38417300      -0.07896700
P        2.77374317       2.13327465       1.42806674       0.00000000 NULL      -0.02784900      -0.14961200      -0.26265400
9
Lattice="4.17083241191748 0.3552326694389475 0.1237451250967182 0.13728704580969583 7.4166765662172365 1.4149227115815703 -1.218775359944234 0.089773828227193 6.371708895075932" Properties=species:S:1:pos:R:3:initial_magmoms:R:1:castep_labels:S:1:forces:R:3 n_minim_iter=7 energy=-46.151006882873 stress="-0.002548285553082349 -0.004441636003405091 -0.002814640396999716 -0.004441636003405091 -0.016874018967087873 0.0072392004172801665 -0.002814640396999716 0.0072392004172801665 -0.01442529249418757" free_energy=-46.151006882873 pbc="T T T"
P        2.68067604       4.06185263       3.28618485       0.00000000 NULL       0.39615000       1.08906900      -0.55437700
P       -0.38615291       0.74602554       3.22909762       0.00000000 NULL      -0.80646100      -0.06529600      -1.36239100
P       -0.08960183       5.08856334       4.55300618       0.00000000 NULL       0.07398000      -0.42112800      -0.43710600
P        1.34348466       3.34695467       4.80025942       0.00000000 NULL      -0.09507300       0.05026200       0.05783100
P       -0.09134507       5.95210311       6.56085169       0.00000000 NULL      -0.45507700      -1.11879400       0.93411400
P        0.34230102       2.63617398       2.37237752       0.00000000 NULL       0.05494900       0.40280900       0.54416500
P        0.64771416       0.41210734       5.02155575       0.00000000 NULL       0.86311600       0.41446100       0.81455300
P        0.69123145       6.71543551       3.27985919       0.00000000 NULL      -0.14662300      -0.22592700       0.16870000
P        2.72631891       2.14119251       1.47401362       0.00000000 NULL       0.11503800      -0.12545700      -0.16549000
9
Lattice="3.944857228746749 0.3830285920180779 0.19195130022431578 0.18543121406416738 7.567408721557405 1.4938734910947489 -1.0565112864740855 0.13604943710054723 6.44898822478585" Properties=species:S:1:pos:R:3:initial_magmoms:R:1:castep_labels:S:1:forces:R:3 n_minim_iter=8 energy=-46.343816682307 stress="-0.0028765415951890957 0.0007859824063837656 0.0012136783802004314 0.0007859824063837656 -0.008769068241750822 0.0012935982118041295 0.0012136783802004314 0.0012935982118041295 -0.009644023898162143" free_energy=-46.343816682307 pbc="T T T"
P        2.59085419       4.34523110       3.39637452       0.00000000 NULL       0.25294000       0.74392100      -0.33267800
P       -0.32151199       0.73779033       3.28732855       0.00000000 NULL      -0.84495800       0.41817800      -1.40647000
P       -0.00605861       5.17578676       4.67097271       0.00000000 NULL       0.13921100       0.17863600      -0.17717300
P        1.40350553       3.42757415       4.93698249       0.00000000 NULL      -0.08029500       0.08243700      -0.24372900
P        0.03767052       6.10050990       6.69806676       0.00000000 NULL      -0.32251700      -1.02708500       0.70537100
P        0.37898684       2.69617962       2.44377297       0.00000000 NULL       0.11000400       0.17628700       0.68145800
P        0.68053778       0.44975223       5.10294068       0.00000000 NULL       0.57499000       0.20029800       0.75401800
P        0.73792931       6.87561039       3.39291282       0.00000000 NULL      -0.13618100      -0.42643000       0.23027700
P        2.58968745       2.18624517       1.51826337       0.00000000 NULL       0.30680700      -0.34624100      -0.21107600
9
Lattice="3.7848606969885616 0.33241245904542177 0.13600908635849268 0.11173824704061971 7.723847656493421 1.6154942354126414 -1.0675933731072407 0.24875978373605956 6.54937917691141" Properties=species:S:1:pos:R:3:initial_magmoms:R:1:castep_labels:S:1:forces:R:3 n_minim_iter=9 energy=-46.420213648308 stress="-0.003627590917677841 -0.003316632026581962 -0.005545065621392796 -0.003316632026581962 0.001707277846802781 0.0011043350746998686 -0.005545065621392796 0.0011043350746998686 -0.0072781515844106" free_energy=-46.420213648308 pbc="T T T"
P        2.42746241       4.52064570       3.45561744       0.00000000 NULL       0.12343400       0.32572400      -0.29529700
P       -0.34527026       0.78507061       3.33856939       0.00000000 NULL      -0.80747100       0.18240200      -1.81595800
P       -0.08343377       5.33391994       4.81857440       0.00000000 NULL       0.44293400       0.33012400       0.00302400
P        1.30631912       3.52695342       5.02442736       0.00000000 NULL      -0.08916200       0.30270000      -0.34877400
P       -0.06736941       6.27776358       6.86617839       0.00000000 NULL      -0.17221800      -0.78972800       0.41228300
P        0.32761143       2.76801068       2.51617782       0.00000000 NULL       0.15313100       0.46557100       0.74853300
P        0.60709992       0.51900349       5.15765725       0.00000000 NULL       0.54370800      -0.17840500       1.00223100
P        0.63377388       7.04212447       3.52910987       0.00000000 NULL      -0.22314100      -0.21346700       0.59113100
P        2.45139378       2.19569516       1.50528914       0.00000000 NULL       0.02878500      -0.42492000      -0.29717300
9
Lattice="3.6755004675139245 0.36352189604864094 0.13575197953000534 0.1577003130717212 7.772183424587084 1.7909976412382815 -1.0352490232392426 0.38824637081175867 6.661874280526138" Properties=species:S:1:pos:R:3:initial_magmoms:R:1:castep_labels:S:1:forces:R:3 n_minim_iter=10 energy=-46.509850850331 stress="-0.0009330849962496008 0.0010485291708697648 -0.001377502469210804 0.0010485291708697648 0.007856860018925545 0.003851085607416745 -0.001377502469210804 0.003851085607416745 -0.0019893885441924944" free_energy=-46.509850850331 pbc="T T T"
P        2.38141627       4.70867165       3.59145059       0.00000000 NULL       0.07781200       0.15536500      -0.20608000
P       -0.33570354       0.82454722       3.38456117       0.00000000 NULL      -0.70631500       0.36619200      -1.46805200
P       -0.04490561       5.46570408       5.03691862       0.00000000 NULL       0.21627300       0.13419300      -0.03848900
P        1.31584245       3.64593353       5.16616924       0.00000000 NULL      -0.02900300       0.32583500      -0.39645200
P       -0.03647436       6.38803595       7.08853822       0.00000000 NULL      -0.02483800      -0.40528300       0.40331000
P        0.33926354       2.83473576       2.62531301       0.00000000 NULL      -0.01891100       0.36372000       0.38769100
P        0.58960217       0.63195160       5.24229999       0.00000000 NULL       0.38501800      -0.60409400       0.84886700
P        0.66268028       7.15444023       3.74807444       0.00000000 NULL      -0.13661500      -0.24307300       0.45669000
P        2.37925855       2.22843168       1.53220631       0.00000000 NULL       0.23657900      -0.09285400       0.01251600
9
Lattice="3.656714911413152 0.3235916406484031 0.10879217792803622 0.10423615533655842 7.681328619471435 1.7594233272094597 -1.055770659533157 0.36832887860355945 6.765014993568429" Properties=species:S:1:pos:R:3:initial_magmoms:R:1:castep_labels:S:1:forces:R:3 n_minim_iter=11 energy=-46.550808295375 stress="4.800056743868617e-05 -0.0011392276738167203 -0.0019534259781068875 -0.0011392276738167203 0.004034551579022355 -0.002153952211002797 -0.0019534259781068875 -0.002153952211002797 0.002670770751205566" free_energy=-46.550808295375 pbc="T T T"
P        2.32832035       4.66458559       3.59244648       0.00000000 NULL      -0.02595600      -0.10357100      -0.05134000
P       -0.35349561       0.78539724       3.41384419       0.00000000 NULL      -0.72866700       0.69472800      -1.06628800
P       -0.09550129       5.39748136       5.09486838       0.00000000 NULL       0.43359900      -0.00415200      -0.16692500
P        1.28890240       3.57385102       5.20259840       0.00000000 NULL      -0.01058600       0.54357900      -0.56483400
P       -0.10575610       6.26645025       7.14699511       0.00000000 NULL      -0.07270800      -0.52221100       0.45579300
P        0.31064888       2.79414495       2.63966046       0.00000000 NULL      -0.01519000       0.37937800       0.40019900
P        0.56477767       0.57783473       5.30423052       0.00000000 NULL       0.29591100      -0.35488600       0.56612500
P        0.60751867       7.07218325       3.76646886       0.00000000 NULL      -0.02822600      -0.50526400       0.32798100
P        2.34261801       2.17623012       1.50790717       0.00000000 NULL       0.15182200      -0.12760100       0.09928900
9
Lattice="3.6678472119623806 0.3761994121605716 0.03789779581318474 0.16894134737469654 7.64386165824872 1.9234612803105555 -1.1591800833745458 0.508581827906855 6.749262065177712" Properties=species:S:1:pos:R:3:initial_magmoms:R:1:castep_labels:S:1:forces:R:3 n_minim_iter=12 energy=-46.76415404716 stress="-0.007329200978915767 0.000691573999310592 -0.0014898563399896806 0.000691573999310592 -0.00883632772017209 0.00027383601757577695 -0.0014898563399896806 0.00027383601757577695 -0.010993828537968113" free_energy=-46.76415404716 pbc="T T T"
P        2.33869406       4.87896421       3.60962059       0.00000000 NULL       0.01591400      -0.07034800      -0.27051300
P       -0.43402097       0.85534461       3.34593752       0.00000000 NULL      -0.54169600       0.71530000      -0.51541100
P       -0.10807856       5.43362314       5.24389273       0.00000000 NULL       0.20430300       0.21027300      -0.16921200
P        1.34153089       3.74143821       5.18272126       0.00000000 NULL       0.07142000      -0.02559200      -0.28500000
P       -0.18295295       6.23640206       7.30460807       0.00000000 NULL      -0.13831600      -0.26515800       0.31695400
P        0.27583523       2.86738793       2.64829608       0.00000000 NULL       0.11791100       0.56147300       0.50446300
P        0.49982768       0.55020202       5.23427128       0.00000000 NULL       0.28541900      -0.31017300       0.82098900
P        0.66294799       7.09014683       3.95762599       0.00000000 NULL       0.11344500      -0.70645200      -0.08680400
P        2.32333979       2.29465458       1.50917279       0.00000000 NULL      -0.12839900      -0.10932300      -0.31546500
9
Lattice="3.6390869773312713 0.40254103956520987 -0.0037842650670999053 0.19974035123392772 7.6429259737260775 1.9555751976601339 -1.202629918290323 0.5212716284373574 6.835305831425253" Properties=species:S:1:pos:R:3:initial_magmoms:R:1:castep_labels:S:1:forces:R:3 n_minim_iter=13 energy=-46.864508610533 stress="-0.00579035797621371 0.0007069248871162851 -0.0017276359300334402 0.0007069248871162851 -0.006468668335417797 0.0008027754418618706 -0.0017276359300334402 0.0008027754418618706 -0.0037900456091190414" free_energy=-46.864508610533 pbc="T T T"
P        2.31793296       4.94015772       3.60097849       0.00000000 NULL       0.00168500       0.01572700      -0.00368200
P       -0.46097731       0.89398409       3.38651766       0.00000000 NULL      -0.27585100       0.49151600      -0.77242300
P       -0.10915083       5.44618941       5.34867279       0.00000000 NULL       0.09729200       0.13520900      -0.49854900
P        1.35202054       3.77709580       5.19230479       0.00000000 NULL       0.10474800      -0.07028200      -0.32809500
P       -0.22127903       6.19707227       7.41145041       0.00000000 NULL      -0.27129400      -0.19534600       0.16282600
P        0.26077296       2.93164209       2.69389308       0.00000000 NULL       0.12293300       0.15504900       0.46874300
P        0.45137325       0.48315416       5.27805101       0.00000000 NULL       0.44273900      -0.10120100       0.80882200
P        0.68203950       7.07012094       4.01864561       0.00000000 NULL      -0.17525500      -0.38443300       0.26608000
P        2.28456140       2.34256789       1.49167890       0.00000000 NULL      -0.04699800      -0.04623800      -0.10372000
9
Lattice="3.7676063001611544 0.508317158090821 -0.14636962473273962 0.31490145341503933 7.718664940096379 1.9607973382628725 -1.43756477568769 0.4932752882785153 6.7586231111377" Properties=species:S:1:pos:R:3:initial_magmoms:R:1:castep_labels:S:1:forces:R:3 n_minim_iter=14 energy=-47.044551991608 stress="0.00513661201750192 0.002539456972210822 -0.00573044122143555 0.002539456972210822 0.0023712901366214805 0.0008532850936251886 -0.00573044122143555 0.0008532850936251886 -0.004068005556568891" free_energy=-47.044551991608 pbc="T T T"
P        2.41070665       5.11504930       3.42427085       0.00000000 NULL      -0.29975100      -0.17002800       0.19495600
P       -0.52658543       0.96192491       3.32035894       0.00000000 NULL      -0.19148000       0.14401100      -0.37503600
P       -0.13792742       5.48574694       5.25991745       0.00000000 NULL       0.50858700      -0.08171000      -0.44698600
P        1.39404389       3.80514550       4.95029044       0.00000000 NULL      -0.03478700       0.15415700      -0.75782800
P       -0.37718271       6.17771188       7.32944326       0.00000000 NULL      -0.35680700       0.21051400       0.03001600
P        0.23036362       3.02798728       2.71022995       0.00000000 NULL       0.18225100       0.13041600       0.61589800
P        0.31870688       0.36022732       5.22040352       0.00000000 NULL       0.54552700      -0.17650800       0.86979800
P        0.73636148       7.13158369       4.05626032       0.00000000 NULL      -0.14541200      -0.22925200      -0.10346900
P        2.30963429       2.51759002       1.39146877       0.00000000 NULL      -0.20812700       0.01840000      -0.02734800
9
Lattice="3.823107085941029 0.5701295302295489 -0.25195624775024544 0.3828214253656 7.687856463710005 1.9819590390679407 -1.5943427070517808 0.48906085662216414 6.8115702344864575" Properties=species:S:1:pos:R:3:initial_magmoms:R:1:castep_labels:S:1:forces:R:3 n_minim_iter=15 energy=-47.147865705276 stress="0.009238879219412329 0.004327551508449376 -0.00957717058406286 0.004327551508449376 0.00835632282096557 0.0001763008340503782 -0.00957717058406286 0.0001763008340503782 -0.0005748322628571866" free_energy=-47.147865705276 pbc="T T T"
P        2.43658790       5.17432721       3.38137710       0.00000000 NULL      -0.43750700      -0.10658700      -0.06570200
P       -0.58524908       0.97565214       3.34715379       0.00000000 NULL       0.12393100       0.00337800      -0.12986500
P       -0.15280137       5.45585389       5.27830246       0.00000000 NULL       0.77720900       0.12936000      -0.42329000
P        1.39825759       3.80077907       4.81918995       0.00000000 NULL       0.08011900      -0.08120900      -0.40577600
P       -0.52158631       6.11766425       7.34865702       0.00000000 NULL      -0.35225900       0.62210000       0.04214300
P        0.20915737       3.05878537       2.75749151       0.00000000 NULL       0.18263100       0.10429000       0.45142700
P        0.24190392       0.32750589       5.30005360       0.00000000 NULL       0.34173200      -0.54512100       0.44785900
P        0.76432331       7.10760942       4.07045583       0.00000000 NULL      -0.39062000      -0.10010100       0.18600400
P        2.30625164       2.61227232       1.35821803       0.00000000 NULL      -0.32523400      -0.02610900      -0.10280100
9
Lattice="3.862378130347975 0.5940094016730595 -0.3074427941122987 0.404816574450123 7.716701905676472 1.9747501773203795 -1.6811832019911164 0.479650556161304 6.741884195086464" Properties=species:S:1:pos:R:3:initial_magmoms:R:1:castep_labels:S:1:forces:R:3 n_minim_iter=16 energy=-47.24530983042 stress="0.013632986112224809 0.004366307913569628 -0.011822246797899633 0.004366307913569628 0.013707759062739182 -9.212154058435249e-05 -0.011822246797899633 -9.212154058435249e-05 -0.000511915235256379" free_energy=-47.24530983042 pbc="T T T"
P        2.44698131       5.24675379       3.28177852       0.00000000 NULL      -0.39640900      -0.20467700       0.04422500
P       -0.62030477       0.99096925       3.33103843       0.00000000 NULL       0.21141000      -0.04082700      -0.17016600
P       -0.12472475       5.48513943       5.20351502       0.00000000 NULL       0.49367400      -0.21190500      -0.15340000
P        1.39973130       3.77704755       4.66974147       0.00000000 NULL       0.32119800       0.21920100      -0.19842000
P       -0.66507090       6.11442804       7.28352382       0.00000000 NULL      -0.29586500       0.77651800      -0.15848100
P        0.20508849       3.11590798       2.76091091       0.00000000 NULL       0.05614000      -0.02877000       0.10999600
P        0.22441746       0.24372771       5.25667314       0.00000000 NULL       0.33798700      -0.63769900       0.53883900
P        0.75473618       7.13414263       4.04154757       0.00000000 NULL      -0.30087900       0.14740800       0.05596100
P        2.29501045       2.66848748       1.32116976       0.00000000 NULL      -0.42725700      -0.01925000      -0.06855500
9
Lattice="3.8247950490942393 0.5953196757688304 -0.35491932777137025 0.4009057958769151 7.741171781243298 2.0059738214116916 -1.7285775618782657 0.5070243757219137 6.746426199990199" Properties=species:S:1:pos:R:3:initial_magmoms:R:1:castep_labels:S:1:forces:R:3 n_minim_iter=17 energy=-47.332839085113 stress="0.01506845451385797 0.0035898926345450883 -0.014437333220951191 0.0035898926345450883 0.016362506680269617 0.0007080300272051848 -0.014437333220951191 0.0007080300272051848 0.0006660798084969626" free_energy=-47.332839085113 pbc="T T T"
P        2.39704346       5.29168422       3.23942432       0.00000000 NULL      -0.46730700      -0.16825100       0.07389900
P       -0.63035386       1.04837060       3.34387243       0.00000000 NULL       0.36820200      -0.34199000      -0.01325800
P       -0.12927379       5.49368218       5.20555815       0.00000000 NULL       0.34190300       0.04938200       0.03861900
P        1.38202788       3.80673389       4.64603436       0.00000000 NULL       0.47178700       0.14715300      -0.16784200
P       -0.80199921       6.13612899       7.29313515       0.00000000 NULL      -0.13050900       0.85033100      -0.22611800
P        0.20104414       3.16464943       2.77035287       0.00000000 NULL      -0.04569800      -0.12765500      -0.06396900
P        0.20566104       0.19828986       5.29037283       0.00000000 NULL       0.19315100      -0.64377800       0.31374000
P        0.71583314       7.18407788       4.07263668       0.00000000 NULL      -0.26597100       0.16814000       0.07273400
P        2.23277581       2.67734580       1.28807386       0.00000000 NULL      -0.46555900       0.06666800      -0.02780300
9
Lattice="3.783801716493041 0.6433582575746984 -0.3555609904277491 0.4664313545050284 7.705650829433339 1.9808815453592599 -1.7179354183537792 0.467502071318435 6.758631009207677" Properties=species:S:1:pos:R:3:initial_magmoms:R:1:castep_labels:S:1:forces:R:3 n_minim_iter=18 energy=-47.404900215476 stress="0.012983305934182262 0.0069331788920473465 -0.012432678647024492 0.0069331788920473465 0.012365706070078319 -0.0004749309360300968 -0.012432678647024492 -0.0004749309360300968 -0.00012917687980556195" free_energy=-47.404900215476 pbc="T T T"
P        2.39349936       5.31866712       3.22447124       0.00000000 NULL      -0.39579400      -0.18670200       0.18362300
P       -0.60451850       1.05497847       3.35831462       0.00000000 NULL       0.38898200      -0.36933100       0.08078900
P       -0.07764209       5.47340094       5.19571294       0.00000000 NULL       0.06308500      -0.13253700       0.04863600
P        1.42186326       3.79593478       4.62674052       0.00000000 NULL       0.51216300       0.11272200      -0.22124900
P       -0.80817648       6.07581999       7.29556557       0.00000000 NULL       0.02997900       0.82373600      -0.26231900