15
Lattice="7.552789999999999 4.492311132605125e-16 -2.251495449201361e-15 3.490885411891625 6.697638078094563 -1.5941259057926913e-15 3.4908854118916253 2.1171110331415837 6.354226679816546" Properties=species:S:1:pos:R:3:initial_magmoms:R:1:castep_labels:S:1 n_minim_iter=1 pbc="T T T"
P        6.57614256       4.86632311       2.10546284       0.00000000 NULL
P        7.35482267       3.12988717       2.73315115       0.00000000 NULL
P        6.17489625       4.19735558       3.95127673       0.00000000 NULL
P        5.42215682       5.82149981       4.93816312       0.00000000 NULL
P        7.66848104       5.35432170       0.44803716       0.00000000 NULL
P        8.29244524       1.79233867       3.96206684       0.00000000 NULL
P        6.04278451       6.51881303       3.15490468       0.00000000 NULL
P        8.57369511       3.73458693       1.22808966       0.00000000 NULL
P        7.27449046       3.02277752       5.18731107       0.00000000 NULL
P        6.79607613       2.89529902       0.22060159       0.00000000 NULL
P        5.70861734       1.69128518       4.37827760       0.00000000 NULL
P        4.13830452       5.50686504       2.67711513       0.00000000 NULL
P        3.71234064       0.59250039       0.85658089       0.00000000 NULL
P        2.24125243       1.76669723       2.59264903       0.00000000 NULL
P        2.60256859       2.82984245       0.29135718       0.00000000 NULL
15
Lattice="7.571894792674381 -0.016918888562787598 -0.012196201133110068 3.4847123354214777 6.722399641458472 -0.01219620113310816 3.484712335421479 2.1133672584937946 6.381573827632921" Properties=species:S:1:pos:R:3:initial_magmoms:R:1:castep_labels:S:1 n_minim_iter=2 pbc="T T T"
P        6.57816386       4.87327925       2.10130684       0.00000000 NULL
P        7.36192545       3.12549456       2.73311512       0.00000000 NULL
P        6.17428388       4.19995413       3.95918991       0.00000000 NULL
P        5.41454189       5.83294222       4.95106042       0.00000000 NULL
P        7.67510830       5.36275144       0.43253635       0.00000000 NULL
P        8.30298364       1.77825873       3.96884575       0.00000000 NULL
P        6.03850266       6.53413487       3.15603137       0.00000000 NULL
P        8.58530310       3.73221709       1.21741253       0.00000000 NULL
P        7.27775413       3.01624790       5.20149117       0.00000000 NULL
P        6.80645345       2.89402358       0.20808590       0.00000000 NULL
P        5.71228269       1.68250641       4.39152359       0.00000000 NULL
P        4.13221383       5.52174187       2.67986127       0.00000000 NULL
P        3.71907854       0.58645523       0.85500510       0.00000000 NULL
P        2.23900597       1.76797413       2.60146659       0.00000000 NULL
P        2.60266260       2.83739164       0.28612008       0.00000000 NULL
15
Lattice="7.820286324121479 -0.24373212984211473 -0.17569747960235715 3.3983857424879553 7.047500116183993 -0.17569747960235513 3.398385742487957 2.0610129240517345 6.7416877129427855" Properties=species:S:1:pos:R:3:initial_magmoms:R:1:castep_labels:S:1 n_minim_iter=3 pbc="T T T"
P        6.59856411       4.96170932       2.04341948       0.00000000 NULL
P        7.44977213       3.06337402       2.72979957       0.00000000 NULL
P        6.15979940       4.23050855       4.06138395       0.00000000 NULL
P        5.30691187       5.98040692       5.11889771       0.00000000 NULL
P        7.75613016       5.47026893       0.22427003       0.00000000 NULL
P        8.43577580       1.58767376       4.05569636       0.00000000 NULL
P        5.97482803       6.73296142       3.16772429       0.00000000 NULL
P        8.73218755       3.69641338       1.07296105       0.00000000 NULL
P        7.31389396       2.92560683       5.38642706       0.00000000 NULL
P        6.93860957       2.87408279       0.04022681       0.00000000 NULL
P        5.75568197       1.56321188       4.56451164       0.00000000 NULL
P        4.04648529       5.71545433       2.71400286       0.00000000 NULL
P        3.80554134       0.50474236       0.83293492       0.00000000 NULL
P        2.20650784       1.78321006       2.71701589       0.00000000 NULL
P        2.60115290       2.93568086       0.21557325       0.00000000 NULL
15
Lattice="7.844520235979563 -0.3520516426159994 -0.2537810108891626 3.3135313927739336 7.1190552604164505 -0.25378101088916044 3.3135313927739354 2.0095514583222527 6.834256034032231" Properties=species:S:1:pos:R:3:initial_magmoms:R:1:castep_labels:S:1 n_minim_iter=4 pbc="T T T"
P        6.52496716       4.94310770       1.98961759       0.00000000 NULL
P        7.39926027       2.99441859       2.69304531       0.00000000 NULL
P        6.07530484       4.19155430       4.06074278       0.00000000 NULL
P        5.18831318       5.97657454       5.13594855       0.00000000 NULL
P        7.69791560       5.45376121       0.12078269       0.00000000 NULL
P        8.39423048       1.47558633       4.04667074       0.00000000 NULL
P        5.86843069       6.74716037       3.13314570       0.00000000 NULL
P        8.69560219       3.63170922       0.98815206       0.00000000 NULL
P        7.23960613       2.84434438       5.41082821       0.00000000 NULL
P        6.91747744       2.82987023      -0.04087876       0.00000000 NULL
P        5.70670807       1.48680081       4.59175751       0.00000000 NULL
P        3.95609009       5.73873906       2.69769455       0.00000000 NULL
P        3.80131899       0.45773655       0.81051857       0.00000000 NULL
P        2.16287262       1.76762707       2.74116138       0.00000000 NULL
P        2.56716615       2.94863367       0.17806336       0.00000000 NULL
15
Lattice="7.806826169785267 -0.45051680417768963 -0.3247609047842925 3.20879265632901 7.131139454868318 -0.32476090478429126 3.2087926563290115 1.946030744130521 6.868157242882165" Properties=species:S:1:pos:R:3:initial_magmoms:R:1:castep_labels:S:1 n_minim_iter=5 pbc="T T T"
P        6.40484024       4.88803694       1.92360620       0.00000000 NULL
P        7.29490237       2.90616507       2.63699609       0.00000000 NULL
P        5.94880966       4.12202035       4.02936177       0.00000000 NULL
P        5.03818322       5.92547763       5.11125830       0.00000000 NULL
P        7.58321427       5.39571947       0.02468759       0.00000000 NULL
P        8.28974568       1.36074650       4.00599829       0.00000000 NULL
P        5.72406926       6.70976433       3.07592092       0.00000000 NULL
P        8.59571668       3.54241638       0.90118634       0.00000000 NULL
P        7.11425642       2.74688463       5.39343825       0.00000000 NULL
P        6.84460839       2.76798092      -0.11497570       0.00000000 NULL
P        5.61814614       1.40511930       4.58101250       0.00000000 NULL
P        3.84272367       5.71565399       2.66240043       0.00000000 NULL
P        3.76880683       0.41013872       0.78252758       0.00000000 NULL
P        2.10563692       1.73891188       2.74352815       0.00000000 NULL
P        2.51524795       2.93903073       0.14175395       0.00000000 NULL
15
Lattice="7.73561408905542 -0.5047228092410668 -0.3638360093883402 3.1278099443319682 7.093044156150375 -0.36383600938833793 3.1278099443319705 1.896917303603763 6.844366792195991" Properties=species:S:1:pos:R:3:initial_magmoms:R:1:castep_labels:S:1 n_minim_iter=6 pbc="T T T"
P        6.29249255       4.82555525       1.87211826       0.00000000 NULL
P        7.18756818       2.83495367       2.58615046       0.00000000 NULL
P        5.83605138       4.05409906       3.98635898       0.00000000 NULL
P        4.91974019       5.85620936       5.06294738       0.00000000 NULL
P        7.46704463       5.32680512      -0.02931444       0.00000000 NULL
P        8.17494065       1.28701840       3.95555264       0.00000000 NULL
P        5.60535414       6.64826905       3.02206333       0.00000000 NULL
P        8.48631419       3.46702786       0.84530025       0.00000000 NULL
P        6.99683802       2.67421183       5.35212033       0.00000000 NULL
P        6.75846035       2.71630982      -0.15530642       0.00000000 NULL
P        5.53250795       1.35025759       4.54394164       0.00000000 NULL
P        3.75449177       5.66449407       2.62612716       0.00000000 NULL
P        3.72732584       0.37995080       0.76041728       0.00000000 NULL
P        2.05969454       1.71071823       2.72885626       0.00000000 NULL
P        2.46901200       2.91635217       0.12010289       0.00000000 NULL
15
Lattice="7.689281368618889 -0.54256657670233 -0.3911161819528214 3.0728360769488883 7.0694486984591265 -0.39111618195281944 3.0728360769488905 1.8635774005594767 6.830604368579311" Properties=species:S:1:pos:R:3:initial_magmoms:R:1:castep_labels:S:1 n_minim_iter=7 pbc="T T T"
P        6.21313301       4.78448195       1.83534777       0.00000000 NULL
P        7.11446550       2.78382419       2.54901831       0.00000000 NULL
P        5.75692303       4.00584952       3.95901473       0.00000000 NULL
P        4.83967285       5.80738120       5.02886111       0.00000000 NULL
P        7.38673799       5.27915682      -0.06449004       0.00000000 NULL
P        8.09556966       1.23809715       3.92000268       0.00000000 NULL
P        5.52837907       6.61313015       2.98400888       0.00000000 NULL
P        8.41957609       3.41448163       0.80797780       0.00000000 NULL
P        6.91939502       2.62777278       5.33081206       0.00000000 NULL
P        6.69917269       2.68388235      -0.18121304       0.00000000 NULL
P        5.47634938       1.31379811       4.51647090       0.00000000 NULL
P        3.69620398       5.62801686       2.60355139       0.00000000 NULL
P        3.70194756       0.35950356       0.74436545       0.00000000 NULL
P        2.02983261       1.69136303       2.72154535       0.00000000 NULL
P        2.43804614       2.90387336       0.10577801       0.00000000 NULL
15
Lattice="7.680604371086336 -0.5457937738040147 -0.3934425490071483 3.0659637817706615 7.06324574381667 -0.39344254900714853 3.0659637817706624 1.8594095719921842 6.825454821511706" Properties=species:S:1:pos:R:3:initial_magmoms:R:1:castep_labels:S:1 n_minim_iter=8 pbc="T T T"
P        6.19557513       4.77842314       1.82806567       0.00000000 NULL
P        7.10097746       2.77287903       2.53920537       0.00000000 NULL
P        5.74098298       3.99435800       3.95556843       0.00000000 NULL
P        4.82972466       5.79437014       5.01839112       0.00000000 NULL
P        7.37060204       5.26833601      -0.06384465       0.00000000 NULL
P        8.07851602       1.23576734       3.91096829       0.00000000 NULL
P        5.52339736       6.61386927       2.97579827       0.00000000 NULL
P        8.41792899       3.40518760       0.80605790       0.00000000 NULL
P        6.91039200       2.62684748       5.33410865       0.00000000 NULL
P        6.68641022       2.68346709      -0.17968790       0.00000000 NULL
P        5.47008235       1.31172830       4.50543372       0.00000000 NULL
P        3.69147190       5.61609129       2.60267533       0.00000000 NULL
P        3.70070623       0.35795766       0.74087632       0.00000000 NULL
P        2.02788800       1.68793071       2.72228180       0.00000000 NULL
P        2.43410364       2.90452842       0.10541427       0.00000000 NULL
15
Lattice="7.611560020671733 -0.584409099523352 -0.4212789093889605 2.999808441615337 7.019866754968169 -0.4212789093889593 2.9998084416153388 1.8192884611510864 6.793099047719369" Properties=species:S:1:pos:R:3:initial_magmoms:R:1:castep_labels:S:1 n_minim_iter=9 pbc="T T T"
P        6.06581458       4.72363445       1.77409762       0.00000000 NULL
P        6.99241705       2.69330976       2.47112072       0.00000000 NULL
P        5.62024638       3.91095896       3.92064816       0.00000000 NULL
P        4.73352091       5.70595845       4.94873131       0.00000000 NULL
P        7.24773543       5.18819813      -0.08399385       0.00000000 NULL
P        7.95066290       1.19391884       3.84910911       0.00000000 NULL
P        5.45125818       6.59023955       2.91618059       0.00000000 NULL
P        8.36363212       3.33185780       0.77457326       0.00000000 NULL
P        6.82026894       2.59247078       5.33053555       0.00000000 NULL
P        6.59092534       2.66119760      -0.18854836       0.00000000 NULL
P        5.40620135       1.27981049       4.43766742       0.00000000 NULL
P        3.63364226       5.53855641       2.58434845       0.00000000 NULL
P        3.67811972       0.33785095       0.71655009       0.00000000 NULL
P        1.99961840       1.66145816       2.71978584       0.00000000 NULL
P        2.39756224       2.89810386       0.09402798       0.00000000 NULL
15
Lattice="7.711629657879917 -0.6135751720457107 -0.44230365255842863 3.0201966476675532 7.122086680282805 -0.44230365255842696 3.0201966476675555 1.8316532600161752 6.896723681401218" Properties=species:S:1:pos:R:3:initial_magmoms:R:1:castep_labels:S:1 n_minim_iter=10 pbc="T T T"
P        6.07127314       4.77331286       1.77885883       0.00000000 NULL
P        7.03899364       2.69209891       2.45242409       0.00000000 NULL
P        5.64070024       3.90645368       3.96627437       0.00000000 NULL
P        4.76839759       5.74527944       4.97494424       0.00000000 NULL
P        7.29872430       5.21709846      -0.08017990       0.00000000 NULL
P        7.99985800       1.20760751       3.87812812       0.00000000 NULL
P        5.54376057       6.70951013       2.93662700       0.00000000 NULL
P        8.51215291       3.35975963       0.79363312       0.00000000 NULL
P        6.91365766       2.64810856       5.43722763       0.00000000 NULL
P        6.64153845       2.72134320      -0.17091431       0.00000000 NULL
P        5.48293035       1.30194039       4.44830074       0.00000000 NULL
P        3.68873054       5.56691913       2.63583609       0.00000000 NULL
P        3.74603555       0.33622579       0.72270299       0.00000000 NULL
P        2.02956781       1.68657040       2.77569171       0.00000000 NULL
P        2.43367376       2.95586943       0.09054123       0.00000000 NULL
15
Lattice="7.5387637004325825 -0.5929089422220991 -0.4274061316807176 2.958624656222233 6.959241286830107 -0.4274061316807177 2.958624656222234 1.7943118044710191 6.737518863651142" Properties=species:S:1:pos:R:3:initial_magmoms:R:1:castep_labels:S:1 n_minim_iter=11 pbc="T T T"
P        5.93705287       4.66786736       1.74246873       0.00000000 NULL
P        6.88345067       2.63535717       2.39724407       0.00000000 NULL
P        5.51849132       3.81879290       3.87773828       0.00000000 NULL
P        4.67061674       5.61486883       4.85989366       0.00000000 NULL
P        7.13788508       5.09959111      -0.06889149       0.00000000 NULL
P        7.82131564       1.19040035       3.79077139       0.00000000 NULL
P        5.42868668       6.55983206       2.87374625       0.00000000 NULL
P        8.32623496       3.28971477       0.78233075       0.00000000 NULL
P        6.76561258       2.59550487       5.31510058       0.00000000 NULL
P        6.49588987       2.66758760      -0.15695296       0.00000000 NULL
P        5.36794264       1.28221306       4.34492400       0.00000000 NULL
P        3.61808969       5.43949302       2.58042357       0.00000000 NULL
P        3.66488565       0.33117181       0.70786401       0.00000000 NULL
P        1.98757873       1.65048365       2.71432636       0.00000000 NULL
P        2.38226559       2.89115287       0.09043696       0.00000000 NULL
15
Lattice="7.581843663837254 -0.609635287037053 -0.4394635351459512 2.9637036021288745 7.005174479254474 -0.43946353514595243 2.9637036021288745 1.797392023712548 6.784908223153476" Properties=species:S:1:pos:R:3:initial_magmoms:R:1:castep_labels:S:1 n_minim_iter=12 pbc="T T T"
P        5.95669637       4.68955994       1.74552967       0.00000000 NULL
P        6.91176634       2.64059812       2.40329057       0.00000000 NULL
P        5.53622631       3.83170079       3.89735104       0.00000000 NULL
P        4.68051095       5.64320766       4.88615331       0.00000000 NULL
P        7.16758839       5.12313746      -0.08129460       0.00000000 NULL
P        7.85592480       1.18351916       3.80935657       0.00000000 NULL
P        5.44657298       6.59695736       2.88495375       0.00000000 NULL
P        8.36742382       3.29993730       0.77755654       0.00000000 NULL
P        6.79371510       2.60102753       5.34677966       0.00000000 NULL
P        6.52611161       2.67772441      -0.16602610       0.00000000 NULL
P        5.39090016       1.28059556       4.36877282       0.00000000 NULL
P        3.62726625       5.46879053       2.59290863       0.00000000 NULL
P        3.68479993       0.32708213       0.70960796       0.00000000 NULL
P        1.99315644       1.65831783       2.73232247       0.00000000 NULL
P        2.39179076       2.90864516       0.08600571       0.00000000 NULL
15
Lattice="7.575371417121228 -0.6092453925312133 -0.4391824746143292 2.9610578911592347 6.9992548332562805 -0.43918247461433013 2.9610578911592347 1.7957874841120076 6.779203255455351" Properties=species:S:1:pos:R:3:initial_magmoms:R:1:castep_labels:S:1 n_minim_iter=13 pbc="T T T"
P        5.94891088       4.68483760       1.74406265       0.00000000 NULL
P        6.90398024       2.63771391       2.39927504       0.00000000 NULL
P        5.53006995       3.82613002       3.89333455       0.00000000 NULL
P        4.67625635       5.63710547       4.88029827       0.00000000 NULL
P        7.16021064       5.11728157      -0.08034746       0.00000000 NULL
P        7.84732195       1.18320524       3.80541802       0.00000000 NULL
P        5.44362860       6.59182225       2.88268181       0.00000000 NULL
P        8.36150924       3.29770676       0.77804931       0.00000000 NULL
P        6.78900340       2.60016300       5.34262600       0.00000000 NULL
P        6.51963421       2.67704850      -0.16386393       0.00000000 NULL
P        5.38730693       1.28092995       4.36293626       0.00000000 NULL
P        3.62590200       5.46219716       2.59158391       0.00000000 NULL
P        3.68263066       0.32674115       0.70942847       0.00000000 NULL
P        1.99185143       1.65758929       2.73070370       0.00000000 NULL
P        2.39054153       2.90685003       0.08573895       0.00000000 NULL
15
Lattice="7.574015650574073 -0.6097672097154383 -0.4395586333265228 2.959968523084091 6.998293754018656 -0.43955863332652323 2.959968523084091 1.7951268170035475 6.778410357196081" Properties=species:S:1:pos:R:3:initial_magmoms:R:1:castep_labels:S:1 n_minim_iter=14 pbc="T T T"
P        5.94366844       4.68281565       1.74355946       0.00000000 NULL
P        6.89976417       2.63606243       2.39591021       0.00000000 NULL
P        5.52665680       3.82199720       3.89157534       0.00000000 NULL
P        4.67446744       5.63424148       4.87711732       0.00000000 NULL
P        7.15684409       5.11418070      -0.07959113       0.00000000 NULL
P        7.84301616       1.18343216       3.80370638       0.00000000 NULL
P        5.44459440       6.59133353       2.88227767       0.00000000 NULL
P        8.36152224       3.29766546       0.77920389       0.00000000 NULL
P        6.78897279       2.60126807       5.34229009       0.00000000 NULL
P        6.51695266       2.67853805      -0.16140185       0.00000000 NULL
P        5.38738842       1.28229650       4.35924882       0.00000000 NULL
P        3.62715149       5.45852198       2.59221883       0.00000000 NULL
P        3.68327264       0.32641445       0.70983322       0.00000000 NULL
P        1.99185845       1.65820097       2.73125912       0.00000000 NULL
P        2.39108721       2.90728957       0.08530107       0.00000000 NULL
15
Lattice="7.568648338653266 -0.6091425037343552 -0.43910830588532795 2.9580417362518205 6.993245409010534 -0.4391083058853281 2.958041736251821 1.7939582820389748 6.773478510872248" Properties=species:S:1:pos:R:3:initial_magmoms:R:1:castep_labels:S:1 n_minim_iter=15 pbc="T T T"
P        5.85983167       4.65736965       1.74562673       0.00000000 NULL
P        6.83845006       2.61824120       2.33588223       0.00000000 NULL
P        5.48251408       3.75046387       3.86678059       0.00000000 NULL
P        4.66740598       5.59228917       4.82358252       0.00000000 NULL
P        7.11637796       5.06754065      -0.05021367       0.00000000 NULL
P        7.78295349       1.20677444       3.78082736       0.00000000 NULL
P        5.49970828       6.60291496       2.88912111       0.00000000 NULL
P        8.39726592       3.31791486       0.81833002       0.00000000 NULL
P        6.82345014       2.64544888       5.35111450       0.00000000 NULL
P        6.48527366       2.72611863      -0.09739899       0.00000000 NULL
P        5.41493979       1.32718629       4.29150176       0.00000000 NULL
P        3.67969291       5.39541304       2.61712860       0.00000000 NULL
P        3.71157380       0.32676676       0.72417480       0.00000000 NULL
P        2.00525161       1.67968879       2.75038130       0.00000000 NULL
P        2.41633240       2.92604613       0.08110196       0.00000000 NULL
