28
Lattice="3.6956922372398786 6.124206029990284e-07 -5.435907053615874e-17 -1.8478472902010188 7.069982446681299 -0.5296422970909294 3.4278087919582064e-07 -2.068533662873479 21.661343876993826" Properties=species:S:1:pos:R:3:initial_magmoms:R:1:castep_labels:S:1:forces:R:3 n_minim_iter=1 energy=-146.477556738856 stress="0.00020075489619351104 3.5591684459447046e-08 -1.7795842229723523e-08 3.5591684459447046e-08 -0.0014710043187089463 0.003697513323438575 -1.7795842229723523e-08 0.003697513323438575 -0.00043991321991876544" free_energy=-146.477556738856 pbc="T T T"
P        2.23300444       5.15741565       5.90013679       0.00000000 NULL      -0.02272400       0.18278600      -0.10711500
P        1.46268626       4.12314869      16.73080873       0.00000000 NULL       0.02272400       0.18278800      -0.10711400
P        2.36908581       2.35282052       3.79204242       0.00000000 NULL      -0.18680300       0.00112700      -0.07812600
P        1.32660581       1.31855352      14.62271436       0.00000000 NULL       0.18680300       0.00112700      -0.07812400
P        0.74263710       5.62587997      -0.13370346       0.00000000 NULL       0.02254900      -0.06878700       0.06583000
P       -0.74263880       4.59161289      10.69696848       0.00000000 NULL      -0.02254700      -0.06879300       0.06583300
P        0.83576002       0.39580195       9.17773959       0.00000000 NULL      -0.03243400       0.14700700      -0.00657500
P        2.85993226      -0.63846454      20.00841153       0.00000000 NULL       0.03243400       0.14700900      -0.00657500
P        0.41002110       3.23638755      18.40208923       0.00000000 NULL      -0.05501800      -0.03711100       0.05300900
P       -0.41002235       4.27065425       7.57141729       0.00000000 NULL       0.05501900      -0.03711100       0.05300800
P        1.42363062       1.48750105      20.95147453       0.00000000 NULL      -0.05867000       0.07205600       0.01603800
P        2.27206095       2.52176802      10.12080259       0.00000000 NULL       0.05866700       0.07205900       0.01603800
P        2.00427652       3.32477776      13.49371686       0.00000000 NULL      -0.15419300       0.00485500       0.04291400
P       -2.00427780       4.35904392       2.66304492       0.00000000 NULL       0.15419200       0.00485600       0.04291500
P        0.30800301       0.18073560      16.17328056       0.00000000 NULL      -0.09578900      -0.03460000       0.13478800
P       -0.30800324       1.21500233       5.34260862       0.00000000 NULL       0.09579000      -0.03460000       0.13478900
P       -1.68721927       5.47859861      12.48057290       0.00000000 NULL       0.03041600       0.11931400      -0.04081400
P        1.68721728       6.51286600       1.64990096       0.00000000 NULL      -0.03041400       0.11931300      -0.04081500
P        1.98966626       1.06001792       1.95334432       0.00000000 NULL      -0.10903700      -0.00139500       0.05802600
P        1.70602580       0.02575104      12.78401626       0.00000000 NULL       0.10903600      -0.00139700       0.05802600
P        2.61895583       2.10310976      16.47134284       0.00000000 NULL       0.09902300      -0.31853800       0.01591800
P        1.07673554       3.13737633       5.64067090       0.00000000 NULL      -0.09902400      -0.31853900       0.01591700
P        1.79554248       4.42853135      19.81160968       0.00000000 NULL       0.08389000      -0.15249000      -0.06672900
P       -1.79554412       5.46279758       8.98093774       0.00000000 NULL      -0.08389300      -0.15248400      -0.06673200
P       -0.45627643       0.42906164      21.89005859       0.00000000 NULL       0.02094400       0.04289800      -0.09983500
P        0.45627612       1.46332862      11.05938665       0.00000000 NULL      -0.02094100       0.04289800      -0.09983500
P       -0.09559023       4.48937257       4.14337257       0.00000000 NULL      -0.11043200       0.04287600       0.01267100
P        0.09558891       3.45510577      14.97404450       0.00000000 NULL       0.11043200       0.04287500       0.01267100
28
Lattice="3.6942753756959292 6.121858121354536e-07 -1.096305151753169e-16 -1.8471388633757662 7.09379920114525 -0.5801241398663249 3.691516030389672e-07 -2.227669525468296 21.69472963601195" Properties=species:S:1:pos:R:3:initial_magmoms:R:1:castep_labels:S:1:forces:R:3 n_minim_iter=2 energy=-146.495392758164 stress="0.00163320852208751 1.7737806376188002e-08 -1.7737806376188002e-08 1.7737806376188002e-08 0.0013568712365528773 0.00012744613881291076 -1.7737806376188002e-08 0.00012744613881291076 0.0005917332207096317" free_energy=-146.495392758164 pbc="T T T"
P        2.23207114       5.13093527       5.86838401       0.00000000 NULL      -0.00614800       0.14716600      -0.00722900
P        1.46220272       4.01710038      16.71574883       0.00000000 NULL       0.00614800       0.14716800      -0.00722800
P        2.36754283       2.33267466       3.77841169       0.00000000 NULL      -0.12101200       0.01554600       0.01079300
P        1.32673196       1.21883972      14.62577650       0.00000000 NULL       0.12101100       0.01554600       0.01079500
P        0.74242900       5.64255988      -0.17339927       0.00000000 NULL       0.04212700      -0.05862200      -0.02524600
P       -0.74243069       4.52872487      10.67396555       0.00000000 NULL      -0.04212400      -0.05862700      -0.02524100
P        0.83532941       0.33249004       9.18285740       0.00000000 NULL      -0.04249100       0.04202100      -0.02836100
P        2.85894604      -0.78134439      20.03022222       0.00000000 NULL       0.04249200       0.04202200      -0.02835900
P        0.40967698       3.11524352      18.39530026       0.00000000 NULL      -0.02280100       0.01295700      -0.02731500
P       -0.40967820       4.22907815       7.54793544       0.00000000 NULL       0.02280200       0.01295700      -0.02731600
P        1.42288550       1.34372746      20.95913808       0.00000000 NULL      -0.05686900       0.02656500       0.02309300
P        2.27138924       2.45756236      10.11177326       0.00000000 NULL       0.05686600       0.02656900       0.02309200
P        2.00298421       3.23875693      13.48201849       0.00000000 NULL      -0.19372400      -0.03413900       0.06408500
P       -2.00298547       4.35259103       2.63465367       0.00000000 NULL       0.19372300      -0.03413800       0.06408600
P        0.30755947       0.06669405      16.18646066       0.00000000 NULL      -0.05235700       0.06766100       0.03296500
P       -0.30755968       1.18052871       5.33909584       0.00000000 NULL       0.05235800       0.06766100       0.03296700
P       -1.68646906       5.40625239      12.45247067       0.00000000 NULL       0.03589400       0.12711800       0.03108100
P        1.68646708       6.52008771       1.60510585       0.00000000 NULL      -0.03589500       0.12711900       0.03108100
P        1.98853297       1.04919999       1.94773245       0.00000000 NULL      -0.11731400      -0.04638500       0.00902900
P        1.70574224      -0.06463482      12.79509727       0.00000000 NULL       0.11731400      -0.04638500       0.00902900
P        2.61828825       1.99145122      16.47078168       0.00000000 NULL       0.09427600      -0.28056200      -0.04217900
P        1.07598628       3.10528573       5.62341686       0.00000000 NULL      -0.09427700      -0.28056300      -0.04218000
P        1.79513917       4.30040799      19.79720124       0.00000000 NULL       0.05893900      -0.15273700      -0.00257700
P       -1.79514078       5.41424216       8.94983642       0.00000000 NULL      -0.05894500      -0.15273200      -0.00258100
P       -0.45603032       0.27554597      21.90563000       0.00000000 NULL       0.04811400       0.13797900      -0.07336100
P        0.45603004       1.38938089      11.05826518       0.00000000 NULL      -0.04811100       0.13797800      -0.07336000
P       -0.09592881       4.47294596       4.11523674       0.00000000 NULL      -0.11506800      -0.00457000       0.03521800
P        0.09592751       3.35911123      14.96260156       0.00000000 NULL       0.11506900      -0.00457000       0.03521800
28
Lattice="3.6853574670049065 6.107080074906493e-07 -1.286978025639713e-16 -1.842679907315282 7.0834500863789 -0.5881572878994689 3.7289313790947537e-07 -2.2502480632261697 21.681459199690792" Properties=species:S:1:pos:R:3:initial_magmoms:R:1:castep_labels:S:1:forces:R:3 n_minim_iter=3 energy=-146.498328596854 stress="6.235766449274442e-05 1.7821567445768628e-08 -1.7821567445768628e-08 1.7821567445768628e-08 -0.0007265318400616496 -0.0003919853759696809 -1.7821567445768628e-08 -0.0003919853759696809 -0.0013501084849890936" free_energy=-146.498328596854 pbc="T T T"
P        2.22665619       5.11636935       5.85788007       0.00000000 NULL      -0.02957600       0.18515200       0.00592800
P        1.45869977       3.99124520      16.69860967       0.00000000 NULL       0.02957600       0.18515400       0.00592800
P        2.36142732       2.32454653       3.77284520       0.00000000 NULL      -0.11614800       0.01501000      -0.00034100
P        1.32392956       1.19942232      14.61357480       0.00000000 NULL       0.11614700       0.01500900      -0.00033900
P        0.74075547       5.63379826      -0.18003058       0.00000000 NULL       0.01763500      -0.04936500      -0.03683300
P       -0.74075716       4.50867398      10.66069902       0.00000000 NULL      -0.01763200      -0.04936700      -0.03683200
P        0.83318851       0.32112836       9.17564120       0.00000000 NULL      -0.03639100       0.04344700      -0.06180200
P        2.85216903      -0.80399533      20.01637079       0.00000000 NULL       0.03639000       0.04344800      -0.06180300
P        0.40860297       3.08832311      18.37803622       0.00000000 NULL      -0.04478800      -0.00836200      -0.02320800
P       -0.40860418       4.21344701       7.53730662       0.00000000 NULL       0.04478900      -0.00836300      -0.02320800
P        1.41927674       1.31657379      20.94221472       0.00000000 NULL      -0.05647900       0.00939800       0.00633600
P        2.26608010       2.44169796      10.10148512       0.00000000 NULL       0.05647500       0.00939800       0.00633700
P        1.99757869       3.21743883      13.46844564       0.00000000 NULL      -0.20054800      -0.03853100       0.04888600
P       -1.99757994       4.34256220       2.62771604       0.00000000 NULL       0.20054600      -0.03853100       0.04888600
P        0.30663655       0.04731190      16.17464599       0.00000000 NULL      -0.04046200       0.05115100       0.04515300
P       -0.30663676       1.17243583       5.33391639       0.00000000 NULL       0.04046400       0.05115100       0.04515500
P       -1.68229138       5.38326835      12.43693658       0.00000000 NULL       0.00973100       0.12842000       0.05920500
P        1.68228940       6.50839294       1.59620698       0.00000000 NULL      -0.00973100       0.12842000       0.05920400
P        1.98337968       1.04510705       1.94510476       0.00000000 NULL      -0.14014000      -0.04397600      -0.00422200
P        1.70197763      -0.08001703      12.78583436       0.00000000 NULL       0.14014100      -0.04397700      -0.00422200
P        2.61225700       1.96769846      16.45622701       0.00000000 NULL       0.07712200      -0.29396700      -0.01849400
P        1.07309963       3.09282224       5.61549741       0.00000000 NULL      -0.07712300      -0.29396800      -0.01849500
P        1.79099727       4.26947537      19.77750686       0.00000000 NULL       0.08554300      -0.15477100       0.00243000
P       -1.79099887       5.39459881       8.93677726       0.00000000 NULL      -0.08554700      -0.15476900       0.00243000
P       -0.45479626       0.24919618      21.88897706       0.00000000 NULL       0.06366900       0.14737500      -0.04286900
P        0.45479598       1.37432036      11.04824746       0.00000000 NULL      -0.06366500       0.14737600      -0.04287100
P       -0.09604519       4.46104810       4.10697844       0.00000000 NULL      -0.11200300       0.00901900       0.01982900
P        0.09604390       3.33592410      14.94770804       0.00000000 NULL       0.11200400       0.00901800       0.01982900
28
Lattice="3.6571700844791573 6.060370196041099e-07 -2.2541405890241114e-16 -1.828586215859972 7.082288825124031 -0.5968616551047072 3.755214055416266e-07 -2.2661085201784688 21.821200722860173" Properties=species:S:1:pos:R:3:initial_magmoms:R:1:castep_labels:S:1:forces:R:3 n_minim_iter=4 energy=-146.507215688824 stress="-0.0013160079188543102 3.5698515342790775e-08 -1.7849257671395387e-08 3.5698515342790775e-08 -0.0005597170220596166 -0.0001253910351415526 -1.7849257671395387e-08 -0.0001253910351415526 0.001607682638462582" free_energy=-146.507215688824 pbc="T T T"
P        2.20921756       5.11427964       5.89144578       0.00000000 NULL      -0.03398000       0.16264800       0.04829600
P        1.44795102       3.98122525      16.80204614       0.00000000 NULL       0.03397900       0.16264900       0.04829600
P        2.34089676       2.32146424       3.79523587       0.00000000 NULL      -0.11732400      -0.02253400      -0.00509500
P        1.31627274       1.18840981      14.70583624       0.00000000 NULL       0.11732300      -0.02253400      -0.00509400
P        0.73563937       5.63155940      -0.18563569       0.00000000 NULL       0.04879800       0.00532500      -0.03869100
P       -0.73564105       4.49850489      10.72496467       0.00000000 NULL      -0.04879500       0.00531800      -0.03868800
P        0.82604035       0.31515496       9.23293575       0.00000000 NULL      -0.07152700       0.04280700       0.00125500
P        2.83112981      -0.81789896      20.14353612       0.00000000 NULL       0.07152700       0.04280900       0.00125600
P        0.40473015       3.07371202      18.49258097       0.00000000 NULL      -0.03747600       0.01042100      -0.04600900
P       -0.40473136       4.20676614       7.58198061       0.00000000 NULL       0.03747600       0.01042000      -0.04601000
P        1.40727681       1.30086541      21.07501723       0.00000000 NULL      -0.06416800       0.02285400       0.00267400
P        2.24989265       2.43391981      10.16441686       0.00000000 NULL       0.06416600       0.02285900       0.00267300
P        1.97836757       3.20582348      13.55315086       0.00000000 NULL      -0.19178400      -0.06532000       0.07266600
P       -1.97836882       4.33887709       2.64255050       0.00000000 NULL       0.19178300      -0.06532000       0.07266600
P        0.30331378       0.03613929      16.27861803       0.00000000 NULL       0.01036600       0.06400200       0.01236800
P       -0.30331398       1.16919345       5.36801767       0.00000000 NULL      -0.01036500       0.06400200       0.01236900
P       -1.66900133       5.37524995      12.51325070       0.00000000 NULL      -0.01893500       0.12278800       0.01224800
P        1.66899936       6.50830476       1.60265034       0.00000000 NULL       0.01893700       0.12278700       0.01224700
P        1.96559850       1.04253638       1.95688057       0.00000000 NULL      -0.18574800      -0.03623600       0.03379700
P        1.69157143      -0.09051793      12.86748093       0.00000000 NULL       0.18574700      -0.03623800       0.03379800
P        2.59399169       1.94889078      16.55929533       0.00000000 NULL       0.02806800      -0.27167900      -0.03616400
P        1.06317756       3.08194479       5.64869497       0.00000000 NULL      -0.02806700      -0.27167900      -0.03616500
P        1.77881782       4.25042591      19.90052625       0.00000000 NULL       0.05952800      -0.15183000       0.00705700
P       -1.77881942       5.38347958       8.98992589       0.00000000 NULL      -0.05953100      -0.15182400       0.00705300
P       -0.45020751       0.23544078      22.02705237       0.00000000 NULL       0.07149600       0.09625200      -0.10493200
P        0.45020724       1.36849519      11.11645201       0.00000000 NULL      -0.07149400       0.09625200      -0.10493100
P       -0.09759060       4.45705016       4.13054588       0.00000000 NULL      -0.09453000       0.02049900       0.04052900
P        0.09758931       3.32399593      15.04114625       0.00000000 NULL       0.09453000       0.02049900       0.04052900
28
Lattice="3.6271678913674013 6.010652957779231e-07 -2.2012075287801677e-16 -1.8135851302178356 7.148148517848724 -0.5883953561309248 3.7631345621652116e-07 -2.270888201722311 21.668360412191802" Properties=species:S:1:pos:R:3:initial_magmoms:R:1:castep_labels:S:1:forces:R:3 n_minim_iter=5 energy=-146.540848128594 stress="-0.0034861346249281952 1.7954588002555547e-08 -0.0 1.7954588002555547e-08 0.0029550379118126018 0.0006468858511440738 -0.0 0.0006468858511440738 -0.002569050178933663" free_energy=-146.540848128594 pbc="T T T"
P        2.18790409       5.18967161       5.85470470       0.00000000 NULL      -0.09957200      -0.00940300       0.00662100
P        1.43926227       4.05422739      16.68888491       0.00000000 NULL       0.09957200      -0.00940200       0.00662100
P        2.30566418       2.34656494       3.77007940       0.00000000 NULL      -0.15212000      -0.12512800      -0.14686000
P        1.32150312       1.21112068      14.60425961       0.00000000 NULL       0.15212000      -0.12512800      -0.14685900
P        0.73408737       5.67915670      -0.18493771       0.00000000 NULL       0.02247200      -0.04730600       0.10581100
P       -0.73408907       4.54371235      10.64924249       0.00000000 NULL      -0.02247300      -0.04730700       0.10580900
P        0.81286783       0.33158496       9.16460822       0.00000000 NULL      -0.11123100      -0.19181100       0.00481800
P        2.81430014      -0.80385881      19.99878843       0.00000000 NULL       0.11123100      -0.19180900       0.00481600
P        0.39650713       3.11675662      18.36227498       0.00000000 NULL      -0.01842600       0.03130300      -0.01545200
P       -0.39650836       4.25220059       7.52809478       0.00000000 NULL       0.01842600       0.03130300      -0.01545200
P        1.38790503       1.33172920      20.93089683       0.00000000 NULL       0.00411300       0.10421000      -0.10602400
P        2.23926223       2.46717344      10.09671663       0.00000000 NULL      -0.00411500       0.10421000      -0.10602200
P        1.93632206       3.23993912      13.46929115       0.00000000 NULL      -0.14317400      -0.10055000       0.02663200
P       -1.93632333       4.37538258       2.63511095       0.00000000 NULL       0.14317400      -0.10054900       0.02663200
P        0.29667432       0.05639729      16.17037988       0.00000000 NULL       0.03622800       0.03693400       0.04867400
P       -0.29667453       1.19184129       5.33619967       0.00000000 NULL      -0.03622700       0.03693500       0.04867500
P       -1.65403637       5.45227297      12.43399278       0.00000000 NULL      -0.01744700       0.15606300       0.04298900
P        1.65403437       6.58771762       1.59981257       0.00000000 NULL       0.01744700       0.15606200       0.04298900
P        1.93010848       1.04813773       1.94580178       0.00000000 NULL      -0.22441400      -0.07738900       0.02509200
P        1.69705925      -0.08730641      12.77998199       0.00000000 NULL       0.22441300      -0.07739000       0.02509200
P        2.58182456       1.94050113      16.44223191       0.00000000 NULL      -0.04123700      -0.06141000       0.06830900
P        1.04534250       3.07594498       5.60805171       0.00000000 NULL       0.04123800      -0.06141000       0.06830900
P        1.77358908       4.28411901      19.76529064       0.00000000 NULL       0.05314500       0.19138600      -0.09789900
P       -1.77359069       5.41956252       8.93111044       0.00000000 NULL      -0.05314500       0.19138800      -0.09789800
P       -0.43855538       0.27170413      21.86425360       0.00000000 NULL       0.04484100       0.00807000      -0.03946300
P        0.43855510       1.40714838      11.03007339       0.00000000 NULL      -0.04483900       0.00807100      -0.03946600
P       -0.11110652       4.50318388       4.10865068       0.00000000 NULL       0.07478400       0.08502900       0.07675300
P        0.11110521       3.36773982      14.94283088       0.00000000 NULL      -0.07478500       0.08502800       0.07675300
28
Lattice="3.648140597805653 6.045407251944035e-07 -2.1131850659084537e-16 -1.8240714748765157 7.096489944892585 -0.6010402349660192 3.795942231387535e-07 -2.290686204254017 21.719481780134682" Properties=species:S:1:pos:R:3:initial_magmoms:R:1:castep_labels:S:1:forces:R:3 n_minim_iter=6 energy=-146.56470963074 stress="-0.0011227892384699518 3.5889059883968415e-08 0.0 3.5889059883968415e-08 -0.0008330927470865586 0.00011624466496417368 0.0 0.00011624466496417368 -0.0013277875485271794" free_energy=-146.56470963074 pbc="T T T"
P        2.19814286       5.15468887       5.85994842       0.00000000 NULL      -0.02251700      -0.13569100       0.04761200
P        1.44999622       4.00934565      16.71968931       0.00000000 NULL       0.02251600      -0.13569000       0.04761100
P        2.30876531       2.32244012       3.77363692       0.00000000 NULL      -0.11871500      -0.15452900      -0.10500100
P        1.33937470       1.17709686      14.63337781       0.00000000 NULL       0.11871600      -0.15452800      -0.10500000
P        0.74113580       5.63447379      -0.19605001       0.00000000 NULL       0.02754300       0.08894600       0.13807600
P       -0.74113748       4.48913045      10.66369088       0.00000000 NULL      -0.02754300       0.08894400       0.13807700
P        0.81314971       0.31619981       9.18172138       0.00000000 NULL      -0.11933700      -0.19546600       0.00793800
P        2.83499097      -0.82914295      20.04146227       0.00000000 NULL       0.11933700      -0.19546200       0.00794000
P        0.39588526       3.06330568      18.39522145       0.00000000 NULL       0.06667900       0.06865700      -0.09190000
P       -0.39588647       4.20864865       7.53548056       0.00000000 NULL      -0.06668000       0.06865700      -0.09190100
P        1.39139487       1.28893492      20.97482577       0.00000000 NULL       0.05947400      -0.01247100      -0.11430700
P        2.25674511       2.43427817      10.11508488       0.00000000 NULL      -0.05947500      -0.01247000      -0.11430800
P        1.93162738       3.18920037      13.49869292       0.00000000 NULL      -0.04316300      -0.08547300       0.07111900
P       -1.93162863       4.33454283       2.63895203       0.00000000 NULL       0.04316400      -0.08547300       0.07112000
P        0.29620459       0.03341854      16.20871044       0.00000000 NULL       0.10839700      -0.04590100       0.00952100
P       -0.29620479       1.17876154       5.34896955       0.00000000 NULL      -0.10839700      -0.04590000       0.00952100
P       -1.66292870       5.40205009      12.45529449       0.00000000 NULL      -0.01919500       0.12450200       0.00219200
P        1.66292672       6.54739375       1.59555360       0.00000000 NULL       0.01919800       0.12449900       0.00219100
P        1.92866438       1.03339109       1.94967488       0.00000000 NULL      -0.23453000      -0.08036200       0.01716700
P        1.71947607      -0.11195205      12.80941577       0.00000000 NULL       0.23452700      -0.08036500       0.01716800
P        2.60182052       1.87567400      16.47367736       0.00000000 NULL      -0.09222000       0.10798600       0.05932300
P        1.04631926       3.02101684       5.61393647       0.00000000 NULL       0.09222100       0.10798600       0.05932200
P        1.78955317       4.20834386      19.80140496       0.00000000 NULL       0.01689800       0.20921900      -0.11139300
P       -1.78955475       5.35368637       8.94166407       0.00000000 NULL      -0.01689700       0.20922300      -0.11139500
P       -0.43620095       0.24295252      21.90560494       0.00000000 NULL       0.01375400      -0.00596000      -0.04025000
P        0.43620068       1.38829577      11.04586405       0.00000000 NULL      -0.01375400      -0.00595800      -0.04024800
P       -0.11963607       4.46431676       4.11336625       0.00000000 NULL       0.13720700       0.11654000       0.10990300
P        0.11963478       3.31897369      14.97310714       0.00000000 NULL      -0.13721000       0.11653900       0.10990200
28
Lattice="3.580044642987151 5.932564074047972e-07 -2.1843955791347712e-16 -1.7900235061733696 7.149027510512085 -0.6384333430579249 3.994376496266967e-07 -2.410432661126601 21.855526993995095" Properties=species:S:1:pos:R:3:initial_magmoms:R:1:castep_labels:S:1:forces:R:3 n_minim_iter=7 energy=-146.69601227414 stress="-0.004211262878546879 1.805518203489427e-08 0.0 1.805518203489427e-08 -0.003166337273459408 0.00018414480157388663 0.0 0.00018414480157388663 -0.0025637275178627766" free_energy=-146.69601227414 pbc="T T T"
P        2.14780121       5.17907990       5.88688066       0.00000000 NULL      -0.25501600       0.02570200      -0.25169700
P        1.43224191       3.97386345      16.81464416       0.00000000 NULL       0.25501600       0.02570300      -0.25169700
P        2.19363499       2.28020117       3.76049302       0.00000000 NULL      -0.03011200      -0.14360800      -0.04258600
P        1.38640910       1.07498470      14.68825652       0.00000000 NULL       0.03011200      -0.14360700      -0.04258600
P        0.75009635       5.68684535      -0.19780249       0.00000000 NULL       0.22393600       0.06484800      -0.30504200
P       -0.75009803       4.48162877      10.72996101       0.00000000 NULL      -0.22393600       0.06484300      -0.30504200
P        0.74890252       0.23627008       9.22851642       0.00000000 NULL      -0.07965500      -0.00570700      -0.03101800
P        2.83114225      -0.96894591      20.15627992       0.00000000 NULL       0.07965500      -0.00570600      -0.03101800
P        0.39791437       3.02216500      18.44643814       0.00000000 NULL      -0.14498600      -0.13064900       0.34450800
P       -0.39791557       4.22738120       7.51867465       0.00000000 NULL       0.14498500      -0.13064900       0.34450800
P        1.36098495       1.20135193      21.06436997       0.00000000 NULL       0.15004700       0.40081000      -0.20728000
P        2.21905909       2.40656840      10.13660647       0.00000000 NULL      -0.15004800       0.40081500      -0.20728000
P        1.81756961       3.10656468      13.60728635       0.00000000 NULL       0.06190400      -0.35808500       0.05438700
P       -1.81757084       4.31178041       2.67952285       0.00000000 NULL      -0.06190100      -0.35808500       0.05438800
P        0.30845364      -0.03301977      16.31278088       0.00000000 NULL       0.40473900      -0.12828400      -0.11473400
P       -0.30845384       1.17219646       5.38501738       0.00000000 NULL      -0.40473800      -0.12828300      -0.11473400
P       -1.62998252       5.46041406      12.50928019       0.00000000 NULL      -0.07885700       0.16902600       0.16638500
P        1.62998051       6.66563093       1.58151669       0.00000000 NULL       0.07885400       0.16903000       0.16638600
P        1.78292294       0.99257626       1.96695435       0.00000000 NULL      -0.33352200      -0.15249400      -0.07312400
P        1.79712158      -0.21264007      12.89471785       0.00000000 NULL       0.33352600      -0.15249100      -0.07312400
P        2.55487025       1.73993756      16.56179662       0.00000000 NULL      -0.07811600       0.31807200       0.02894400
P        1.02517362       2.94515364       5.63403312       0.00000000 NULL       0.07811600       0.31807200       0.02894300
P        1.78081368       4.14460936      19.86517685       0.00000000 NULL      -0.06853900      -0.03192500       0.33773300
P       -1.78081526       5.34982510       8.93741336       0.00000000 NULL       0.06853900      -0.03192300       0.33773300
P       -0.40532333       0.18674414      21.98835408       0.00000000 NULL      -0.05496300      -0.24045700      -0.05125100
P        0.40532307       1.39196061      11.06059059       0.00000000 NULL       0.05496500      -0.24045800      -0.05125000
P       -0.11948526       4.50819609       4.15924357       0.00000000 NULL       0.49210500       0.21274600       0.14477400
P        0.11948396       3.30297980      15.08700707       0.00000000 NULL      -0.49210700       0.21274500       0.14477400
28
Lattice="3.510153563090596 5.816746158237156e-07 -2.221578506422374e-16 -1.7550779751451466 7.20285617089226 -0.6766953896829075 4.196513612321255e-07 -2.5324136276689106 22.002324944645757" Properties=species:S:1:pos:R:3:initial_magmoms:R:1:castep_labels:S:1:forces:R:3 n_minim_iter=8 energy=-146.825021030407 stress="-0.010141993040888966 3.6345627881326416e-08 0.0 3.6345627881326416e-08 -0.006344965296126796 -0.00038117477240541076 0.0 -0.00038117477240541076 -0.0034442389077320753" free_energy=-146.825021030407 pbc="T T T"
P        2.08956899       5.20656956       5.90182733       0.00000000 NULL      -0.32693900       0.12202700      -0.23554400
P        1.42058305       3.94036263      16.90298980       0.00000000 NULL       0.32693800       0.12202800      -0.23554400
P        2.08618611       2.23897754       3.75354002       0.00000000 NULL      -0.02649300      -0.14333100      -0.10881400
P        1.42396692       0.97277062      14.75470249       0.00000000 NULL       0.02649400      -0.14333000      -0.10881300
P        0.76586993       5.73942892      -0.21909380       0.00000000 NULL       0.32022800       0.12556300      -0.30197800