45
Lattice="7.18666 0.0 0.0 0.0 12.846229999999997 3.18786678239615e-16 0.0 -6.4231149999999975 11.125161522857766" Properties=species:S:1:pos:R:3:initial_magmoms:R:1:castep_labels:S:1 n_minim_iter=1 pbc="T T T"
P        3.90777225      -0.26850612       6.19101110       0.00000000 NULL
P        3.90777225      -0.92728905       8.26218909       0.00000000 NULL
P        3.90777225       1.19579517       7.79712285       0.00000000 NULL
P        3.68923238       8.12682313       3.27317827       0.00000000 NULL
P        3.68923238       5.19435897       2.45053710       0.00000000 NULL
P        3.68923238       5.94816290       5.40144615       0.00000000 NULL
P        1.28120612       9.07442786       3.54761153       0.00000000 NULL
P        1.28120612       4.95822278       1.49267070       0.00000000 NULL
P        1.28120612       5.23669436       6.08487928       0.00000000 NULL
P        4.11111448      -0.50814740       2.30543941       0.00000000 NULL
P        4.11111448      -4.17247220      10.41251037       0.00000000 NULL
P        4.11111448       4.68061960       9.53237326       0.00000000 NULL
P        5.03596288       2.77814497       2.72976976       0.00000000 NULL
P        5.03596288       7.39809247       7.35433252       0.00000000 NULL
P        5.03596288       9.09310755       1.04105924       0.00000000 NULL
P        3.44719861       2.98264218       8.63816170       0.00000000 NULL
P        3.44719861      -0.43356862       4.22303677       0.00000000 NULL
P        3.44719861      -2.54907357       9.38912457       0.00000000 NULL
P        1.12229039       0.82916505       9.37138661       0.00000000 NULL
P        1.12229039       1.27816135       5.72139022       0.00000000 NULL
P        1.12229039      -2.10732640       7.15754621       0.00000000 NULL
P        6.65514038       3.35140156       3.78942137       0.00000000 NULL
P        6.65514038       8.02914939       6.32805195       0.00000000 NULL
P        6.65514038       7.88879405       1.00768820       0.00000000 NULL
P        6.26858215       5.84043377      10.06463436       0.00000000 NULL
P        6.26858215      12.21912715       1.03488033       0.00000000 NULL
P        6.26858215       1.20978408       0.02564683       0.00000000 NULL
P        1.44752125      -2.78080671       9.59507356       0.00000000 NULL
P        1.44752125       3.27686581       8.73587399       0.00000000 NULL
P        1.44752125      -0.49605910       3.91937549       0.00000000 NULL
P        5.38254818       4.30843606      11.06755210       0.00000000 NULL
P        5.38254818       1.00744825       1.86017039       0.00000000 NULL
P        5.38254818      -5.31588431       9.32260055       0.00000000 NULL
P        0.42710680       3.63248863       0.19792997       0.00000000 NULL
P        0.42710680       4.77828307       7.88036910       0.00000000 NULL
P        0.42710680      10.85857330       3.04686245       0.00000000 NULL
P        4.59179208       9.37647227       4.56334990       0.00000000 NULL
P        4.59179208       5.68685581       0.72322339       0.00000000 NULL
P        4.59179208       4.20601692       5.83858823       0.00000000 NULL
P        6.52271610       5.62824938       1.41731888       0.00000000 NULL
P        6.52271610       4.83642447       5.54229514       0.00000000 NULL
P        6.52271610       8.80467115       4.16554750       0.00000000 NULL
P        0.77807740       2.50309305      10.47783732       0.00000000 NULL
P        0.77807740       1.39941177       3.71850069       0.00000000 NULL
P        0.77807740      -3.90250482       8.05398503       0.00000000 NULL
45
Lattice="7.231429695195979 0.0 0.0 0.0 12.935269990508234 -5.344500546403629e-16 0.0 -6.467634995254115 11.202272416590626" Properties=species:S:1:pos:R:3:initial_magmoms:R:1:castep_labels:S:1 n_minim_iter=2 pbc="T T T"
P        3.93224293      -0.27033796       6.23409070       0.00000000 NULL
P        3.93224293      -0.93358510       8.31934660       0.00000000 NULL
P        3.93224293       1.20392306       7.85110753       0.00000000 NULL
P        3.71213562       8.18306235       3.29573618       0.00000000 NULL
P        3.71213562       5.23029508       2.46766445       0.00000000 NULL
P        3.71213562       5.98954756       5.43887178       0.00000000 NULL
P        1.28946607       9.13722098       3.57218210       0.00000000 NULL
P        1.28946607       4.99262495       1.50311587       0.00000000 NULL
P        1.28946607       5.27305905       6.12697443       0.00000000 NULL
P        4.13664863      -0.51182879       2.32126903       0.00000000 NULL
P        4.13664863      -4.20144265      10.48489464       0.00000000 NULL
P        4.13664863       4.71327144       9.59838116       0.00000000 NULL
P        5.06705090       2.79763642       2.74876012       0.00000000 NULL
P        5.06705090       7.44931288       7.40506814       0.00000000 NULL
P        5.06705090       9.15595568       1.04844415       0.00000000 NULL
P        3.46878505       3.00336773       8.69802861       0.00000000 NULL
P        3.46878505      -0.43660512       4.25226536       0.00000000 NULL
P        3.46878505      -2.56676261       9.45425086       0.00000000 NULL
P        1.12923996       0.83486412       9.43630982       0.00000000 NULL
P        1.12923996       1.28701697       5.76110397       0.00000000 NULL
P        1.12923996      -2.12188109       7.20713104       0.00000000 NULL
P        6.69675542       3.37471260       3.81573733       0.00000000 NULL
P        6.69675542       8.08480416       6.37181690       0.00000000 NULL
P        6.69675542       7.94338822       1.01471817       0.00000000 NULL
P        6.30794494       5.88076924      10.13402258       0.00000000 NULL
P        6.30794494      12.30357137       1.04236557       0.00000000 NULL
P        6.30794494       1.21856437       0.02588426       0.00000000 NULL
P        1.45650518      -2.79988823       9.66152679       0.00000000 NULL
P        1.45650518       3.29943675       8.79628335       0.00000000 NULL
P        1.45650518      -0.49954853       3.94673469       0.00000000 NULL
P        5.41596823       4.33800586      11.14424882       0.00000000 NULL
P        5.41596823       1.01456466       1.87332473       0.00000000 NULL
P        5.41596823      -5.35257052       9.38697128       0.00000000 NULL
P        0.42960304       3.65761890       0.19946272       0.00000000 NULL
P        0.42960304       4.81156533       7.93495017       0.00000000 NULL
P        0.42960304      10.93372076       3.06785952       0.00000000 NULL
P        4.62028577       9.44166896       4.59511576       0.00000000 NULL
P        4.62028577       5.72628750       0.72798937       0.00000000 NULL
P        4.62028577       4.23494853       5.87916729       0.00000000 NULL
P        6.56331855       5.66740823       1.42719016       0.00000000 NULL
P        6.56331855       4.86991381       5.58055783       0.00000000 NULL
P        6.56331855       8.86558294       4.19452442       0.00000000 NULL
P        0.78287010       2.52038197      10.55076430       0.00000000 NULL
P        0.78287010       1.40940393       3.74417545       0.00000000 NULL
P        0.78287010      -3.92978590       8.10960508       0.00000000 NULL
45
Lattice="7.523683334671755 0.0 0.0 0.0 13.504605769318445 -3.4055106360785637e-16 0.0 -6.752302884659222 11.695331664323668" Properties=species:S:1:pos:R:3:initial_magmoms:R:1:castep_labels:S:1 n_minim_iter=3 pbc="T T T"
P        4.09203016      -0.28200277       6.50978573       0.00000000 NULL
P        4.09203016      -0.97366168       8.68466036       0.00000000 NULL
P        4.09203016       1.25566445       8.19621723       0.00000000 NULL
P        3.86163914       8.54270181       3.43992185       0.00000000 NULL
P        3.86163914       5.46001169       2.57717395       0.00000000 NULL
P        3.86163914       6.25419515       5.67823586       0.00000000 NULL
P        1.34353200       9.53873754       3.72928648       0.00000000 NULL
P        1.34353200       5.21259094       1.56989939       0.00000000 NULL
P        1.34353200       5.50558017       6.39614579       0.00000000 NULL
P        4.30331654      -0.53545528       2.42235635       0.00000000 NULL
P        4.30331654      -4.38675311      10.94787136       0.00000000 NULL
P        4.30331654       4.92220839      10.02043561       0.00000000 NULL
P        5.26986284       2.92247724       2.87026709       0.00000000 NULL
P        5.26986284       7.77678848       7.72925859       0.00000000 NULL
P        5.26986284       9.55764293       1.09580598       0.00000000 NULL
P        3.60971554       3.13595387       9.08085759       0.00000000 NULL
P        3.60971554      -0.45602646       4.43908715       0.00000000 NULL
P        3.60971554      -2.67992741       9.87071858       0.00000000 NULL
P        1.17459420       0.87139055       9.85148438       0.00000000 NULL
P        1.17459420       1.34363758       6.01494312       0.00000000 NULL
P        1.17459420      -2.21502813       7.52423582       0.00000000 NULL
P        6.96845756       3.52384239       3.98404008       0.00000000 NULL
P        6.96845756       8.44066161       6.65157460       0.00000000 NULL
P        6.96845756       8.29240466       1.05971698       0.00000000 NULL
P        6.56507628       6.13864494      10.57750510       0.00000000 NULL
P        6.56507628      12.84336854       1.09035665       0.00000000 NULL
P        6.56507628       1.27489517       0.02746992       0.00000000 NULL
P        1.51514285      -2.92172286      10.08637303       0.00000000 NULL
P        1.51514285       3.44361382       9.18243136       0.00000000 NULL
P        1.51514285      -0.52189097       4.12185893       0.00000000 NULL
P        5.63402327       4.52686919      11.63463169       0.00000000 NULL
P        5.63402327       1.06014913       1.95763210       0.00000000 NULL
P        5.63402327      -5.58701832       9.79839953       0.00000000 NULL
P        0.44586831       3.81833160       0.20939599       0.00000000 NULL
P        0.44586831       5.02447933       8.28386150       0.00000000 NULL
P        0.44586831      11.41409772       3.20207417       0.00000000 NULL
P        4.80620131       9.85865127       4.79824896       0.00000000 NULL
P        4.80620131       5.97838274       0.75836474       0.00000000 NULL
P        4.80620131       4.41987464       6.13871796       0.00000000 NULL
P        6.82834031       5.91798151       1.49033610       0.00000000 NULL
P        6.82834031       5.08398105       5.82504128       0.00000000 NULL
P        6.82834031       9.25494609       4.37995428       0.00000000 NULL
P        0.81416663       2.63080515      11.01720506       0.00000000 NULL
P        0.81416663       1.47347400       3.90838504       0.00000000 NULL
P        0.81416663      -4.10427916       8.46507322       0.00000000 NULL
45
Lattice="7.622445752845706 0.0 0.0 0.0 13.614122584276505 -1.554902597187325e-16 0.0 -6.807061292138251 11.790176008218905" Properties=species:S:1:pos:R:3:initial_magmoms:R:1:castep_labels:S:1 n_minim_iter=4 pbc="T T T"
P        4.14623289      -0.28407809       6.56435708       0.00000000 NULL
P        4.14623289      -0.98012226       8.75401631       0.00000000 NULL
P        4.14623289       1.26420035       8.26197862       0.00000000 NULL
P        3.91223492       8.61236119       3.46750992       0.00000000 NULL
P        3.91223492       5.50383238       2.59789746       0.00000000 NULL
P        3.91223492       6.30499030       5.72476862       0.00000000 NULL
P        1.36245704       9.61623075       3.75952106       0.00000000 NULL
P        1.36245704       5.25478667       1.58251535       0.00000000 NULL
P        1.36245704       5.55016646       6.44813958       0.00000000 NULL
P        4.35952762      -0.54030502       2.44105423       0.00000000 NULL
P        4.35952762      -4.42289381      11.03756676       0.00000000 NULL
P        4.35952762       4.96319882      10.10173102       0.00000000 NULL
P        5.33779597       2.94768826       2.89402430       0.00000000 NULL
P        5.33779597       7.83951573       7.79039093       0.00000000 NULL
P        5.33779597       9.63397988       1.10576077       0.00000000 NULL
P        3.65734428       3.16189490       9.15471497       0.00000000 NULL
P        3.65734428      -0.45979302       4.47453721       0.00000000 NULL
P        3.65734428      -2.70210189       9.95109983       0.00000000 NULL
P        1.18981092       0.87906668       9.93167872       0.00000000 NULL
P        1.18981092       1.35449144       6.06304257       0.00000000 NULL
P        1.18981092      -2.23355812       7.58563072       0.00000000 NULL
P        7.06044707       3.55292543       4.01660141       0.00000000 NULL
P        7.06044707       8.50907743       6.70495163       0.00000000 NULL
P        7.06044707       8.35918101       1.06862297       0.00000000 NULL
P        6.65289297       6.18809327      10.66162796       0.00000000 NULL
P        6.65289297      12.94625532       1.10031606       0.00000000 NULL
P        6.65289297       1.28683529       0.02823199       0.00000000 NULL
P        1.53493669      -2.94405801      10.16764860       0.00000000 NULL
P        1.53493669       3.47040970       9.25598073       0.00000000 NULL
P        1.53493669      -0.52635169       4.15672268       0.00000000 NULL
P        5.70707344       4.56206476      11.72871118       0.00000000 NULL
P        5.70707344       1.06926816       1.97495644       0.00000000 NULL
P        5.70707344      -5.63133292       9.87668439       0.00000000 NULL
P        0.45129204       3.84943832       0.21207899       0.00000000 NULL
P        0.45129204       5.06600793       8.35042513       0.00000000 NULL
P        0.45129204      11.50573763       3.22767188       0.00000000 NULL
P        4.86861781       9.93918800       4.83714224       0.00000000 NULL
P        4.86861781       6.02655535       0.76401559       0.00000000 NULL
P        4.86861781       4.45544052       6.18901818       0.00000000 NULL
P        6.91774965       5.96735254       1.50265600       0.00000000 NULL
P        6.91774965       5.12472329       5.87096911       0.00000000 NULL
P        6.91774965       9.32910805       4.41655089       0.00000000 NULL
P        0.82483026       2.65120479      11.10746168       0.00000000 NULL
P        0.82483026       1.48668030       3.94043447       0.00000000 NULL
P        0.82483026      -4.13788509       8.53245587       0.00000000 NULL
45
Lattice="7.670984197874963 0.0 0.0 0.0 13.617335264839795 -5.099280256899389e-17 0.0 -6.808667632419897 11.792958271200959" Properties=species:S:1:pos:R:3:initial_magmoms:R:1:castep_labels:S:1 n_minim_iter=5 pbc="T T T"
P        4.17314753      -0.28390843       6.56809389       0.00000000 NULL
P        4.17314753      -0.97857725       8.75478324       0.00000000 NULL
P        4.17314753       1.26248569       8.26303941       0.00000000 NULL
P        3.93716080       8.61510670       3.46813849       0.00000000 NULL
P        3.93716080       5.50461032       2.59798777       0.00000000 NULL
P        3.93716080       6.30628588       5.72683201       0.00000000 NULL
P        1.37238491       9.61885102       3.76047440       0.00000000 NULL
P        1.37238491       5.25590848       1.58255173       0.00000000 NULL
P        1.37238491       5.55124339       6.44993214       0.00000000 NULL
P        4.38700015      -0.54086537       2.44053905       0.00000000 NULL
P        4.38700015      -4.42466613      11.04109189       0.00000000 NULL
P        4.38700015       4.96553150      10.10428560       0.00000000 NULL
P        5.37058780       2.95012908       2.89533608       0.00000000 NULL
P        5.37058780       7.84103770       7.79040350       0.00000000 NULL
P        5.37058780       9.63483612       1.10721868       0.00000000 NULL
P        3.68067052       3.16328592       9.15720451       0.00000000 NULL
P        3.68067052      -0.45993886       4.47487005       0.00000000 NULL
P        3.68067052      -2.70334706       9.95384198       0.00000000 NULL
P        1.19709863       0.88021090       9.93449661       0.00000000 NULL
P        1.19709863       1.35475335       6.06342496       0.00000000 NULL
P        1.19709863      -2.23496426       7.58799497       0.00000000 NULL
P        7.10584431       3.55430798       4.01779021       0.00000000 NULL
P        7.10584431       8.51102204       6.70594216       0.00000000 NULL
P        7.10584431       8.36067288       1.06922589       0.00000000 NULL
P        6.69709331       6.18927059      10.66234992       0.00000000 NULL
P        6.69709331      12.94789823       1.10171775       0.00000000 NULL
P        6.69709331       1.28883407       0.02889060       0.00000000 NULL
P        1.54471851      -2.94313435      10.16939753       0.00000000 NULL
P        1.54471851       3.46985615       9.25708862       0.00000000 NULL
P        1.54471851      -0.52672180       4.15943039       0.00000000 NULL
P        5.74230764       4.56151514      11.73105788       0.00000000 NULL
P        5.74230764       1.06996894       1.97704134       0.00000000 NULL
P        5.74230764      -5.63148408       9.87781732       0.00000000 NULL
P        0.45383413       3.85063682       0.21325870       0.00000000 NULL
P        0.45383413       5.06803668       8.35157962       0.00000000 NULL
P        0.45383413      11.50732940       3.22811995       0.00000000 NULL
P        4.89897515       9.94194815       4.83798505       0.00000000 NULL
P        4.89897515       6.02751152       0.76398608       0.00000000 NULL
P        4.89897515       4.45654323       6.19098714       0.00000000 NULL
P        6.96152633       5.97041778       1.50320108       0.00000000 NULL
P        6.96152633       5.12526906       5.87082426       0.00000000 NULL
P        6.96152633       9.33031605       4.41893293       0.00000000 NULL
P        0.83012134       2.65061825      11.11088323       0.00000000 NULL
P        0.83012134       1.48833038       3.94201391       0.00000000 NULL
P        0.83012134      -4.13894863       8.53301940       0.00000000 NULL
45
Lattice="7.700199828870173 0.0 0.0 0.0 13.588535501830641 -9.775201273584126e-16 0.0 -6.794267750915319 11.76801694481206" Properties=species:S:1:pos:R:3:initial_magmoms:R:1:castep_labels:S:1 n_minim_iter=6 pbc="T T T"
P        4.18975872      -0.28298697       6.55711919       0.00000000 NULL
P        4.18975872      -0.97414247       8.73453125       0.00000000 NULL
P        4.18975872       1.25712944       8.24438344       0.00000000 NULL
P        3.95223595       8.59791314       3.46058546       0.00000000 NULL
P        3.95223595       5.49226610       2.59171302       0.00000000 NULL
P        3.95223595       6.29262401       5.71571847       0.00000000 NULL
P        1.37912033       9.59898379       3.75268073       0.00000000 NULL
P        1.37912033       5.24469270       1.57871277       0.00000000 NULL
P        1.37912033       5.53912676       6.43662344       0.00000000 NULL
P        4.40330411      -0.54025725       2.43391242       0.00000000 NULL
P        4.40330411      -4.41630914      11.01893723       0.00000000 NULL
P        4.40330411       4.95656639      10.08318423       0.00000000 NULL
P        5.38956250       2.94627518       2.89013914       0.00000000 NULL
P        5.38956250       7.82406407       7.77139822       0.00000000 NULL
P        5.38956250       9.61246400       1.10647958       0.00000000 NULL
P        3.69452463       3.15747800       9.13831752       0.00000000 NULL
P        3.69452463      -0.45899163       4.46440202       0.00000000 NULL
P        3.69452463      -2.69848637       9.93331434       0.00000000 NULL
P        1.20122640       0.87964825       9.91410127       0.00000000 NULL
P        1.20122640       1.35177168       6.04916857       0.00000000 NULL
P        1.20122640      -2.23141993       7.57276404       0.00000000 NULL
P        7.13339678       3.54751802       4.00958467       0.00000000 NULL
P        7.13339678       8.49291093       6.69098388       0.00000000 NULL
P        7.13339678       8.34237431       1.06744838       0.00000000 NULL
P        6.72508385       6.17582032      10.63742674       0.00000000 NULL
P        6.72508385      12.91863938       1.10088628       0.00000000 NULL
P        6.72508385       1.28834355       0.02970392       0.00000000 NULL
P        1.55075594      -2.93470784      10.14700609       0.00000000 NULL
P        1.55075594       3.46065122       9.23604543       0.00000000 NULL
P        1.55075594      -0.52594338       4.15298235       0.00000000 NULL
P        5.76266455       4.54977616      11.70560536       0.00000000 NULL
P        5.76266455       1.06819578       1.97499252       0.00000000 NULL
P        5.76266455      -5.61797194       9.85543600       0.00000000 NULL
P        0.45517053       3.84292685       0.21430166       0.00000000 NULL
P        0.45517053       5.05839500       8.33279383       0.00000000 NULL
P        0.45517053      11.48148139       3.22092145       0.00000000 NULL
P        4.91689087       9.92138001       4.82726625       0.00000000 NULL
P        4.91689087       6.01411295       0.76221669       0.00000000 NULL
P        4.91689087       4.44731029       6.17853400       0.00000000 NULL
P        6.98767629       5.95999737       1.50021452       0.00000000 NULL
P        6.98767629       5.11349296       5.85640056       0.00000000 NULL
P        6.98767629       9.30931293       4.41140186       0.00000000 NULL
P        0.83334022       2.64339390      11.08843156       0.00000000 NULL
P        0.83334022       1.48689872       3.93455489       0.00000000 NULL
P        0.83334022      -4.13029262       8.51304743       0.00000000 NULL
45
Lattice="7.748566065466795 0.0 0.0 0.0 13.536683956313963 1.7674601198440305e-15 0.0 -6.7683419781569825 11.723112189169132" Properties=species:S:1:pos:R:3:initial_magmoms:R:1:castep_labels:S:1 n_minim_iter=7 pbc="T T T"
P        4.21820507      -0.28100301       6.54023379       0.00000000 NULL
P        4.21820507      -0.96383186       8.69635103       0.00000000 NULL
P        4.21820507       1.24483487       8.20963955       0.00000000 NULL
P        3.97736003       8.56800079       3.44664004       0.00000000 NULL
P        3.97736003       5.46921942       2.57968582       0.00000000 NULL
P        3.97736003       6.26780572       5.69678632       0.00000000 NULL
P        1.39185518       9.56351326       3.73898617       0.00000000 NULL
P        1.39185518       5.22464236       1.57137366       0.00000000 NULL
P        1.39185518       5.51687031       6.41275235       0.00000000 NULL
P        4.42966218      -0.53976879       2.42037162       0.00000000 NULL
P        4.42966218      -4.40235427      10.98037986       0.00000000 NULL
P        4.42966218       4.94212306      10.04547289       0.00000000 NULL
P        5.41923534       2.94210314       2.88197700       0.00000000 NULL
P        5.41923534       7.79315571       7.73418763       0.00000000 NULL
P        5.41923534       9.56976709       1.10694755       0.00000000 NULL
P        3.71682870       3.14794725       9.10485114       0.00000000 NULL
P        3.71682870      -0.45728322       4.44448433       0.00000000 NULL
P        3.71682870      -2.69066403       9.89688891       0.00000000 NULL
P        1.20757427       0.87986430       9.87782956       0.00000000 NULL
P        1.20757427       1.34617720       6.02221257       0.00000000 NULL
P        1.20757427      -2.22604151       7.54618225       0.00000000 NULL
P        7.17946590       3.53613311       3.99507046       0.00000000 NULL
P        7.17946590       8.46010793       6.66319586       0.00000000 NULL
P        7.17946590       8.30878489       1.06484587       0.00000000 NULL
P        6.77465917       6.15118643      10.59000113       0.00000000 NULL
P        6.77465917      12.86395877       1.10102790       0.00000000 NULL
P        6.77465917       1.28988073       0.03208315       0.00000000 NULL
P        1.56126973      -2.91709572      10.10574922       0.00000000 NULL
P        1.56126973       3.44204144       9.19651658       0.00000000 NULL
P        1.56126973      -0.52494571       4.14395857       0.00000000 NULL
P        5.79448800       4.52659211      11.65895472       0.00000000 NULL
P        5.79448800       1.06531294       1.97349107       0.00000000 NULL
P        5.79448800      -5.59190505       9.81377859       0.00000000 NULL
P        0.45687874       3.82951242       0.21770524       0.00000000 NULL
P        0.45687874       5.04212404       8.29780452       0.00000000 NULL
P        0.45687874      11.43338947       3.20760242       0.00000000 NULL
P        4.94591287       9.88484835       4.80749740       0.00000000 NULL
P        4.94591287       5.98933268       0.75883370       0.00000000 NULL
P        4.94591287       4.43084490       6.15678108       0.00000000 NULL
P        7.03055441       5.94350443       1.49493469       0.00000000 NULL
P        7.03055441       5.09124118       5.82841902       0.00000000 NULL
P        7.03055441       9.27028032       4.39975848       0.00000000 NULL
P        0.83867960       2.62885066      11.04936532       0.00000000 NULL
P        0.83867960       1.48626375       3.92177807       0.00000000 NULL
P        0.83867960      -4.11511441       8.47508098       0.00000000 NULL
45
Lattice="7.725189645621925 0.0 0.0 0.0 13.531620660928645 2.8062633996810728e-15 0.0 -6.7658103304643245 11.718727246738583" Properties=species:S:1:pos:R:3:initial_magmoms:R:1:castep_labels:S:1 n_minim_iter=8 pbc="T T T"
P        4.20849390      -0.27978048       6.54801152       0.00000000 NULL
P        4.20849390      -0.95517577       8.68701849       0.00000000 NULL
P        4.20849390       1.23495625       8.20242448       0.00000000 NULL
P        3.96592399       8.56869467       3.44391370       0.00000000 NULL
P        3.96592399       5.46397975       2.57606313       0.00000000 NULL
P        3.96592399       6.26475657       5.69875041       0.00000000 NULL
P        1.39258959       9.56095694       3.73889848       0.00000000 NULL
P        1.39258959       5.22331293       1.56924641       0.00000000 NULL
P        1.39258959       5.51316112       6.41058235       0.00000000 NULL
P        4.41405172      -0.54190030       2.41342159       0.00000000 NULL
P        4.41405172      -4.40477577      10.98131588       0.00000000 NULL
P        4.41405172       4.94667608      10.04271702       0.00000000 NULL
P        5.39726033       2.95138303       2.88538057       0.00000000 NULL
P        5.39726033       7.78893169       7.72006428       0.00000000 NULL
P        5.39726033       9.55711627       1.11328239       0.00000000 NULL
P        3.70352915       3.15009061       9.10340107       0.00000000 NULL
P        3.70352915      -0.45707905       4.43896821       0.00000000 NULL
P        3.70352915      -2.69301157       9.89508520       0.00000000 NULL
P        1.20248607       0.88400457       9.87566806       0.00000000 NULL
P        1.20248607       1.34476680       6.01532280       0.00000000 NULL
P        1.20248607      -2.22877138       7.54646363       0.00000000 NULL
P        7.15918914       3.53799579       3.99451503       0.00000000 NULL
P        7.15918914       8.45616393       6.65747550       0.00000000 NULL
P        7.15918914       8.30327128       1.06673672       0.00000000 NULL
P        6.76455522       6.14740974      10.57668852       0.00000000 NULL
P        6.76455522      12.85178641       1.10656998       0.00000000 NULL
P        6.76455522       1.29823485       0.03546874       0.00000000 NULL
P        1.55815492      -2.90688264      10.09839989       0.00000000 NULL
P        1.55815492       3.43310183       9.18696151       0.00000000 NULL
P        1.55815492      -0.52621920       4.15209309       0.00000000 NULL
P        5.77124617       4.51747576      11.65155883       0.00000000 NULL
P        5.77124617       1.06599773       1.98069906       0.00000000 NULL
P        5.77124617      -5.58347350       9.80519660       0.00000000 NULL
P        0.45391858       3.82981898       0.22318964       0.00000000 NULL
P        0.45391858       5.04418874       8.29041189       0.00000000 NULL
P        0.45391858      11.42342327       3.20512571       0.00000000 NULL
P        4.92915139       9.88312631       4.80401275       0.00000000 NULL
P        4.92915139       5.98464426       0.75768242       0.00000000 NULL
P        4.92915139       4.42966042       6.15703207       0.00000000 NULL
P        7.00808145       5.94978782       1.49475515       0.00000000 NULL
P        7.00808145       5.08541236       5.81868227       0.00000000 NULL
P        7.00808145       9.26223082       4.40528982       0.00000000 NULL
P        0.83617528       2.62231831      11.05038517       0.00000000 NULL
P        0.83617528       1.49294479       3.92254038       0.00000000 NULL
P        0.83617528      -4.11526310       8.46452894       0.00000000 NULL
45
Lattice="7.740446223572009 0.0 0.0 0.0 13.400456655922556 5.393223768477016e-16 0.0 -6.700228327961278 11.6051358863412" Properties=species:S:1:pos:R:3:initial_magmoms:R:1:castep_labels:S:1 n_minim_iter=9 pbc="T T T"
P        4.22750296      -0.27394154       6.51641698       0.00000000 NULL
P        4.22750296      -0.91987491       8.58416773       0.00000000 NULL
P        4.22750296       1.19381645       8.10968706       0.00000000 NULL
P        3.97523608       8.49971808       3.40357821       0.00000000 NULL
P        3.97523608       5.39795448       2.54237500       0.00000000 NULL
P        3.97523608       6.20301242       5.65918267       0.00000000 NULL
P        1.41426295       9.47097188       3.70768674       0.00000000 NULL
P        1.41426295       5.17569329       1.54919026       0.00000000 NULL