36
Lattice="5.22769 0.0 0.0 0.0 11.211959999999998 0.0 0.0 0.0 13.23321" Properties=species:S:1:pos:R:3:initial_magmoms:R:1:castep_labels:S:1 n_minim_iter=1 pbc="T T T"
P        0.36888933       6.66764834       3.18055835       0.00000000 NULL
P        4.85880067       6.66764834      10.05265165       0.00000000 NULL
P        0.36888933       1.06166834      10.05265165       0.00000000 NULL
P        4.85880067       1.06166834       3.18055835       0.00000000 NULL
P        0.66998807       2.72583826       2.64307830       0.00000000 NULL
P        4.55770193       2.72583826      10.59013170       0.00000000 NULL
P        0.66998807       8.33181826      10.59013170       0.00000000 NULL
P        4.55770193       8.33181826       2.64307830       0.00000000 NULL
P        2.39813901       5.99330276       1.78254912       0.00000000 NULL
P        2.82955099       5.99330276      11.45066088       0.00000000 NULL
P        2.39813901       0.38732276      11.45066088       0.00000000 NULL
P        2.82955099       0.38732276       1.78254912       0.00000000 NULL
P        0.55580016       3.48683323       4.57219183       0.00000000 NULL
P        4.67188984       3.48683323       8.66101817       0.00000000 NULL
P        0.55580016       9.09281323       8.66101817       0.00000000 NULL
P        4.67188984       9.09281323       4.57219183       0.00000000 NULL
P        0.80531623       4.72227798       2.88024124       0.00000000 NULL
P        4.42237377       4.72227798      10.35296876       0.00000000 NULL
P        0.80531623      10.32825798      10.35296876       0.00000000 NULL
P        4.42237377      10.32825798       2.88024124       0.00000000 NULL
P        3.82529106      11.17734756       9.81234052       0.00000000 NULL
P        1.40239894      11.17734756       3.42086948       0.00000000 NULL
P        3.82529106       5.57136756       3.42086948       0.00000000 NULL
P        1.40239894       5.57136756       9.81234052       0.00000000 NULL
P        2.48556533       4.06275686      10.90250163       0.00000000 NULL
P        2.74212467       4.06275686       2.33070837       0.00000000 NULL
P        2.48556533       9.66873686       2.33070837       0.00000000 NULL
P        2.74212467       9.66873686      10.90250163       0.00000000 NULL
P        4.46639405      10.66225778       5.79720861       0.00000000 NULL
P        0.76129595      10.66225778       7.43600139       0.00000000 NULL
P        4.46639405       5.05627778       7.43600139       0.00000000 NULL
P        0.76129595       5.05627778       5.79720861       0.00000000 NULL
P        3.76943738       7.99757628       8.94640690       0.00000000 NULL
P        1.45825262       7.99757628       4.28680310       0.00000000 NULL
P        3.76943738       2.39159628       4.28680310       0.00000000 NULL
P        1.45825262       2.39159628       8.94640690       0.00000000 NULL
36
Lattice="5.259977856268957 0.0 0.0 0.0 11.37259354179035 0.0 0.0 0.0 13.31592688696607" Properties=species:S:1:pos:R:3:initial_magmoms:R:1:castep_labels:S:1 n_minim_iter=2 pbc="T T T"
P        0.37125576       6.76324142       3.20042782       0.00000000 NULL
P        4.88872210       6.76324142      10.11549907       0.00000000 NULL
P        0.37125576       1.07694464      10.11549907       0.00000000 NULL
P        4.88872210       1.07694464       3.20042782       0.00000000 NULL
P        0.67426692       2.76475503       2.65922662       0.00000000 NULL
P        4.58571093       2.76475503      10.65670027       0.00000000 NULL
P        0.67426692       8.45105180      10.65670027       0.00000000 NULL
P        4.58571093       8.45105180       2.65922662       0.00000000 NULL
P        2.41292893       6.07943660       1.79348341       0.00000000 NULL
P        2.84704893       6.07943660      11.52244348       0.00000000 NULL
P        2.41292893       0.39313983      11.52244348       0.00000000 NULL
P        2.84704893       0.39313983       1.79348341       0.00000000 NULL
P        0.55916708       3.53650753       4.60096909       0.00000000 NULL
P        4.70081078       3.53650753       8.71495779       0.00000000 NULL
P        0.55916708       9.22280431       8.71495779       0.00000000 NULL
P        4.70081078       9.22280431       4.60096909       0.00000000 NULL
P        0.81025902       4.79001101       2.89812080       0.00000000 NULL
P        4.44971884       4.79001101      10.41780609       0.00000000 NULL
P        0.81025902      10.47630778      10.41780609       0.00000000 NULL
P        4.44971884      10.47630778       2.89812080       0.00000000 NULL
P        3.84879103      11.33746165       9.87347573       0.00000000 NULL
P        1.41118683      11.33746165       3.44245116       0.00000000 NULL
P        3.84879103       5.65116487       3.44245116       0.00000000 NULL
P        1.41118683       5.65116487       9.87347573       0.00000000 NULL
P        2.50064760       4.12058804      10.97073343       0.00000000 NULL
P        2.75933026       4.12058804       2.34519345       0.00000000 NULL
P        2.50064760       9.80688482       2.34519345       0.00000000 NULL
P        2.75933026       9.80688482      10.97073343       0.00000000 NULL
P        4.49394603      10.81522898       5.83374758       0.00000000 NULL
P        0.76603183      10.81522898       7.48217931       0.00000000 NULL
P        4.49394603       5.12893221       7.48217931       0.00000000 NULL
P        0.76603183       5.12893221       5.83374758       0.00000000 NULL
P        3.79250171       8.11235060       9.00212219       0.00000000 NULL
P        1.46747614       8.11235060       4.31380470       0.00000000 NULL
P        3.79250171       2.42605383       4.31380470       0.00000000 NULL
P        1.46747614       2.42605383       9.00212219       0.00000000 NULL
36
Lattice="5.443387877714482 0.0 0.0 0.0 12.325306346693026 0.0 0.0 0.0 13.79407958537647" Properties=species:S:1:pos:R:3:initial_magmoms:R:1:castep_labels:S:1 n_minim_iter=3 pbc="T T T"
P        0.38475745       7.33021163       3.31531232       0.00000000 NULL
P        5.05863043       7.33021163      10.47876727       0.00000000 NULL
P        0.38475745       1.16755846      10.47876727       0.00000000 NULL
P        5.05863043       1.16755846       3.31531232       0.00000000 NULL
P        0.69862367       2.99553457       2.75240802       0.00000000 NULL
P        4.74476421       2.99553457      11.04167156       0.00000000 NULL
P        0.69862367       9.15818774      11.04167156       0.00000000 NULL
P        4.74476421       9.15818774       2.75240802       0.00000000 NULL
P        2.49698004       6.59026734       1.85668556       0.00000000 NULL
P        2.94640783       6.59026734      11.93739403       0.00000000 NULL
P        2.49698004       0.42761417      11.93739403       0.00000000 NULL
P        2.94640783       0.42761417       1.85668556       0.00000000 NULL
P        0.57821416       3.83100715       4.76735927       0.00000000 NULL
P        4.86517372       3.83100715       9.02672031       0.00000000 NULL
P        0.57821416       9.99366032       9.02672031       0.00000000 NULL
P        4.86517372       9.99366032       4.76735927       0.00000000 NULL
P        0.83830497       5.19175101       3.00148114       0.00000000 NULL
P        4.60508291       5.19175101      10.79259845       0.00000000 NULL
P        0.83830497      11.35440418      10.79259845       0.00000000 NULL
P        4.60508291      11.35440418       3.00148114       0.00000000 NULL
P        3.98219410      12.28703539      10.22681718       0.00000000 NULL
P        1.46119377      12.28703539       3.56726240       0.00000000 NULL
P        3.98219410       6.12438221       3.56726240       0.00000000 NULL
P        1.46119377       6.12438221      10.22681718       0.00000000 NULL
P        2.58612811       4.46355814      11.36519847       0.00000000 NULL
P        2.85725977       4.46355814       2.42888112       0.00000000 NULL
P        2.58612811      10.62621132       2.42888112       0.00000000 NULL
P        2.85725977      10.62621132      11.36519847       0.00000000 NULL
P        4.65047102      11.72255493       6.04513244       0.00000000 NULL
P        0.79291686      11.72255493       7.74894714       0.00000000 NULL
P        4.65047102       5.55990176       7.74894714       0.00000000 NULL
P        0.79291686       5.55990176       6.04513244       0.00000000 NULL
P        3.92345682       8.79324913       9.32412299       0.00000000 NULL
P        1.51993106       8.79324913       4.46995660       0.00000000 NULL
P        3.92345682       2.63059595       4.46995660       0.00000000 NULL
P        1.51993106       2.63059595       9.32412299       0.00000000 NULL
36
Lattice="5.468992678972488 0.0 0.0 0.0 12.697228929897571 0.0 0.0 0.0 13.942877075014302" Properties=species:S:1:pos:R:3:initial_magmoms:R:1:castep_labels:S:1 n_minim_iter=4 pbc="T T T"
P        0.38709382       7.55184336       3.35118552       0.00000000 NULL
P        5.08189886       7.55184336      10.59169155       0.00000000 NULL
P        0.38709382       1.20322890      10.59169155       0.00000000 NULL
P        5.08189886       1.20322890       3.35118552       0.00000000 NULL
P        0.70231408       3.08540295       2.78060161       0.00000000 NULL
P        4.76667860       3.08540295      11.16227546       0.00000000 NULL
P        0.70231408       9.43401741      11.16227546       0.00000000 NULL
P        4.76667860       9.43401741       2.78060161       0.00000000 NULL
P        2.50896777       6.78907597       1.87645960       0.00000000 NULL
P        2.96002491       6.78907597      12.06641748       0.00000000 NULL
P        2.50896777       0.44046151      12.06641748       0.00000000 NULL
P        2.96002491       0.44046151       1.87645960       0.00000000 NULL
P        0.58031543       3.94567410       4.81932758       0.00000000 NULL
P        4.88867725       3.94567410       9.12354950       0.00000000 NULL
P        0.58031543      10.29428856       9.12354950       0.00000000 NULL
P        4.88867725      10.29428856       4.81932758       0.00000000 NULL
P        0.84206611       5.34849776       3.03371996       0.00000000 NULL
P        4.62692657       5.34849776      10.90915712       0.00000000 NULL
P        0.84206611      11.69711223      10.90915712       0.00000000 NULL
P        4.62692657      11.69711223       3.03371996       0.00000000 NULL
P        4.00013547      12.65762236      10.33660484       0.00000000 NULL
P        1.46885721      12.65762236       3.60627223       0.00000000 NULL
P        4.00013547       6.30900790       3.60627223       0.00000000 NULL
P        1.46885721       6.30900790      10.33660484       0.00000000 NULL
P        2.59703910       4.59790046      11.48816032       0.00000000 NULL
P        2.87195358       4.59790046       2.45471675       0.00000000 NULL
P        2.59703910      10.94651493       2.45471675       0.00000000 NULL
P        2.87195358      10.94651493      11.48816032       0.00000000 NULL
P        4.67245780      12.07665442       6.11199609       0.00000000 NULL
P        0.79653488      12.07665442       7.83088098       0.00000000 NULL
P        4.67245780       5.72803995       7.83088098       0.00000000 NULL
P        0.79653488       5.72803995       6.11199609       0.00000000 NULL
P        3.94166220       9.05974705       9.42400915       0.00000000 NULL
P        1.52733048       9.05974705       4.51886792       0.00000000 NULL
P        3.94166220       2.71113258       4.51886792       0.00000000 NULL
P        1.52733048       2.71113258       9.42400915       0.00000000 NULL
36
Lattice="5.433716451275097 0.0 0.0 0.0 12.892940084096262 0.0 0.0 0.0 13.977195166137703" Properties=species:S:1:pos:R:3:initial_magmoms:R:1:castep_labels:S:1 n_minim_iter=5 pbc="T T T"
P        0.38529974       7.66895557       3.35956568       0.00000000 NULL
P        5.04841671       7.66895557      10.61762949       0.00000000 NULL
P        0.38529974       1.22248553      10.61762949       0.00000000 NULL
P        5.04841671       1.22248553       3.35956568       0.00000000 NULL
P        0.69807902       3.13243809       2.78602532       0.00000000 NULL
P        4.73563743       3.13243809      11.19116985       0.00000000 NULL
P        0.69807902       9.57890813      11.19116985       0.00000000 NULL
P        4.73563743       9.57890813       2.78602532       0.00000000 NULL
P        2.49318594       6.89303371       1.88120034       0.00000000 NULL
P        2.94053051       6.89303371      12.09599483       0.00000000 NULL
P        2.49318594       0.44656367      12.09599483       0.00000000 NULL
P        2.94053051       0.44656367       1.88120034       0.00000000 NULL
P        0.57576458       4.00566976       4.83153803       0.00000000 NULL
P        4.85795187       4.00566976       9.14565713       0.00000000 NULL
P        0.57576458      10.45213980       9.14565713       0.00000000 NULL
P        4.85795187      10.45213980       4.83153803       0.00000000 NULL
P        0.83636222       5.43080984       3.04124512       0.00000000 NULL
P        4.59735423       5.43080984      10.93595005       0.00000000 NULL
P        0.83636222      11.87727988      10.93595005       0.00000000 NULL
P        4.59735423      11.87727988       3.04124512       0.00000000 NULL
P        3.97331688      12.85246895      10.36166450       0.00000000 NULL
P        1.46039957      12.85246895       3.61553066       0.00000000 NULL
P        3.97331688       6.40599890       3.61553066       0.00000000 NULL
P        1.46039957       6.40599890      10.36166450       0.00000000 NULL
P        2.57897528       4.66914224      11.51681264       0.00000000 NULL
P        2.85474117       4.66914224       2.46038253       0.00000000 NULL
P        2.57897528      11.11561228       2.46038253       0.00000000 NULL
P        2.85474117      11.11561228      11.51681264       0.00000000 NULL
P        4.64261092      12.26279492       6.12903841       0.00000000 NULL
P        0.79110553      12.26279492       7.84815676       0.00000000 NULL
P        4.64261092       5.81632488       7.84815676       0.00000000 NULL
P        0.79110553       5.81632488       6.12903841       0.00000000 NULL
P        3.91644277       9.20072802       9.44660352       0.00000000 NULL
P        1.51727368       9.20072802       4.53059165       0.00000000 NULL
P        3.91644277       2.75425797       4.53059165       0.00000000 NULL
P        1.51727368       2.75425797       9.44660352       0.00000000 NULL
36
Lattice="5.3686067315922354 0.0 0.0 0.0 13.028315892589598 0.0 0.0 0.0 13.95497321580625" Properties=species:S:1:pos:R:3:initial_magmoms:R:1:castep_labels:S:1 n_minim_iter=6 pbc="T T T"
P        0.38177731       7.75060842       3.35435602       0.00000000 NULL
P        4.98682942       7.75060842      10.60061719       0.00000000 NULL
P        0.38177731       1.23645048      10.60061719       0.00000000 NULL
P        4.98682942       1.23645048       3.35435602       0.00000000 NULL
P        0.68997741       3.16468026       2.77979546       0.00000000 NULL
P        4.67862932       3.16468026      11.17517776       0.00000000 NULL
P        0.68997741       9.67883820      11.17517776       0.00000000 NULL
P        4.67862932       9.67883820       2.77979546       0.00000000 NULL
P        2.46385660       6.96412542       1.87856260       0.00000000 NULL
P        2.90475013       6.96412542      12.07641061       0.00000000 NULL
P        2.46385660       0.44996747      12.07641061       0.00000000 NULL
P        2.90475013       0.44996747       1.87856260       0.00000000 NULL
P        0.56774827       4.04670333       4.82420844       0.00000000 NULL
P        4.80085846       4.04670333       9.13076478       0.00000000 NULL
P        0.56774827      10.56086127       9.13076478       0.00000000 NULL
P        4.80085846      10.56086127       4.82420844       0.00000000 NULL
P        0.82576479       5.48751212       3.03664709       0.00000000 NULL
P        4.54284194       5.48751212      10.91832613       0.00000000 NULL
P        0.82576479      12.00167007      10.91832613       0.00000000 NULL
P        4.54284194      12.00167007       3.03664709       0.00000000 NULL
P        3.92424256      12.98697747      10.34469205       0.00000000 NULL
P        1.44436417      12.98697747       3.61028116       0.00000000 NULL
P        3.92424256       6.47281953       3.61028116       0.00000000 NULL
P        1.44436417       6.47281953      10.34469205       0.00000000 NULL
P        2.54619573       4.71907705      11.49906175       0.00000000 NULL
P        2.82241100       4.71907705       2.45591146       0.00000000 NULL
P        2.54619573      11.23323500       2.45591146       0.00000000 NULL
P        2.82241100      11.23323500      11.49906175       0.00000000 NULL
P        4.58749374      12.39128848       6.12213770       0.00000000 NULL
P        0.78111299      12.39128848       7.83283552       0.00000000 NULL
P        4.58749374       5.87713054       7.83283552       0.00000000 NULL
P        0.78111299       5.87713054       6.12213770       0.00000000 NULL
P        3.86998311       9.29928663       9.43082243       0.00000000 NULL
P        1.49862363       9.29928663       4.52415079       0.00000000 NULL
P        3.86998311       2.78512869       4.52415079       0.00000000 NULL
P        1.49862363       2.78512869       9.43082243       0.00000000 NULL
36
Lattice="5.277785388225427 0.0 0.0 0.0 13.237655647375723 0.0 0.0 0.0 13.889177233894575" Properties=species:S:1:pos:R:3:initial_magmoms:R:1:castep_labels:S:1 n_minim_iter=7 pbc="T T T"
P        0.37810222       7.87791681       3.33865845       0.00000000 NULL
P        4.89968317       7.87791681      10.55051879       0.00000000 NULL
P        0.37810222       1.25908899      10.55051879       0.00000000 NULL
P        4.89968317       1.25908899       3.33865845       0.00000000 NULL
P        0.67862689       3.21410100       2.76260450       0.00000000 NULL
P        4.59915850       3.21410100      11.12657274       0.00000000 NULL
P        0.67862689       9.83292882      11.12657274       0.00000000 NULL
P        4.59915850       9.83292882       2.76260450       0.00000000 NULL
P        2.42316406       7.07286330       1.87040824       0.00000000 NULL
P        2.85462133       7.07286330      12.01876900       0.00000000 NULL
P        2.42316406       0.45403548      12.01876900       0.00000000 NULL
P        2.85462133       0.45403548       1.87040824       0.00000000 NULL
P        0.55579191       4.10943078       4.80230258       0.00000000 NULL
P        4.72199348       4.10943078       9.08687466       0.00000000 NULL
P        0.55579191      10.72825861       9.08687466       0.00000000 NULL
P        4.72199348      10.72825861       4.80230258       0.00000000 NULL
P        0.80979836       5.57485727       3.02312896       0.00000000 NULL
P        4.46798703       5.57485727      10.86604827       0.00000000 NULL
P        0.80979836      12.19368510      10.86604827       0.00000000 NULL
P        4.46798703      12.19368510       3.02312896       0.00000000 NULL
P        3.85451592      13.19441053      10.29444350       0.00000000 NULL
P        1.42326947      13.19441053       3.59473373       0.00000000 NULL
P        3.85451592       6.57558270       3.59473373       0.00000000 NULL
P        1.42326947       6.57558270      10.29444350       0.00000000 NULL
P        2.49829282       4.79707861      11.44640313       0.00000000 NULL
P        2.77949257       4.79707861       2.44277411       0.00000000 NULL
P        2.49829282      11.41590644       2.44277411       0.00000000 NULL
P        2.77949257      11.41590644      11.44640313       0.00000000 NULL
P        4.51112947      12.58948386       6.09984902       0.00000000 NULL
P        0.76665591      12.58948386       7.78932822       0.00000000 NULL
P        4.51112947       5.97065604       7.78932822       0.00000000 NULL
P        0.76665591       5.97065604       6.09984902       0.00000000 NULL
P        3.80540685       9.45362825       9.38451084       0.00000000 NULL
P        1.47237854       9.45362825       4.50466640       0.00000000 NULL
P        3.80540685       2.83480042       4.50466640       0.00000000 NULL
P        1.47237854       2.83480042       9.38451084       0.00000000 NULL
36
Lattice="5.281629823461659 0.0 0.0 0.0 13.285441514367871 0.0 0.0 0.0 13.827239436643163" Properties=species:S:1:pos:R:3:initial_magmoms:R:1:castep_labels:S:1 n_minim_iter=8 pbc="T T T"
P        0.38153769       7.90934625       3.32363061       0.00000000 NULL
P        4.90009213       7.90934625      10.50360882       0.00000000 NULL
P        0.38153769       1.26662549      10.50360882       0.00000000 NULL
P        4.90009213       1.26662549       3.32363061       0.00000000 NULL
P        0.67900756       3.22428716       2.74629592       0.00000000 NULL
P        4.60262226       3.22428716      11.08094351       0.00000000 NULL
P        0.67900756       9.86700792      11.08094351       0.00000000 NULL
P        4.60262226       9.86700792       2.74629592       0.00000000 NULL
P        2.42540827       7.09514475       1.86247138       0.00000000 NULL
P        2.85622156       7.09514475      11.96476806       0.00000000 NULL
P        2.42540827       0.45242399      11.96476806       0.00000000 NULL
P        2.85622156       0.45242399       1.86247138       0.00000000 NULL
P        0.55417232       4.12214811       4.78187502       0.00000000 NULL
P        4.72745750       4.12214811       9.04536442       0.00000000 NULL
P        0.55417232      10.76486886       9.04536442       0.00000000 NULL
P        4.72745750      10.76486886       4.78187502       0.00000000 NULL
P        0.80739626       5.59405627       3.01074053       0.00000000 NULL
P        4.47423357       5.59405627      10.81649891       0.00000000 NULL
P        0.80739626      12.23677702      10.81649891       0.00000000 NULL
P        4.47423357      12.23677702       3.01074053       0.00000000 NULL
P        3.85409773      13.24050130      10.24648277       0.00000000 NULL
P        1.42753209      13.24050130       3.58075666       0.00000000 NULL
P        3.85409773       6.59778054       3.58075666       0.00000000 NULL
P        1.42753209       6.59778054      10.24648277       0.00000000 NULL
P        2.49445614       4.81651468      11.39728592       0.00000000 NULL
P        2.78717368       4.81651468       2.42995352       0.00000000 NULL
P        2.49445614      11.45923543       2.42995352       0.00000000 NULL
P        2.78717368      11.45923543      11.39728592       0.00000000 NULL
P        4.51565836      12.63361727       6.07909544       0.00000000 NULL
P        0.76597146      12.63361727       7.74814400       0.00000000 NULL
P        4.51565836       5.99089651       7.74814400       0.00000000 NULL
P        0.76597146       5.99089651       6.07909544       0.00000000 NULL
P        3.80878468       9.49320444       9.34073509       0.00000000 NULL
P        1.47284514       9.49320444       4.48650435       0.00000000 NULL
P        3.80878468       2.85048368       4.48650435       0.00000000 NULL
P        1.47284514       2.85048368       9.34073509       0.00000000 NULL
36
Lattice="5.262703110543524 0.0 0.0 0.0 13.250417966287445 0.0 0.0 0.0 13.789209630702329" Properties=species:S:1:pos:R:3:initial_magmoms:R:1:castep_labels:S:1 n_minim_iter=9 pbc="T T T"
P        0.38248007       7.89073980       3.31442324       0.00000000 NULL
P        4.88022304       7.89073980      10.47478640       0.00000000 NULL
P        0.38248007       1.26553081      10.47478640       0.00000000 NULL
P        4.88022304       1.26553081       3.31442324       0.00000000 NULL
P        0.67646485       3.21459399       2.73563454       0.00000000 NULL
P        4.58623826       3.21459399      11.05357509       0.00000000 NULL
P        0.67646485       9.83980297      11.05357509       0.00000000 NULL
P        4.58623826       9.83980297       2.73563454       0.00000000 NULL
P        2.41705719       7.07393563       1.85757540       0.00000000 NULL
P        2.84564592       7.07393563      11.93163423       0.00000000 NULL
P        2.41705719       0.44872665      11.93163423       0.00000000 NULL
P        2.84564592       0.44872665       1.85757540       0.00000000 NULL
P        0.55063096       4.10964649       4.76963289       0.00000000 NULL
P        4.71207215       4.10964649       9.01957674       0.00000000 NULL
P        0.55063096      10.73485548       9.01957674       0.00000000 NULL
P        4.71207215      10.73485548       4.76963289       0.00000000 NULL
P        0.80234157       5.57847407       3.00317556       0.00000000 NULL
P        4.46036154       5.57847407      10.78603407       0.00000000 NULL
P        0.80234157      12.20368305      10.78603407       0.00000000 NULL
P        4.46036154      12.20368305       3.00317556       0.00000000 NULL
P        3.83795728      13.20445847      10.21669739       0.00000000 NULL
P        1.42474583      13.20445847       3.57251224       0.00000000 NULL
P        3.83795728       6.57924948       3.57251224       0.00000000 NULL
P        1.42474583       6.57924948      10.21669739       0.00000000 NULL
P        2.48138501       4.80566437      11.36730072       0.00000000 NULL
P        2.78131810       4.80566437       2.42190891       0.00000000 NULL
P        2.48138501      11.43087336       2.42190891       0.00000000 NULL
P        2.78131810      11.43087336      11.36730072       0.00000000 NULL
P        4.50033444      12.59925789       6.06722903       0.00000000 NULL
P        0.76236867      12.59925789       7.72198060       0.00000000 NULL
P        4.50033444       5.97404890       7.72198060       0.00000000 NULL
P        0.76236867       5.97404890       6.06722903       0.00000000 NULL
P        3.79564240       9.47244592       9.31360861       0.00000000 NULL
P        1.46706071       9.47244592       4.47560102       0.00000000 NULL
P        3.79564240       2.84723693       4.47560102       0.00000000 NULL
P        1.46706071       2.84723693       9.31360861       0.00000000 NULL
36
Lattice="5.273384282268484 0.0 0.0 0.0 13.281673718331769 0.0 0.0 0.0 13.806176197272105" Properties=species:S:1:pos:R:3:initial_magmoms:R:1:castep_labels:S:1 n_minim_iter=10 pbc="T T T"
P        0.38409686       7.91011558       3.31848394       0.00000000 NULL
P        4.88928742       7.91011558      10.48769226       0.00000000 NULL
P        0.38409686       1.26927872      10.48769226       0.00000000 NULL
P        4.88928742       1.26927872       3.31848394       0.00000000 NULL
P        0.67781600       3.22171057       2.73776926       0.00000000 NULL
P        4.59556828       3.22171057      11.06840694       0.00000000 NULL
P        0.67781600       9.86254743      11.06840694       0.00000000 NULL
P        4.59556828       9.86254743       2.73776926       0.00000000 NULL
P        2.42205633       7.08980673       1.85981938       0.00000000 NULL
P        2.85132795       7.08980673      11.94635682       0.00000000 NULL
P        2.42205633       0.44896987      11.94635682       0.00000000 NULL
P        2.85132795       0.44896987       1.85981938       0.00000000 NULL
P        0.55122566       4.11871295       4.77589894       0.00000000 NULL
P        4.72215862       4.11871295       9.03027725       0.00000000 NULL
P        0.55122566      10.75954981       9.03027725       0.00000000 NULL
P        4.72215862      10.75954981       4.77589894       0.00000000 NULL
P        0.80314273       5.59135633       3.00711014       0.00000000 NULL
P        4.47024155       5.59135633      10.79906606       0.00000000 NULL
P        0.80314273      12.23219319      10.79906606       0.00000000 NULL
P        4.47024155      12.23219319       3.00711014       0.00000000 NULL
P        3.84493791      13.23518775      10.22858175       0.00000000 NULL
P        1.42844637      13.23518775       3.57759445       0.00000000 NULL
P        3.84493791       6.59435089       3.57759445       0.00000000 NULL
P        1.42844637       6.59435089      10.22858175       0.00000000 NULL
P        2.48483184       4.81756369      11.38181836       0.00000000 NULL
P        2.78855244       4.81756369       2.42435784       0.00000000 NULL
P        2.48483184      11.45840055       2.42435784       0.00000000 NULL
P        2.78855244      11.45840055      11.38181836       0.00000000 NULL
P        4.50972265      12.62863113       6.07644813       0.00000000 NULL
P        0.76366163      12.62863113       7.72972807       0.00000000 NULL
P        4.50972265       5.98779427       7.72972807       0.00000000 NULL
P        0.76366163       5.98779427       6.07644813       0.00000000 NULL
P        3.80339892       9.49641391       9.32447563       0.00000000 NULL
P        1.46998536       9.49641391       4.48170056       0.00000000 NULL
P        3.80339892       2.85557705       4.48170056       0.00000000 NULL
P        1.46998536       2.85557705       9.32447563       0.00000000 NULL
36
Lattice="5.270954325934957 0.0 0.0 0.0 13.276156997611755 0.0 0.0 0.0 13.801330019740481" Properties=species:S:1:pos:R:3:initial_magmoms:R:1:castep_labels:S:1 n_minim_iter=11 pbc="T T T"
P        0.38464761       7.90752502       3.31731319       0.00000000 NULL
P        4.88630671       7.90752502      10.48401683       0.00000000 NULL
P        0.38464761       1.26944652      10.48401683       0.00000000 NULL
P        4.88630671       1.26944652       3.31731319       0.00000000 NULL
P        0.67747419       3.21998030       2.73578730       0.00000000 NULL
P        4.59348014       3.21998030      11.06554272       0.00000000 NULL
P        0.67747419       9.85805880      11.06554272       0.00000000 NULL