10
Lattice="6.1783299999999945 3.090936662745614e-17 -3.2492908168635886e-16 2.5293726537860275 5.662977196729598 -1.4795279653681036e-15 2.5119582138825733 0.6592934211714686 5.992223857342769" Properties=species:S:1:pos:R:3:initial_magmoms:R:1:castep_labels:S:1 n_minim_iter=1 pbc="T T T"
P        8.18868423       3.82555380       2.12793217       0.00000000 NULL
P        9.99062913       5.59128551       5.00019562       0.00000000 NULL
P        8.47011627       3.95374565       4.17760769       0.00000000 NULL
P        2.95023088       1.14196108       5.96962538       0.00000000 NULL
P        4.61894794       5.51534841       0.99629890       0.00000000 NULL
P        4.08987308       4.48446449       2.67810581       0.00000000 NULL
P        6.75306151       3.34044275       5.10518777       0.00000000 NULL
P        6.61616874       0.47688546       3.14292681       0.00000000 NULL
P        6.53677038       2.23657098       0.97145693       0.00000000 NULL
P        4.81053190       0.16753740       0.84178581       0.00000000 NULL
10
Lattice="6.189068008382492 0.0003546289783140153 -0.002038155875166771 2.534093780785764 5.670355887857916 0.0008731816824595131 2.514385107015399 0.6620866125793865 6.004857262708045" Properties=species:S:1:pos:R:3:initial_magmoms:R:1:castep_labels:S:1 n_minim_iter=2 pbc="T T T"
P        8.20242869       3.83153245       2.13088836       0.00000000 NULL
P       10.00671939       5.60031883       5.00956530       0.00000000 NULL
P        8.48369006       3.96055040       4.18542802       0.00000000 NULL
P        2.95364322       1.14535598       5.98181698       0.00000000 NULL
P        4.62723195       5.52298919       0.99851007       0.00000000 NULL
P        4.09650572       4.49094216       2.68407472       0.00000000 NULL
P        6.76319715       3.34663489       5.11536080       0.00000000 NULL
P        6.62645322       0.47906890       3.14795421       0.00000000 NULL
P        6.54785304       2.24032264       0.97223069       0.00000000 NULL
P        4.81836370       0.16830591       0.84241033       0.00000000 NULL
10
Lattice="6.45604697539181 0.008260610005636026 -0.05555541790628568 2.6506399491783443 5.8507932686435105 0.023794128436827044 2.5718706987642443 0.7333680656509111 6.317837742927479" Properties=species:S:1:pos:R:3:initial_magmoms:R:1:castep_labels:S:1 n_minim_iter=3 pbc="T T T"
P        8.54273615       3.97809655       2.20196901       0.00000000 NULL
P       10.40368673       5.82280697       5.23997342       0.00000000 NULL
P        8.81853413       4.12842330       4.37762671       0.00000000 NULL
P        3.03578363       1.23125214       6.28339014       0.00000000 NULL
P        4.83215248       5.71010532       1.05342861       0.00000000 NULL
P        4.25955590       4.65031559       2.83224173       0.00000000 NULL
P        7.01231739       3.50022646       5.36646202       0.00000000 NULL
P        6.88043912       0.53358263       3.27022225       0.00000000 NULL
P        6.82251675       2.33205188       0.98953427       0.00000000 NULL
P        5.01251740       0.18700077       0.85610627       0.00000000 NULL
10
Lattice="6.531233439138002 -0.007241705182289156 -0.10543665346738068 2.6672116324533937 5.857839830853231 0.03789385116981414 2.5524067256518923 0.7651523123539079 6.345447294866368" Properties=species:S:1:pos:R:3:initial_magmoms:R:1:castep_labels:S:1 n_minim_iter=4 pbc="T T T"
P        8.61735229       3.98118698       2.17285973       0.00000000 NULL
P       10.47126192       5.83859490       5.22958082       0.00000000 NULL
P        8.87560518       4.14223024       4.36606773       0.00000000 NULL
P        3.02312608       1.26355403       6.30594743       0.00000000 NULL
P        4.87001000       5.71760266       1.05497268       0.00000000 NULL
P        4.27698280       4.66392517       2.84461648       0.00000000 NULL
P        7.04479422       3.52330073       5.36982359       0.00000000 NULL
P        6.93124115       0.53941128       3.24521668       0.00000000 NULL
P        6.88679186       2.32813207       0.95938483       0.00000000 NULL
P        5.06256346       0.17951115       0.82803923       0.00000000 NULL
10
Lattice="6.581733390875324 -0.02948532863854498 -0.16060282000519685 2.667497804369835 5.822160046425786 0.05631288723155054 2.5170607138191614 0.7964025931999886 6.32870349726756" Properties=species:S:1:pos:R:3:initial_magmoms:R:1:castep_labels:S:1 n_minim_iter=5 pbc="T T T"
P        8.65417513       3.95151149       2.12553954       0.00000000 NULL
P       10.48857952       5.80915185       5.18194764       0.00000000 NULL
P        8.88941810       4.12387035       4.32242886       0.00000000 NULL
P        2.99201833       1.29222654       6.28477801       0.00000000 NULL
P        4.88318823       5.68184061       1.05130672       0.00000000 NULL
P        4.26988949       4.64509880       2.83879843       0.00000000 NULL
P        7.04319964       3.52192600       5.33428135       0.00000000 NULL
P        6.95219535       0.53771383       3.19276889       0.00000000 NULL
P        6.92075387       2.30166653       0.91960397       0.00000000 NULL
P        5.09391285       0.16586022       0.78955838       0.00000000 NULL
10
Lattice="6.647202566025786 -0.06739867642291512 -0.23963853748932953 2.659549623767138 5.731114542463861 0.09785057838250033 2.462978154230385 0.8503860159128873 6.28281233509833" Properties=species:S:1:pos:R:3:initial_magmoms:R:1:castep_labels:S:1 n_minim_iter=6 pbc="T T T"
P        8.69560843       3.88168511       2.05804363       0.00000000 NULL
P       10.49747688       5.73190965       5.11074483       0.00000000 NULL
P        8.89311845       4.07471568       4.25607757       0.00000000 NULL
P        2.94276656       1.34023818       6.23299337       0.00000000 NULL
P        4.89375687       5.59146704       1.05552213       0.00000000 NULL
P        4.24925799       4.59203555       2.83201003       0.00000000 NULL
P        7.03185052       3.50560392       5.27203624       0.00000000 NULL
P        6.97325622       0.53430048       3.10630958       0.00000000 NULL
P        6.95745066       2.24470051       0.86559099       0.00000000 NULL
P        5.13533260       0.14223186       0.73075912       0.00000000 NULL
10
Lattice="6.762534959014616 -0.10565759118292925 -0.30976234919439805 2.671698414631992 5.607151723637414 0.1713546133661663 2.437775344349019 0.9303773876764438 6.271984715035175" Properties=species:S:1:pos:R:3:initial_magmoms:R:1:castep_labels:S:1 n_minim_iter=7 pbc="T T T"
P        8.80985994       3.79862981       2.02680603       0.00000000 NULL
P       10.59689747       5.64218272       5.11098610       0.00000000 NULL
P        8.96404587       4.02407819       4.24737938       0.00000000 NULL
P        2.92579224       1.41463522       6.21536256       0.00000000 NULL
P        4.94932309       5.47224377       1.09407839       0.00000000 NULL
P        4.26129782       4.52622731       2.86867032       0.00000000 NULL
P        7.08632561       3.49612346       5.26099670       0.00000000 NULL
P        7.04885233       0.54575421       3.04466564       0.00000000 NULL
P        7.04077010       2.17935148       0.83920687       0.00000000 NULL
P        5.22092190       0.12135113       0.68125478       0.00000000 NULL
10
Lattice="6.852424414870023 -0.12343764723317115 -0.3500787129241746 2.692201670290929 5.460283257400769 0.23701740104103133 2.433322944819141 0.9938425572984511 6.196779093811868" Properties=species:S:1:pos:R:3:initial_magmoms:R:1:castep_labels:S:1 n_minim_iter=8 pbc="T T T"
P        8.91828953       3.70930109       1.99383293       0.00000000 NULL
P       10.70209249       5.53480147       5.08444075       0.00000000 NULL
P        9.02757472       3.96535448       4.21622686       0.00000000 NULL
P        2.92962311       1.47444032       6.13481643       0.00000000 NULL
P        5.01089601       5.33369544       1.11853608       0.00000000 NULL
P        4.27654954       4.44209269       2.88178033       0.00000000 NULL
P        7.15340410       3.47264375       5.20894129       0.00000000 NULL
P        7.11330708       0.56638134       2.96986856       0.00000000 NULL
P        7.10068675       2.11890283       0.82565811       0.00000000 NULL
P        5.29781606       0.11397994       0.63609439       0.00000000 NULL
10
Lattice="6.942038586848452 -0.12018049782998534 -0.3583209813116394 2.7318746561609775 5.486802034617549 0.2584505179280214 2.462111461341372 1.0243487168667564 6.268134183749376" Properties=species:S:1:pos:R:3:initial_magmoms:R:1:castep_labels:S:1 n_minim_iter=9 pbc="T T T"
P        9.04204681       3.73599497       2.02092802       0.00000000 NULL
P       10.84838491       5.58135493       5.16109583       0.00000000 NULL
P        9.14010432       4.00604469       4.27770689       0.00000000 NULL
P        2.96783858       1.50985728       6.20189593       0.00000000 NULL
P        5.08563098       5.36421520       1.14177115       0.00000000 NULL
P        4.32932872       4.47510563       2.93177462       0.00000000 NULL
P        7.24929162       3.51472344       5.27763074       0.00000000 NULL
P        7.20138847       0.58950899       2.99993188       0.00000000 NULL
P        7.18592509       2.13807314       0.84187405       0.00000000 NULL
P        5.36928396       0.12247407       0.63781589       0.00000000 NULL
10
Lattice="6.9187614869888545 -0.12145907303621199 -0.36084692236995375 2.7211732203228993 5.454757096567158 0.263024555779725 2.4500612693507393 1.0260932953804678 6.216345899251573" Properties=species:S:1:pos:R:3:initial_magmoms:R:1:castep_labels:S:1 n_minim_iter=10 pbc="T T T"
P        9.01211266       3.71388983       2.00239259       0.00000000 NULL
P       10.80920137       5.55142317       5.12156440       0.00000000 NULL
P        9.10306804       3.98660317       4.24354529       0.00000000 NULL
P        2.95483699       1.51037151       6.15006158       0.00000000 NULL
P        5.06743275       5.33315611       1.13523760       0.00000000 NULL
P        4.30893408       4.45251436       2.91257082       0.00000000 NULL
P        7.22269577       3.50026157       5.23489719       0.00000000 NULL
P        7.17441354       0.58922718       2.97021618       0.00000000 NULL
P        7.15678436       2.12469590       0.83380474       0.00000000 NULL
P        5.35325594       0.12180596       0.62672352       0.00000000 NULL
10
Lattice="6.930809786431918 -0.12118803381255176 -0.36365953983045707 2.7263541556369573 5.4491177597891935 0.2696404817141142 2.4522608419986787 1.0337530270357667 6.210522266259851" Properties=species:S:1:pos:R:3:initial_magmoms:R:1:castep_labels:S:1 n_minim_iter=11 pbc="T T T"
P        9.02996155       3.71154653       2.00065608       0.00000000 NULL
P       10.82883413       5.55092493       5.12216143       0.00000000 NULL
P        9.11517265       3.98880306       4.24296112       0.00000000 NULL
P        2.95901831       1.51894667       6.14309025       0.00000000 NULL
P        5.07792386       5.32874566       1.13748434       0.00000000 NULL
P        4.31317309       4.45194409       2.91575458       0.00000000 NULL
P        7.23500927       3.50467251       5.23246543       0.00000000 NULL
P        7.18469388       0.59460045       2.96459351       0.00000000 NULL
P        7.16510299       2.12415599       0.83408335       0.00000000 NULL
P        5.36398100       0.12370119       0.62232667       0.00000000 NULL
10
Lattice="7.107986265267862 -0.11518197266733972 -0.40550166754225225 2.8043942615829405 5.366596804800572 0.35977391702458666 2.484355643021339 1.1398011269881303 6.1176804174034" Properties=species:S:1:pos:R:3:initial_magmoms:R:1:castep_labels:S:1 n_minim_iter=12 pbc="T T T"
P        9.29635834       3.67511574       1.96706653       0.00000000 NULL
P       11.12173463       5.54059787       5.11708862       0.00000000 NULL
P        9.29274597       4.01856408       4.22432368       0.00000000 NULL
P        3.02172387       1.63901732       6.03272447       0.00000000 NULL
P        5.23408167       5.26311771       1.16211399       0.00000000 NULL
P        4.37398395       4.44211512       2.95450609       0.00000000 NULL
P        7.41710569       3.56536462       5.18762607       0.00000000 NULL
P        7.33543161       0.67207223       2.87873628       0.00000000 NULL
P        7.28386374       2.11680740       0.83393860       0.00000000 NULL
P        5.52307190       0.15272574       0.55569162       0.00000000 NULL
