9
Lattice="5.747609978188637 0.14949001065058673 -0.2621557079983206 0.5751714799462144 5.386624754784038 0.3936139499262492 0.06734426161241987 2.7926940767763146 6.013286531743196" Properties=species:S:1:pos:R:3:initial_magmoms:R:1:castep_labels:S:1:forces:R:3 n_minim_iter=1 energy=-47.597498625563 stress="0.0024398433107634936 -0.0011645354190875415 -0.0008847832543256857 -0.0011645354190875415 -0.001061304188959764 -0.0006492730453328774 -0.0008847832543256857 -0.0006492730453328774 -0.001233858988670102" free_energy=-47.597498625563 pbc="T T T"
P        3.45829530       3.04725759       3.82619775       0.00000000 NULL      -0.08652800      -0.11298600       0.06784000
P        0.58143662       5.52945116       3.97172245       0.00000000 NULL      -0.12616100      -0.04502400       0.05643800
P        3.29161401       4.22373488       1.86899630       0.00000000 NULL       0.01262900       0.14749000      -0.02080600
P        4.60003312       4.67604158       4.95544247       0.00000000 NULL       0.13578100       0.16953600       0.00104000
P        3.54488356       2.13524718       1.00888480       0.00000000 NULL       0.06441100      -0.04607900      -0.05210600
P        5.27874955       2.33632067       2.70628772       0.00000000 NULL       0.05233500      -0.05129400      -0.00558300
P        1.47343956       2.52821550      -0.03348540       0.00000000 NULL       0.04708500       0.06130100       0.05703400
P        0.69665426       3.31420402       5.52120042       0.00000000 NULL      -0.11273800      -0.10484500      -0.15356400
P        1.06872357       4.26264014       1.38872479       0.00000000 NULL       0.01318600      -0.01809900       0.04970600
9
Lattice="5.717413241947471 0.1638556421957456 -0.2517035269643695 0.5863985302333543 5.400956694463215 0.4033146686429799 0.08543024305054689 2.807697637839143 6.033338939770014" Properties=species:S:1:pos:R:3:initial_magmoms:R:1:castep_labels:S:1:forces:R:3 n_minim_iter=2 energy=-47.601182402344 stress="-0.0005188314993816798 0.0006643390087397727 -2.9559705242101086e-05 0.0006643390087397727 0.0007255818006969424 0.0001823314143761358 -2.9559705242101086e-05 0.0001823314143761358 0.00044015462796225" free_energy=-47.601182402344 pbc="T T T"
P        3.45407727       3.06690297       3.84805424       0.00000000 NULL      -0.10447300      -0.05094200       0.06293600
P        0.59829038       5.54860123       3.99183606       0.00000000 NULL      -0.07225000      -0.04707000       0.08072000
P        3.28867999       4.24605179       1.88591492       0.00000000 NULL       0.04260300       0.08995400      -0.02445000
P        4.59873461       4.70727113       4.98396800       0.00000000 NULL       0.03348400       0.15403100      -0.03519100
P        3.53437075       2.14987577       1.02068631       0.00000000 NULL       0.07356900      -0.00642000      -0.01365200
P        5.26275583       2.35807046       2.72675009       0.00000000 NULL       0.10632200      -0.08371000      -0.01430100
P        1.47256310       2.53839033      -0.02653288       0.00000000 NULL      -0.02964600       0.01969400       0.04003000
P        0.71046184       3.33001815       5.54001725       0.00000000 NULL       0.00414900      -0.07727600      -0.10611600
P        1.07660646       4.27681250       1.40103569       0.00000000 NULL      -0.05375800       0.00173900       0.01002300
9
Lattice="5.7059426315462884 0.1478544249495476 -0.23707376123802557 0.5718647206504005 5.380654157052195 0.4050767721690848 0.09292787146106156 2.7983832121690413 6.030237887627345" Properties=species:S:1:pos:R:3:initial_magmoms:R:1:castep_labels:S:1:forces:R:3 n_minim_iter=3 energy=-47.605513678278 stress="-0.0007340417943710162 -0.0004461359768682713 0.0011601671365202369 -0.0004461359768682713 -0.0013047945610486558 0.0007957037783226973 0.0011601671365202369 0.0007957037783226973 -0.0007979521642461862" free_energy=-47.605513678278 pbc="T T T"
P        3.44310333       3.04330841       3.85875334       0.00000000 NULL      -0.04919200      -0.00608700       0.00500400
P        0.58718001       5.52525870       3.99616300       0.00000000 NULL       0.00828700      -0.04109900       0.06786600
P        3.27825291       4.22906978       1.89207638       0.00000000 NULL       0.04631600       0.04406400       0.01417400
P        4.59381321       4.68888412       4.99145877       0.00000000 NULL      -0.00603900       0.04407600      -0.02861400
P        3.52913263       2.13203367       1.02784630       0.00000000 NULL       0.01999800       0.03426500       0.03142000
P        5.25947881       2.33126704       2.73792456       0.00000000 NULL       0.02841100      -0.02197400      -0.00547600
P        1.46229978       2.52742466      -0.01980580       0.00000000 NULL      -0.00482100      -0.02091000       0.00983800
P        0.71272021       3.31192906       5.53151325       0.00000000 NULL      -0.01383500      -0.03127100      -0.11190200
P        1.06436030       4.25902694       1.40451801       0.00000000 NULL      -0.02912500      -0.00106400       0.01769000
9
Lattice="5.710468892446609 0.14807045286940512 -0.24548601993260252 0.5713855685448198 5.387292794439963 0.3966183463916999 0.0846095513030505 2.7929700109128293 6.034271844667297" Properties=species:S:1:pos:R:3:initial_magmoms:R:1:castep_labels:S:1:forces:R:3 n_minim_iter=4 energy=-47.60704812433 stress="0.0010164848621484004 -0.0007913648609925939 0.0007580365702019235 -0.0007913648609925939 0.001372117329761791 0.0001017213043291726 0.0007580365702019235 0.0001017213043291726 0.001248494577198749" free_energy=-47.60704812433 pbc="T T T"
P        3.43740911       3.03977696       3.85626226       0.00000000 NULL       0.01183200       0.02224600      -0.06872500
P        0.58001100       5.52509638       3.99495677       0.00000000 NULL       0.00277200      -0.02279200       0.05974700
P        3.27913395       4.23456058       1.88337030       0.00000000 NULL       0.02618500      -0.01277000       0.05214400
P        4.59133725       4.69142131       4.98402670       0.00000000 NULL      -0.00923600       0.00716000      -0.01817600
P        3.53202578       2.13316801       1.02100858       0.00000000 NULL       0.01719500       0.05921400       0.02697200
P        5.26189536       2.32795834       2.73061964       0.00000000 NULL      -0.00707700      -0.01282300       0.03760800
P        1.46293609       2.53122781      -0.02460317       0.00000000 NULL      -0.01511300      -0.04231800       0.00506500
P        0.70480153       3.30567782       5.52927183       0.00000000 NULL      -0.02839800      -0.01427300      -0.07973200
P        1.06178805       4.26251134       1.39913224       0.00000000 NULL       0.00184100       0.01635700      -0.01490500
9
Lattice="5.705269311660365 0.15531558153201025 -0.2579838690348625 0.5765567320617325 5.381945239355679 0.38824780152154065 0.07485933881156145 2.7826056267280004 6.025422490152516" Properties=species:S:1:pos:R:3:initial_magmoms:R:1:castep_labels:S:1:forces:R:3 n_minim_iter=5 energy=-47.608135110329 stress="-0.0006570054434045324 -0.000328081384308035 -0.0003943718010004119 -0.000328081384308035 9.848059361164133e-05 -0.00035718175366960387 -0.0003943718010004119 -0.00035718175366960387 -0.00012774949793090267" free_energy=-47.608135110329 pbc="T T T"
P        3.42737249       3.03516525       3.84205861       0.00000000 NULL       0.01362300       0.02900800      -0.08473400
P        0.57630988       5.51383032       3.98556827       0.00000000 NULL      -0.00499800      -0.03873500       0.02355300
P        3.27800220       4.23376880       1.86944453       0.00000000 NULL       0.02724300       0.00183800       0.07117800
P        4.58231099       4.68890332       4.96299664       0.00000000 NULL      -0.04447500       0.01554200      -0.00411400
P        3.53018492       2.13460803       1.00984249       0.00000000 NULL       0.04022400       0.03292700      -0.00629600
P        5.25498719       2.32718356       2.71391576       0.00000000 NULL       0.00686100       0.01512900       0.05801100
P        1.46425174       2.53039396      -0.03015937       0.00000000 NULL      -0.02404200      -0.05735600       0.02459900
P        0.69539511       3.29450082       5.51539711       0.00000000 NULL       0.00233800      -0.03990800      -0.05944200
P        1.06209497       4.25775411       1.39056690       0.00000000 NULL      -0.01677400       0.04155600      -0.02275500
9
Lattice="5.718770988152377 0.17010786866655278 -0.26012820000103537 0.5918271823668526 5.3770013579525475 0.3898777142855661 0.07999575837173875 2.781495790502977 6.025541161263488" Properties=species:S:1:pos:R:3:initial_magmoms:R:1:castep_labels:S:1:forces:R:3 n_minim_iter=6 energy=-47.609104717677 stress="0.0007525604772120213 0.0005748601139323928 -0.0001281395860288667 0.0005748601139323928 -0.0002822663066750638 0.0003241375862096825 -0.0001281395860288667 0.0003241375862096825 -3.8503616301271377e-05" free_energy=-47.609104717677 pbc="T T T"
P        3.44035647       3.04182945       3.83944416       0.00000000 NULL       0.05221100       0.03607600      -0.06054400
P        0.58937350       5.50785697       3.98937660       0.00000000 NULL      -0.00182600      -0.05869000       0.02787700
P        3.29758796       4.23957338       1.87143709       0.00000000 NULL      -0.03063700       0.00342400       0.03964600
P        4.60264634       4.69990404       4.96132991       0.00000000 NULL      -0.05864300       0.00415900      -0.01463900
P        3.54569111       2.14304590       1.00908185       0.00000000 NULL       0.04056200       0.02150700      -0.01292900
P        5.27359818       2.33825277       2.71387852       0.00000000 NULL      -0.00854400       0.05838600       0.05014700
P        1.47330563       2.52957556      -0.02848907       0.00000000 NULL      -0.01619400      -0.07959500       0.03357400
P        0.70289307       3.29172981       5.51089938       0.00000000 NULL       0.00785000      -0.02590000      -0.04745200
P        1.07399010       4.25695675       1.39116201       0.00000000 NULL       0.01522200       0.04063500      -0.01568000
9
Lattice="5.709336203363075 0.17820060484512187 -0.26116836105784286 0.5976501487692225 5.376442595022976 0.37320105401468406 0.08286479347195581 2.762912770375162 6.017918773697366" Properties=species:S:1:pos:R:3:initial_magmoms:R:1:castep_labels:S:1:forces:R:3 n_minim_iter=7 energy=-47.612107228338 stress="0.0001908501779659253 0.00028517907299591724 0.0007142125216662977 0.00028517907299591724 0.0006660362028100981 -0.0007477167060750433 0.0007142125216662977 -0.0007477167060750433 -0.001493690744840236" free_energy=-47.612107228338 pbc="T T T"
P        3.43776208       3.03693180       3.82044105       0.00000000 NULL      -0.01276900       0.03558600       0.02443600
P        0.59150644       5.48560244       3.98294577       0.00000000 NULL       0.00875500       0.04702700      -0.01529100
P        3.30058010       4.24312206       1.86740409       0.00000000 NULL      -0.05866800       0.01630200      -0.03147900
P        4.59482268       4.69931511       4.94355992       0.00000000 NULL      -0.02453800      -0.04492100       0.00837400
P        3.55194809       2.15026633       1.00153029       0.00000000 NULL      -0.00627500       0.00820900      -0.02203800
P        5.27163150       2.33779791       2.71497111       0.00000000 NULL       0.08089600      -0.01459200       0.03256800
P        1.47003269       2.52106349      -0.03005827       0.00000000 NULL      -0.00039700      -0.06729300       0.05277400
P        0.70415083       3.26625270       5.48412151       0.00000000 NULL      -0.01990200      -0.02480400      -0.00976800
P        1.07500899       4.26024012       1.37601346       0.00000000 NULL       0.03289600       0.04448700      -0.03957500
9
Lattice="5.698571722406751 0.17486128351290411 -0.27932435930417265 0.5928526909133914 5.359170269459386 0.37766248960114873 0.06386537284141307 2.7583043822209437 6.0535376092844135" Properties=species:S:1:pos:R:3:initial_magmoms:R:1:castep_labels:S:1:forces:R:3 n_minim_iter=8 energy=-47.614237133588 stress="-0.000182015389993999 -0.0002345576529283581 -9.665528582577285e-06 -0.0002345576529283581 -0.00036425555972247655 0.00016515690990810838 -9.665528582577285e-06 0.00016515690990810838 2.1916024111657798e-05" free_energy=-47.614237133588 pbc="T T T"
P        3.41784918       3.03103060       3.82752052       0.00000000 NULL      -0.00927100      -0.00280000       0.00462500
P        0.57382132       5.46414357       4.01459297       0.00000000 NULL       0.03404300       0.02621900      -0.00680500
P        3.28758278       4.23334980       1.87716179       0.00000000 NULL      -0.05938700       0.03205300      -0.06348700
P        4.56447674       4.69104688       4.95893496       0.00000000 NULL      -0.02121400      -0.04262800       0.03778700
P        3.54760103       2.14681905       0.99726207       0.00000000 NULL      -0.01314400       0.00707400      -0.04808200
P        5.25683899       2.33039732       2.72312436       0.00000000 NULL       0.07794200       0.01835500       0.04459700
P        1.46307303       2.50338711      -0.02684061       0.00000000 NULL      -0.01287700       0.01062100       0.07587900
P        0.68398432       3.25225553       5.50267160       0.00000000 NULL      -0.01868300      -0.04434000       0.02089400
P        1.06582529       4.25252456       1.38142141       0.00000000 NULL       0.02259000      -0.00455500      -0.06540800
9
Lattice="5.691464890650881 0.20358424132325176 -0.30645459934068964 0.6164927731358079 5.343905782931276 0.35339743153608427 0.0507050721921302 2.724257386189641 6.063745726057285" Properties=species:S:1:pos:R:3:initial_magmoms:R:1:castep_labels:S:1:forces:R:3 n_minim_iter=9 energy=-47.617795600951 stress="-0.0004408796505622058 -7.380810278647621e-05 0.0003068211833821961 -7.380810278647621e-05 -0.0017971597954396107 -0.0008802403843749948 0.0003068211833821961 -0.0008802403843749948 0.0002546717083188855" free_energy=-47.617795600951 pbc="T T T"
P        3.40707612       3.02758113       3.79912585       0.00000000 NULL       0.00490600      -0.01930500      -0.02461100
P        0.58299853       5.42333118       4.01876520       0.00000000 NULL       0.03036700       0.01727200       0.13564400
P        3.28396512       4.24521918       1.84992166       0.00000000 NULL       0.06718200       0.01337700      -0.02745700
P        4.54303461       4.68227796       4.93963459       0.00000000 NULL       0.06596000       0.00015700      -0.05987600
P        3.56203506       2.16537620       0.96165605       0.00000000 NULL      -0.07859600      -0.03664300      -0.04333900
P        5.27730309       2.34224590       2.72596598       0.00000000 NULL       0.05902900       0.05652400       0.09731300
P        1.46233641       2.48416595      -0.01225352       0.00000000 NULL      -0.02760800      -0.07820800      -0.12638100
P        0.66773010       3.19482857       5.48096951       0.00000000 NULL      -0.00043300       0.04748900      -0.02957400
P        1.08154137       4.25103281       1.34207882       0.00000000 NULL      -0.12080800      -0.00066300       0.07828100
9
Lattice="5.687471164583944 0.20821020424160197 -0.3225944023498464 0.6192409517857068 5.359729236652395 0.3606164613446379 0.03513520213248027 2.742859394906081 6.054951674999318" Properties=species:S:1:pos:R:3:initial_magmoms:R:1:castep_labels:S:1:forces:R:3 n_minim_iter=10 energy=-47.619678407532 stress="-0.0006427135276566223 -0.0005674676444274713 -0.000301658888637434 -0.0005674676444274713 -0.00047606950354180105 0.0005784984545343626 -0.000301658888637434 0.0005784984545343626 -0.0011802966814373629" free_energy=-47.619678407532 pbc="T T T"
P        3.39438390       3.04725535       3.78025928       0.00000000 NULL       0.02494800      -0.03413700      -0.00933600
P        0.57614959       5.44314868       4.02671866       0.00000000 NULL       0.00549800       0.06879200       0.07398700
P        3.27582557       4.26950224       1.84183064       0.00000000 NULL       0.10725000      -0.04155500      -0.06671400
P        4.52403266       4.70928646       4.92325325       0.00000000 NULL       0.07586100      -0.02418100      -0.09670800
P        3.56125371       2.17960127       0.94609920       0.00000000 NULL      -0.09355400       0.01545800      -0.01655900
P        5.27935395       2.36098758       2.72028544       0.00000000 NULL       0.04244200       0.05806600       0.14036300
P        1.45825824       2.48347261      -0.00257208       0.00000000 NULL      -0.04548700      -0.07335300      -0.05861400
P        0.65117212       3.20492503       5.46303807       0.00000000 NULL       0.00992200       0.11244800      -0.07619700
P        1.07875164       4.27053293       1.33698334       0.00000000 NULL      -0.12688000      -0.08153900       0.10977700
9
Lattice="5.620272845381267 0.3387253651104747 -0.4541302203907066 0.7227354031091452 5.384123447564652 0.306759633454572 -0.03768316616820185 2.7026536558738847 6.07958257477864" Properties=species:S:1:pos:R:3:initial_magmoms:R:1:castep_labels:S:1:forces:R:3 n_minim_iter=11 energy=-47.696070049937 stress="-0.004585310369639167 -0.002596887355461355 -0.005953450357837499 -0.002596887355461355 -0.0017019471449452434 -0.0031166267384294824 -0.005953450357837499 -0.0031166267384294824 -0.010505340427690553" free_energy=-47.696070049937 pbc="T T T"
P        3.32976489       3.11826922       3.62555618       0.00000000 NULL       0.09956000       0.13763900      -0.29679400
P        0.61268958       5.41981979       4.15120496       0.00000000 NULL       0.10062700       0.19116500      -0.16560600
P        3.26065111       4.42355608       1.69048402       0.00000000 NULL       0.22230200      -0.55523400      -0.02906200
P        4.41493652       4.79326502       4.79248752       0.00000000 NULL      -0.20610500       0.32191500      -0.45514800
P        3.56797509       2.31902616       0.74617599       0.00000000 NULL      -0.54320300      -0.01639100      -0.03583800
P        5.40329614       2.52913295       2.82946797       0.00000000 NULL      -0.00640800      -0.13168200       0.35470600
P        1.39967377       2.36514198       0.08509138       0.00000000 NULL       0.28089700       0.57787300       0.46511700
P        0.56152191       3.07978892       5.30619368       0.00000000 NULL       0.19402500      -0.46278400       0.05017200
P        1.08114304       4.33596255       1.21666979       0.00000000 NULL      -0.14169500      -0.06250200       0.11245100
9
Lattice="5.614196423438571 0.3478099771285901 -0.4640422487392147 0.7297560246073316 5.386513519787813 0.30359429076209643 -0.04349040883653883 2.7007920872576934 6.083345547309216" Properties=species:S:1:pos:R:3:initial_magmoms:R:1:castep_labels:S:1:forces:R:3 n_minim_iter=12 energy=-47.698739469007 stress="-0.004817443472517904 -0.002852522946635801 -0.00637996764221585 -0.002852522946635801 -0.0018758887765661257 -0.00393923067716856 -0.00637996764221585 -0.00393923067716856 -0.011651959486717996" free_energy=-47.698739469007 pbc="T T T"
P        3.32446423       3.12462390       3.61457710       0.00000000 NULL       0.10675600       0.15256700      -0.31749600
P        0.61501703       5.41927120       4.16275497       0.00000000 NULL       0.11371000       0.19163500      -0.18814300
P        3.25886946       4.43398482       1.67992434       0.00000000 NULL       0.22222400      -0.57839300      -0.04131400
P        4.40500592       4.80118716       4.78322667       0.00000000 NULL      -0.22321000       0.33898500      -0.46587800
P        3.56635401       2.32945390       0.73185759       0.00000000 NULL      -0.54251100      -0.02273300      -0.02690200
P        5.41063989       2.54152631       2.83894617       0.00000000 NULL      -0.03871700      -0.19884700       0.28001000
P        1.39511845       2.35785640       0.09317406       0.00000000 NULL       0.28523400       0.60762500       0.49069100
P        0.55492532       3.07016350       5.29655980       0.00000000 NULL       0.22538500      -0.43221600       0.14959200
P        1.08062486       4.34122389       1.20881828       0.00000000 NULL      -0.14887000      -0.05862100       0.11944000
9
Lattice="5.510831396636089 0.42793156808766664 -0.48392418393670894 0.7929554113601867 5.442598116944532 0.33152803377147355 -0.023179841758535026 2.7521009702642605 6.186982831181572" Properties=species:S:1:pos:R:3:initial_magmoms:R:1:castep_labels:S:1:forces:R:3 n_minim_iter=13 energy=-47.768644138663 stress="-0.006760781386861071 -0.0007269354204687877 -0.007651770735812692 -0.0007269354204687877 -0.00034299621623670804 -0.005009143360502612 -0.007651770735812692 -0.005009143360502612 -0.010608407143021158" free_energy=-47.768644138663 pbc="T T T"
P        3.31037425       3.23406200       3.60871012       0.00000000 NULL       0.15675400       0.24594800      -0.41142000
P        0.70261390       5.48426317       4.34832879       0.00000000 NULL       0.17158800       0.23092200      -0.44616200
P        3.24801260       4.53661736       1.64235616       0.00000000 NULL       0.17155700      -0.74078000       0.11258500
P        4.34412206       4.94815672       4.81155048       0.00000000 NULL      -0.38563200       0.27326500      -0.40909200
P        3.52208555       2.43749031       0.69831431       0.00000000 NULL      -0.32083700      -0.15443100      -0.05970400
P        5.41942416       2.64235377       2.95088906       0.00000000 NULL      -0.12800400      -0.25196400       0.11003300
P        1.34151159       2.34262193       0.19007242       0.00000000 NULL       0.39612400       0.78777700       0.65946000
P        0.58941694       3.11875601       5.38895449       0.00000000 NULL       0.10539800      -0.55752700       0.19580300
P        1.06359560       4.39515114       1.22607328       0.00000000 NULL      -0.16694800       0.16679000       0.24849800
9
Lattice="5.454913260359958 0.44862978570011314 -0.49113841552628745 0.8061831334060436 5.489667125777453 0.3565999344363494 -0.020781963771567918 2.801473495079195 6.22705819063742" Properties=species:S:1:pos:R:3:initial_magmoms:R:1:castep_labels:S:1:forces:R:3 n_minim_iter=14 energy=-47.850463101698 stress="-0.007223242333082593 -0.002131044266546961 -0.009725789190801528 -0.002131044266546961 2.2296912110351845e-05 -0.007686297396707679 -0.009725789190801528 -0.007686297396707679 -0.009566726623347628" free_energy=-47.850463101698 pbc="T T T"
P        3.30561733       3.30342936       3.57743792       0.00000000 NULL       0.02133700       0.13263800      -0.37436700
P        0.75418828       5.57072510       4.44109567       0.00000000 NULL       0.16884300       0.03715500      -0.19349600
P        3.22633366       4.57029781       1.61077407       0.00000000 NULL       0.07266900      -0.66994400       0.14927300
P        4.29411975       5.02013704       4.80226554       0.00000000 NULL      -0.47209100       0.42512300      -0.43613600
P        3.49752789       2.47704508       0.66493621       0.00000000 NULL      -0.30369100      -0.12210700      -0.00263100
P        5.42617505       2.68552211       3.01188861       0.00000000 NULL      -0.17715500      -0.25405600      -0.16744700
P        1.31052455       2.35741277       0.27962524       0.00000000 NULL       0.28414600       0.83204700       0.41502900
P        0.56808901       3.16185494       5.41967852       0.00000000 NULL       0.27353700      -0.53325100       0.61863700
P        1.00760937       4.44866243       1.28842195       0.00000000 NULL       0.13240600       0.15239300      -0.00886200
9
Lattice="5.430128065923081 0.4837955847663732 -0.44440084485216697 0.8412433083022975 5.495565923406483 0.390275477298288 0.048019730718889146 2.829087723602383 6.310934963160785" Properties=species:S:1:pos:R:3:initial_magmoms:R:1:castep_labels:S:1:forces:R:3 n_minim_iter=15 energy=-47.958868116533 stress="-0.006671969754521695 -0.001968481869879625 -0.010533723764570747 -0.001968481869879625 -0.003975826759944074 -0.008848131130827844 -0.010533723764570747 -0.008848131130827844 -0.00911083396367432" free_energy=-47.958868116533 pbc="T T T"
P        3.35075459       3.33657912       3.61882151       0.00000000 NULL       0.11214500       0.02671500      -0.35509200
P        0.88486545       5.61968052       4.62244310       0.00000000 NULL      -0.03883200       0.15831300      -0.81285200
P        3.23504438       4.53821575       1.61764290       0.00000000 NULL       0.31294000      -0.26177900       0.33715500
P        4.31795657       5.06416695       4.82125561       0.00000000 NULL      -0.54362900       0.61970100      -0.09753500
P        3.49056134       2.49957222       0.67796358       0.00000000 NULL      -0.09532200      -0.39113600      -0.20617900
P        5.51143523       2.76068944       3.13142655       0.00000000 NULL      -0.25133200      -0.48659200      -0.13020000
P        1.30378571       2.38519033       0.34976876       0.00000000 NULL       0.21235200       0.59194500       0.82321400
P        0.59723884       3.17877476       5.52361317       0.00000000 NULL       0.28662900      -0.36043100       0.56470500
P        1.01870586       4.47975664       1.37877149       0.00000000 NULL       0.00505000       0.10326400      -0.12321600
9
Lattice="5.385359381589878 0.5059118150647499 -0.41949484646511725 0.8597434516739278 5.567215815776412 0.4431335299935215 0.08255683394263835 2.920755973270898 6.32502365391843" Properties=species:S:1:pos:R:3:initial_magmoms:R:1:castep_labels:S:1:forces:R:3 n_minim_iter=16 energy=-48.08556212081 stress="-0.007185790827318571 -0.0023743220849661456 -0.010456745209864896 -0.0023743220849661456 -0.0005408497634569024 -0.008164178835141487 -0.010456745209864896 -0.008164178835141487 -0.001899033253083678" free_energy=-48.08556212081 pbc="T T T"
P        3.36164665       3.39015401       3.63184076       0.00000000 NULL       0.11147200       0.08002200      -0.25391500
P        0.97011039       5.78812642       4.69375983       0.00000000 NULL      -0.13449600      -0.15043800      -0.48291900
P        3.25935717       4.56851971       1.64505311       0.00000000 NULL       0.21815500      -0.37140600       0.15151800
P        4.27077257       5.21649838       4.77303429       0.00000000 NULL      -0.30164500       0.40250200       0.11486800
P        3.43541867       2.50563347       0.67125743       0.00000000 NULL       0.42064500      -0.22295200      -0.12732800
P        5.52884220       2.84996521       3.19868462       0.00000000 NULL      -0.17563500      -0.32002600       0.03836700
P        1.28166007       2.42813246       0.44792028       0.00000000 NULL      -0.24531500       0.64393500       0.37974500
P        0.61564272       3.29472171       5.57853539       0.00000000 NULL       0.01350400      -0.25609800       0.28010100
P        1.02957758       4.54708100       1.44938126       0.00000000 NULL       0.09331500       0.19445900      -0.10043800
9
Lattice="5.365644728395057 0.5360585669562672 -0.4054374760379755 0.8884646872641925 5.692639963295806 0.5470603403661886 0.10798081763278244 3.0979866900658566 6.344963639905004" Properties=species:S:1:pos:R:3:initial_magmoms:R:1:castep_labels:S:1:forces:R:3 n_minim_iter=17 energy=-48.202243870841 stress="-0.0010400634980063286 -0.003067164396486394 -0.011344433164405128 -0.003067164396486394 0.0014758285393560297 -0.003818708419075549 -0.011344433164405128 -0.003818708419075549 0.0034500692196492763" free_energy=-48.202243870841 pbc="T T T"
P        3.40356916       3.53326417       3.68285327       0.00000000 NULL       0.04200900       0.09676600      -0.22053500
P        1.04039430       6.01872335       4.79120580       0.00000000 NULL      -0.19628300      -0.18703600      -0.31758400
P        3.30135968       4.60726646       1.65645559       0.00000000 NULL       0.31341100      -0.16793600       0.14665100
P        4.23885882       5.47221299       4.76093936       0.00000000 NULL      -0.17898300       0.19070900       0.20090200
P        3.44110088       2.55311254       0.68607559       0.00000000 NULL      -0.10212200      -0.21902300      -0.13820100
P        5.55611516       2.99189951       3.29776956       0.00000000 NULL      -0.11267100      -0.11439500       0.02452200
P        1.21671695       2.53374801       0.56023316       0.00000000 NULL       0.20406700       0.55380900       0.27763700
P        0.61685103       3.51116303       5.61809166       0.00000000 NULL      -0.01793300      -0.26157500       0.24723500
P        1.07528238       4.67547034       1.55658666       0.00000000 NULL       0.04850400       0.10868200      -0.22062600
9
Lattice="5.342893207456677 0.5390165416999741 -0.34932915562492145 0.8931963686758528 5.751027524415608 0.5889885702798594 0.16491083830732614 3.1707271509230273 6.321929945477242" Properties=species:S:1:pos:R:3:initial_magmoms:R:1:castep_labels:S:1:forces:R:3 n_minim_iter=18 energy=-48.270013746644 stress="-0.0032492297455295597 -0.0040512674235579586 -0.009670513801842246 -0.0040512674235579586 0.0017589244887582151 -0.0015502075669547315 -0.009670513801842246 -0.0015502075669547315 0.004921677886315085" free_energy=-48.270013746644 pbc="T T T"
P        3.43576695       3.61617536       3.74132040       0.00000000 NULL       0.00510600      -0.05176200      -0.35915800
P        1.08473719       6.10018419       4.79882004       0.00000000 NULL      -0.14199800      -0.02151300      -0.33504900
P        3.34962028       4.60938354       1.66857508       0.00000000 NULL       0.13446500      -0.04327900       0.14456200
P        4.23909559       5.55703039       4.78283053       0.00000000 NULL      -0.12646900       0.25367000       0.27893000