52
Lattice="4.66384 0.0 0.0 0.0 13.61926 0.0 0.0 0.0 17.99667" Properties=species:S:1:pos:R:3:initial_magmoms:R:1:castep_labels:S:1 n_minim_iter=1 pbc="T T T"
P        1.10179582       3.17617623      11.14765570       0.00000000 NULL
P        3.56204418      10.44308377      11.14765570       0.00000000 NULL
P        1.23012418       9.98580623       2.14932070       0.00000000 NULL
P        3.43371582       3.63345377       2.14932070       0.00000000 NULL
P        3.87187006       3.32068883      15.44253580       0.00000000 NULL
P        0.79196994      10.29857117      15.44253580       0.00000000 NULL
P        3.12388994      10.13031883       6.44420080       0.00000000 NULL
P        1.53995006       3.48894117       6.44420080       0.00000000 NULL
P        1.07499087      11.75971620       1.19686134       0.00000000 NULL
P        3.58884913       1.85954380       1.19686134       0.00000000 NULL
P        1.25692913       4.95008620      10.19519634       0.00000000 NULL
P        3.40691087       8.66917380      10.19519634       0.00000000 NULL
P        4.10754183       4.12561978       7.30573019       0.00000000 NULL
P        0.55629817       9.49364022       7.30573019       0.00000000 NULL
P        2.88821817      10.93524978      16.30406519       0.00000000 NULL
P        1.77562183       2.68401022      16.30406519       0.00000000 NULL
P        4.13065209       4.47057385       9.31109193       0.00000000 NULL
P        0.53318791       9.14868615       9.31109193       0.00000000 NULL
P        2.86510791      11.28020385       0.31275693       0.00000000 NULL
P        1.79873209       2.33905615       0.31275693       0.00000000 NULL
P        2.04341859      10.40704313       9.81492850       0.00000000 NULL
P        2.62042141       3.21221687       9.81492850       0.00000000 NULL
P        0.28850141       3.59741313       0.81659350       0.00000000 NULL
P        4.37533859      10.02184687       0.81659350       0.00000000 NULL
P        0.93722663       2.20606680       9.33439042       0.00000000 NULL
P        3.72661337      11.41319320       9.33439042       0.00000000 NULL
P        1.39469337       9.01569680       0.33605542       0.00000000 NULL
P        3.26914663       4.60356320       0.33605542       0.00000000 NULL
P        2.09070946      12.63812987       9.23268404       0.00000000 NULL
P        2.57313054       0.98113013       9.23268404       0.00000000 NULL
P        0.24121054       5.82849987       0.23434904       0.00000000 NULL
P        4.42262946       7.79076013       0.23434904       0.00000000 NULL
P        0.19388842       5.73081845       6.34706018       0.00000000 NULL
P        4.46995158       7.88844155       6.34706018       0.00000000 NULL
P        2.13803158      12.54044845      15.34539518       0.00000000 NULL
P        2.52580842       1.07881155      15.34539518       0.00000000 NULL
P        3.56609239       2.45525432      17.22681205       0.00000000 NULL
P        1.09774761      11.16400568      17.22681205       0.00000000 NULL
P        3.42966761       9.26488432       8.22847705       0.00000000 NULL
P        1.23417239       4.35437568       8.22847705       0.00000000 NULL
P        3.91492524      12.27431994       1.88619499       0.00000000 NULL
P        0.74891476       1.34494006       1.88619499       0.00000000 NULL
P        3.08083476       5.46468994      10.88452999       0.00000000 NULL
P        1.58300524       8.15457006      10.88452999       0.00000000 NULL
P        1.14657242      12.92133013      12.82755306       0.00000000 NULL
P        3.51726758       0.69792987      12.82755306       0.00000000 NULL
P        1.18534758       6.11170013       3.82921806       0.00000000 NULL
P        3.47849242       7.50755987       3.82921806       0.00000000 NULL
P        2.08437363       5.82803001       5.62167560       0.00000000 NULL
P        2.57946637       7.79122999       5.62167560       0.00000000 NULL
P        0.24754637      12.63766001      14.62001060       0.00000000 NULL
P        4.41629363       0.98159999      14.62001060       0.00000000 NULL
52
Lattice="4.757402985831549 0.0 0.0 0.0 13.837716438813503 0.0 0.0 0.0 18.323400297489993" Properties=species:S:1:pos:R:3:initial_magmoms:R:1:castep_labels:S:1 n_minim_iter=2 pbc="T T T"
P        1.12367484       3.22689056      11.35078895       0.00000000 NULL
P        3.63372815      10.61082588      11.35078895       0.00000000 NULL
P        1.25502666      10.14574878       2.18908880       0.00000000 NULL
P        3.50237633       3.69196766       2.18908880       0.00000000 NULL
P        3.94965234       3.37423117      15.72259092       0.00000000 NULL
P        0.80775064      10.46348527      15.72259092       0.00000000 NULL
P        3.18645214      10.29308939       6.56089077       0.00000000 NULL
P        1.57095085       3.54462705       6.56089077       0.00000000 NULL
P        1.09657899      11.94885979       1.21878916       0.00000000 NULL
P        3.66082400       1.88885665       1.21878916       0.00000000 NULL
P        1.28212251       5.03000157      10.38048931       0.00000000 NULL
P        3.47528048       8.80771487      10.38048931       0.00000000 NULL
P        4.18952786       4.19144571       7.43811410       0.00000000 NULL
P        0.56787513       9.64627073       7.43811410       0.00000000 NULL
P        2.94657662      11.11030393      16.59981424       0.00000000 NULL
P        1.81082637       2.72741251      16.59981424       0.00000000 NULL
P        4.21320518       4.54249719       9.48014655       0.00000000 NULL
P        0.54419780       9.29521925       9.48014655       0.00000000 NULL
P        2.92289930      11.46135541       0.31844640       0.00000000 NULL
P        1.83450369       2.37636103       0.31844640       0.00000000 NULL
P        2.08414655      10.57416143       9.99311195       0.00000000 NULL
P        2.67325644       3.26355501       9.99311195       0.00000000 NULL
P        0.29455495       3.65530321       0.83141180       0.00000000 NULL
P        4.46284804      10.18241323       0.83141180       0.00000000 NULL
P        0.95564144       2.24109474       9.50351475       0.00000000 NULL
P        3.80176155      11.59662169       9.50351475       0.00000000 NULL
P        1.42306006       9.15995296       0.34181460       0.00000000 NULL
P        3.33434293       4.67776348       0.34181460       0.00000000 NULL
P        2.13235128      12.84080509       9.40024414       0.00000000 NULL
P        2.62505170       0.99691135       9.40024414       0.00000000 NULL
P        0.24635021       5.92194687       0.23854399       0.00000000 NULL
P        4.51105278       7.91576957       0.23854399       0.00000000 NULL
P        0.19770411       5.82302550       6.46222421       0.00000000 NULL
P        4.55969887       8.01469094       6.46222421       0.00000000 NULL
P        2.18099738      12.74188372      15.62392436       0.00000000 NULL
P        2.57640561       1.09583272      15.62392436       0.00000000 NULL
P        3.63804541       2.49452441      17.53948694       0.00000000 NULL
P        1.11935758      11.34319203      17.53948694       0.00000000 NULL
P        3.49805907       9.41338263       8.37778679       0.00000000 NULL
P        1.25934391       4.42433381       8.37778679       0.00000000 NULL
P        3.99319568      12.47154532       1.92075534       0.00000000 NULL
P        0.76420731       1.36617112       1.92075534       0.00000000 NULL
P        3.14290880       5.55268710      11.08245548       0.00000000 NULL
P        1.61449418       8.28502934      11.08245548       0.00000000 NULL
P        1.16964567      13.12862784      13.06020252       0.00000000 NULL
P        3.58775732       0.70908860      13.06020252       0.00000000 NULL
P        1.20905582       6.20976962       3.89850237       0.00000000 NULL
P        3.54834716       7.62794682       3.89850237       0.00000000 NULL
P        2.12642549       5.92115401       5.72381005       0.00000000 NULL
P        2.63097750       7.91656243       5.72381005       0.00000000 NULL
P        0.25227601      12.84001223      14.88551020       0.00000000 NULL
P        4.50512698       0.99770421      14.88551020       0.00000000 NULL
52
Lattice="5.085585858790868 0.0 0.0 0.0 14.630354573848061 0.0 0.0 0.0 19.48312530840166" Properties=species:S:1:pos:R:3:initial_magmoms:R:1:castep_labels:S:1 n_minim_iter=3 pbc="T T T"
P        1.20042267       3.41080232      12.07198483       0.00000000 NULL
P        3.88516318      11.21955225      12.07198483       0.00000000 NULL
P        1.34237026      10.72597961       2.33042218       0.00000000 NULL
P        3.74321560       3.90437497       2.33042218       0.00000000 NULL
P        4.22250376       3.56852759      16.71657795       0.00000000 NULL
P        0.86308210      11.06182699      16.71657795       0.00000000 NULL
P        3.40587503      10.88370487       6.97501530       0.00000000 NULL
P        1.67971083       3.74664970       6.97501530       0.00000000 NULL
P        1.17234063      12.63529955       1.29674593       0.00000000 NULL
P        3.91324523       1.99505502       1.29674593       0.00000000 NULL
P        1.37045230       5.32012227      11.03830858       0.00000000 NULL
P        3.71513356       9.31023231      11.03830858       0.00000000 NULL
P        4.47702796       4.43016606       7.90791314       0.00000000 NULL
P        0.60855790      10.20018852       7.90791314       0.00000000 NULL
P        3.15135083      11.74534334      17.64947580       0.00000000 NULL
P        1.93423503       2.88501123      17.64947580       0.00000000 NULL
P        4.50256695       4.80361160      10.08019878       0.00000000 NULL
P        0.58301891       9.82674298      10.08019878       0.00000000 NULL
P        3.12581184      12.11878888       0.33863613       0.00000000 NULL
P        1.95977402       2.51156569       0.33863613       0.00000000 NULL
P        2.22699903      11.18069311      10.62563679       0.00000000 NULL
P        2.85858683       3.44966147      10.62563679       0.00000000 NULL
P        0.31579390       3.86551582       0.88407414       0.00000000 NULL
P        4.76979196      10.76483876       0.88407414       0.00000000 NULL
P        1.02013155       2.36804965      10.10367029       0.00000000 NULL
P        4.06545431      12.26230493      10.10367029       0.00000000 NULL
P        1.52266138       9.68322694       0.36210763       0.00000000 NULL
P        3.56292448       4.94712764       0.36210763       0.00000000 NULL
P        2.27826210      13.57606920       9.99500976       0.00000000 NULL
P        2.80732376       1.05428537       9.99500976       0.00000000 NULL
P        0.26453083       6.26089192       0.25344710       0.00000000 NULL
P        4.82105503       8.36946266       0.25344710       0.00000000 NULL
P        0.21117120       6.15782174       6.87094586       0.00000000 NULL
P        4.87441466       8.47253284       6.87094586       0.00000000 NULL
P        2.33162173      13.47299902      16.61250851       0.00000000 NULL
P        2.75396413       1.15735555      16.61250851       0.00000000 NULL
P        3.89056149       2.63702945      18.64923528       0.00000000 NULL
P        1.19502437      11.99332513      18.64923528       0.00000000 NULL
P        3.73781730       9.95220673       8.90767263       0.00000000 NULL
P        1.34776856       4.67814784       8.90767263       0.00000000 NULL
P        4.26757166      13.18726786       2.04349513       0.00000000 NULL
P        0.81801420       1.44308672       2.04349513       0.00000000 NULL
P        3.36080713       5.87209057      11.78505779       0.00000000 NULL
P        1.72477873       8.75826401      11.78505779       0.00000000 NULL
P        1.25048165      13.88088357      13.88604075       0.00000000 NULL
P        3.83510421       0.74947100      13.88604075       0.00000000 NULL
P        1.29231128       6.56570629       4.14447809       0.00000000 NULL
P        3.79327458       8.06464829       4.14447809       0.00000000 NULL
P        2.27387262       6.25891033       6.08628914       0.00000000 NULL
P        2.81171324       8.37144424       6.08628914       0.00000000 NULL
P        0.26892031      13.57408762      15.82785179       0.00000000 NULL
P        4.81666554       1.05626695      15.82785179       0.00000000 NULL
52
Lattice="5.224038824439749 0.0 0.0 0.0 14.941956483877055 0.0 0.0 0.0 19.910218954735864" Properties=species:S:1:pos:R:3:initial_magmoms:R:1:castep_labels:S:1 n_minim_iter=4 pbc="T T T"
P        1.23296250       3.48276871      12.33785427       0.00000000 NULL
P        3.99107633      11.45918777      12.33785427       0.00000000 NULL
P        1.37905691      10.95374695       2.38274479       0.00000000 NULL
P        3.84498191       3.98820953       2.38274479       0.00000000 NULL
P        4.33745192       3.64472767      17.08254582       0.00000000 NULL
P        0.88658691      11.29722881      17.08254582       0.00000000 NULL
P        3.49860632      11.11570591       7.12743634       0.00000000 NULL
P        1.72543251       3.82625057       7.12743634       0.00000000 NULL
P        1.20439916      12.90566855       1.32610033       0.00000000 NULL
P        4.01963967       2.03628794       1.32610033       0.00000000 NULL
P        1.40762026       5.43469031      11.28120981       0.00000000 NULL
P        3.81641857       9.50726618      11.28120981       0.00000000 NULL
P        4.59840259       4.52359749       8.08054596       0.00000000 NULL
P        0.62563624      10.41835900       8.08054596       0.00000000 NULL
P        3.23765565      11.99457573      18.03565544       0.00000000 NULL
P        1.98638318       2.94738075      18.03565544       0.00000000 NULL
P        4.62386514       4.90681333      10.30132914       0.00000000 NULL
P        0.60017369      10.03514316      10.30132914       0.00000000 NULL
P        3.21219310      12.37779157       0.34621966       0.00000000 NULL
P        2.01184572       2.56416492       0.34621966       0.00000000 NULL
P        2.28727380      11.41966605      10.85877392       0.00000000 NULL
P        2.93676502       3.52229043      10.85877392       0.00000000 NULL
P        0.32474561       3.94868781       0.90366445       0.00000000 NULL
P        4.89929321      10.99326867       0.90366445       0.00000000 NULL
P        1.04712554       2.41772889      10.32434132       0.00000000 NULL
P        4.17691329      12.52422759      10.32434132       0.00000000 NULL
P        1.56489387       9.88870713       0.36923184       0.00000000 NULL
P        3.65914495       5.05324935       0.36923184       0.00000000 NULL
P        2.33961443      13.86476846      10.21412976       0.00000000 NULL
P        2.88442439       1.07718803      10.21412976       0.00000000 NULL
P        0.27240498       6.39379022       0.25902029       0.00000000 NULL
P        4.95163385       8.54816627       0.25902029       0.00000000 NULL
P        0.21718554       6.29014326       7.02130949       0.00000000 NULL
P        5.00685329       8.65181322       7.02130949       0.00000000 NULL
P        2.39483387      13.76112150      16.97641897       0.00000000 NULL
P        2.82920495       1.18083498      16.97641897       0.00000000 NULL
P        3.99759405       2.69330526      19.05745405       0.00000000 NULL
P        1.22644477      12.24865123      19.05745405       0.00000000 NULL
P        3.83846418      10.16428350       9.10234458       0.00000000 NULL
P        1.38557464       4.77767298       9.10234458       0.00000000 NULL
P        4.38276954      13.46881533       2.08871260       0.00000000 NULL
P        0.84126928       1.47314116       2.08871260       0.00000000 NULL
P        3.45328870       5.99783708      12.04382208       0.00000000 NULL
P        1.77075013       8.94411940      12.04382208       0.00000000 NULL
P        1.28405106      14.17688661      14.19062333       0.00000000 NULL
P        3.93998777       0.76506987      14.19062333       0.00000000 NULL
P        1.32796835       6.70590837       4.23551386       0.00000000 NULL
P        3.89607047       8.23604811       4.23551386       0.00000000 NULL
P        2.33562413       6.39118011       6.21941192       0.00000000 NULL
P        2.88841470       8.55077637       6.21941192       0.00000000 NULL
P        0.27639529      13.86215836      16.17452140       0.00000000 NULL
P        4.94764354       1.07979813      16.17452140       0.00000000 NULL
52
Lattice="5.273643838841366 0.0 0.0 0.0 15.017484321022291 0.0 0.0 0.0 20.011430821977047" Properties=species:S:1:pos:R:3:initial_magmoms:R:1:castep_labels:S:1 n_minim_iter=5 pbc="T T T"
P        1.24478521       3.49973375      12.40119194       0.00000000 NULL
P        4.02885863      11.51775057      12.40119194       0.00000000 NULL
P        1.39203671      11.00847591       2.39547653       0.00000000 NULL
P        3.88160713       4.00900841       2.39547653       0.00000000 NULL
P        4.37834682       3.66288672      17.16917820       0.00000000 NULL
P        0.89529702      11.35459760      17.16917820       0.00000000 NULL
P        3.53211894      11.17162888       7.16346279       0.00000000 NULL
P        1.74152490       3.84585544       7.16346279       0.00000000 NULL
P        1.21591733      12.97193355       1.33394212       0.00000000 NULL
P        4.05772651       2.04555077       1.33394212       0.00000000 NULL
P        1.42090459       5.46319139      11.33965753       0.00000000 NULL
P        3.85273924       9.55429293      11.33965753       0.00000000 NULL
P        4.64208426       4.54563526       8.12094733       0.00000000 NULL
P        0.63155957      10.47184906       8.12094733       0.00000000 NULL
P        3.26838149      12.05437742      18.12666274       0.00000000 NULL
P        2.00526235       2.96310690      18.12666274       0.00000000 NULL
P        4.66628356       4.93258486      10.35398920       0.00000000 NULL
P        0.60736028      10.08489946      10.35398920       0.00000000 NULL
P        3.24418220      12.44132702       0.34827379       0.00000000 NULL
P        2.02946164       2.57615730       0.34827379       0.00000000 NULL
P        2.30892233      11.47824936      10.91427986       0.00000000 NULL
P        2.96472151       3.53923496      10.91427986       0.00000000 NULL
P        0.32789959       3.96950720       0.90856444       0.00000000 NULL
P        4.94574425      11.04797712       0.90856444       0.00000000 NULL
P        1.05661046       2.42955591      10.37615294       0.00000000 NULL
P        4.21703338      12.58792841      10.37615294       0.00000000 NULL
P        1.58021146       9.93829807       0.37043753       0.00000000 NULL
P        3.69343238       5.07918625       0.37043753       0.00000000 NULL
P        2.36139534      13.93435762      10.26615930       0.00000000 NULL
P        2.91224850       1.08312671      10.26615930       0.00000000 NULL
P        0.27542658       6.42561546       0.26044389       0.00000000 NULL
P        4.99821726       8.59186887       0.26044389       0.00000000 NULL
P        0.21973364       6.32310196       7.05680402       0.00000000 NULL
P        5.05391020       8.69438236       7.05680402       0.00000000 NULL
P        2.41708828      13.83184412      17.06251943       0.00000000 NULL
P        2.85655555       1.18564020      17.06251943       0.00000000 NULL
P        4.03665599       2.70738657      19.15354275       0.00000000 NULL
P        1.23698785      12.31009775      19.15354275       0.00000000 NULL
P        3.87380977      10.21612874       9.14782734       0.00000000 NULL
P        1.39983407       4.80135559       9.14782734       0.00000000 NULL
P        4.42336961      13.53722475       2.09937054       0.00000000 NULL
P        0.85027422       1.48025958       2.09937054       0.00000000 NULL
P        3.48709614       6.02848259      12.10508595       0.00000000 NULL
P        1.78654770       8.98900174      12.10508595       0.00000000 NULL
P        1.29544827      14.24881713      14.26344058       0.00000000 NULL
P        3.97819557       0.76866719      14.26344058       0.00000000 NULL
P        1.34137365       6.74007497       4.25772517       0.00000000 NULL
P        3.93227019       8.27740935       4.25772517       0.00000000 NULL
P        2.35707265       6.42249988       6.25041770       0.00000000 NULL
P        2.91657119       8.59498444       6.25041770       0.00000000 NULL
P        0.27974927      13.93124204      16.25613311       0.00000000 NULL
P        4.99389457       1.08624228      16.25613311       0.00000000 NULL
52
Lattice="5.290650222076919 0.0 0.0 0.0 15.008678925466912 0.0 0.0 0.0 19.995601839145532" Properties=species:S:1:pos:R:3:initial_magmoms:R:1:castep_labels:S:1 n_minim_iter=6 pbc="T T T"
P        1.24902411       3.49702662      12.39180330       0.00000000 NULL
P        4.04162611      11.51165231      12.39180330       0.00000000 NULL
P        1.39630100      11.00136608       2.39400238       0.00000000 NULL
P        3.89434922       4.00731284       2.39400238       0.00000000 NULL
P        4.39205140       3.66030812      17.15547132       0.00000000 NULL
P        0.89859882      11.34837081      17.15547132       0.00000000 NULL
P        3.54392394      11.16464758       7.15767040       0.00000000 NULL
P        1.74672629       3.84403134       7.15767040       0.00000000 NULL
P        1.21987733      12.96531839       1.33408306       0.00000000 NULL
P        4.07077290       2.04336054       1.33408306       0.00000000 NULL
P        1.42544779       5.46097893      11.33188398       0.00000000 NULL
P        3.86520244       9.54770000      11.33188398       0.00000000 NULL
P        4.65729760       4.54214867       8.11385440       0.00000000 NULL
P        0.63335263      10.46653026       8.11385440       0.00000000 NULL
P        3.27867774      12.04648813      18.11165532       0.00000000 NULL
P        2.01197248       2.96219080      18.11165532       0.00000000 NULL
P        4.67970897       4.93072965      10.34616286       0.00000000 NULL
P        0.61094125      10.07794927      10.34616286       0.00000000 NULL
P        3.25626636      12.43506911       0.34836194       0.00000000 NULL
P        2.03438386       2.57360981       0.34836194       0.00000000 NULL
P        2.31643283      11.47240367      10.90600136       0.00000000 NULL
P        2.97421740       3.53627525      10.90600136       0.00000000 NULL
P        0.32889229       3.96806421       0.90820044       0.00000000 NULL
P        4.96175794      11.04061472       0.90820044       0.00000000 NULL
P        1.05970056       2.42786034      10.36729358       0.00000000 NULL
P        4.23094967      12.58081858      10.36729358       0.00000000 NULL
P        1.58562456       9.93219981       0.36949266       0.00000000 NULL
P        3.70502567       5.07647912       0.36949266       0.00000000 NULL
P        2.36865935      13.92565408      10.25817375       0.00000000 NULL
P        2.92199088       1.08302484      10.25817375       0.00000000 NULL
P        0.27666577       6.42131462       0.26037283       0.00000000 NULL
P        5.01398446       8.58736431       0.26037283       0.00000000 NULL
P        0.22103825       6.32060143       7.05103367       0.00000000 NULL
P        5.06961198       8.68807749       7.05103367       0.00000000 NULL
P        2.42428687      13.82494089      17.04883459       0.00000000 NULL
P        2.86636336       1.18373803      17.04883459       0.00000000 NULL
P        4.05080512       2.70643474      19.13752381       0.00000000 NULL
P        1.23984510      12.30224418      19.13752381       0.00000000 NULL
P        3.88517021      10.21077421       9.13972289       0.00000000 NULL
P        1.40548001       4.79790472       9.13972289       0.00000000 NULL
P        4.43658324      13.52949491       2.09760359       0.00000000 NULL
P        0.85406698       1.47918402       2.09760359       0.00000000 NULL
P        3.49939209       6.02515545      12.09540451       0.00000000 NULL
P        1.79125813       8.98352348      12.09540451       0.00000000 NULL
P        1.29866187      14.24067672      14.25304462       0.00000000 NULL
P        3.99198835       0.76800221      14.25304462       0.00000000 NULL
P        1.34666324       6.73633725       4.25524370       0.00000000 NULL
P        3.94398698       8.27234167       4.25524370       0.00000000 NULL
P        2.36367412       6.41772835       6.24472785       0.00000000 NULL
P        2.92697610       8.59095057       6.24472785       0.00000000 NULL
P        0.28165099      13.92206781      16.24252877       0.00000000 NULL
P        5.00899923       1.08661111      16.24252877       0.00000000 NULL
52
Lattice="5.313317969025053 0.0 0.0 0.0 14.975616639927361 0.0 0.0 0.0 19.943698620282657" Properties=species:S:1:pos:R:3:initial_magmoms:R:1:castep_labels:S:1 n_minim_iter=7 pbc="T T T"
P        1.25489859       3.48791649      12.36050259       0.00000000 NULL
P        4.05841937      11.48770015      12.36050259       0.00000000 NULL
P        1.40176039      10.97572481       2.38865328       0.00000000 NULL
P        3.91155758       3.99989183       2.38865328       0.00000000 NULL
P        4.40997022       3.65133326      17.11063197       0.00000000 NULL
P        0.90334775      11.32428338      17.11063197       0.00000000 NULL
P        3.56000674      11.13914158       7.13878266       0.00000000 NULL
P        1.75331123       3.83647506       7.13878266       0.00000000 NULL
P        1.22518470      12.93888889       1.33314448       0.00000000 NULL
P        4.08813327       2.03672775       1.33314448       0.00000000 NULL
P        1.43147428       5.45108057      11.30499379       0.00000000 NULL
P        3.88184369       9.52453607      11.30499379       0.00000000 NULL
P        4.67785580       4.53042202       8.09139557       0.00000000 NULL
P        0.63546217      10.44519462       8.09139557       0.00000000 NULL
P        3.29212115      12.01823034      18.06324488       0.00000000 NULL
P        2.02119682       2.95738630      18.06324488       0.00000000 NULL
P        4.69629173       4.92204739      10.32011685       0.00000000 NULL
P        0.61702624      10.05356925      10.32011685       0.00000000 NULL
P        3.27368523      12.40985571       0.34826754       0.00000000 NULL
P        2.03963274       2.56576093       0.34826754       0.00000000 NULL
P        2.32653446      11.44898295      10.87845577       0.00000000 NULL
P        2.98678351       3.52663369      10.87845577       0.00000000 NULL
P        0.33012452       3.96117463       0.90660646       0.00000000 NULL
P        4.98319345      11.01444201       0.90660646       0.00000000 NULL
P        1.06362945       2.42197753      10.33899339       0.00000000 NULL
P        4.24968852      12.55363911      10.33899339       0.00000000 NULL
P        1.59302953       9.90978585       0.36714408       0.00000000 NULL
P        3.72028844       5.06583079       0.36714408       0.00000000 NULL
P        2.37810089      13.89381050      10.23183053       0.00000000 NULL
P        2.93521708       1.08180614      10.23183053       0.00000000 NULL
P        0.27855810       6.40600218       0.25998122       0.00000000 NULL
P        5.03475987       8.56961446       0.25998122       0.00000000 NULL
P        0.22332394       6.30922670       7.03232024       0.00000000 NULL
P        5.08999402       8.66638994       7.03232024       0.00000000 NULL
P        2.43333504      13.79703502      17.00416955       0.00000000 NULL
P        2.87998293       1.17858162      17.00416955       0.00000000 NULL
P        4.07053171       2.70185982      19.08604218       0.00000000 NULL
P        1.24278626      12.27375682      19.08604218       0.00000000 NULL
P        3.89944524      10.18966814       9.11419287       0.00000000 NULL
P        1.41387273       4.78594850       9.11419287       0.00000000 NULL
P        4.45338294      13.50008605       2.09189580       0.00000000 NULL
P        0.85993503       1.47553059       2.09189580       0.00000000 NULL
P        3.51659401       6.01227773      12.06374511       0.00000000 NULL
P        1.79672396       8.96333891      12.06374511       0.00000000 NULL
P        1.30213580      14.20970992      14.21793804       0.00000000 NULL
P        4.01118217       0.76590672      14.21793804       0.00000000 NULL
P        1.35452319       6.72190160       4.24608873       0.00000000 NULL
P        3.95879478       8.25371504       4.24608873       0.00000000 NULL
P        2.37158763       6.40145349       6.22695554       0.00000000 NULL
P        2.94173034       8.57416315       6.22695554       0.00000000 NULL
P        0.28507136      13.88926181      16.19880485       0.00000000 NULL
P        5.02824661       1.08635483      16.19880485       0.00000000 NULL
52
Lattice="5.3497947331896585 0.0 0.0 0.0 14.914730261148677 0.0 0.0 0.0 19.85912285732979" Properties=species:S:1:pos:R:3:initial_magmoms:R:1:castep_labels:S:1 n_minim_iter=8 pbc="T T T"
P        1.26514524       3.46957750      12.31071453       0.00000000 NULL
P        4.08464950      11.44515276      12.31071453       0.00000000 NULL
P        1.40975213      10.92694263       2.38115310       0.00000000 NULL
P        3.94004260       3.98778763       2.38115310       0.00000000 NULL
P        4.43770079       3.63410142      17.03679445       0.00000000 NULL
P        0.91209394      11.28062885      17.03679445       0.00000000 NULL
P        3.58699131      11.09146655       7.10723302       0.00000000 NULL
P        1.76280343       3.82326371       7.10723302       0.00000000 NULL
P        1.23391336      12.89269987       1.33463375       0.00000000 NULL
P        4.11588137       2.02203040       1.33463375       0.00000000 NULL
P        1.44098401       5.43533473      11.26419518       0.00000000 NULL