52
Lattice="5.073179999999998 0.0 -9.213150345291038e-17 0.0 12.76089 0.0 -0.47609168555278547 0.0 17.120571661105462" Properties=species:S:1:pos:R:3:initial_magmoms:R:1:castep_labels:S:1 n_minim_iter=1 pbc="T T T"
P        0.72804449       5.27034072       8.88850089       0.00000000 NULL
P        3.86904382       5.27034072       8.23207078       0.00000000 NULL
P        3.86904382       7.49054928       8.23207078       0.00000000 NULL
P        0.72804449       7.49054928       8.88850089       0.00000000 NULL
P        3.93701308       5.37598048      14.94865594       0.00000000 NULL
P        0.66007523       5.37598048       2.17191573       0.00000000 NULL
P        0.66007523       7.38490952       2.17191573       0.00000000 NULL
P        3.93701308       7.38490952      14.94865594       0.00000000 NULL
P        1.25123141       8.71531398       6.03636773       0.00000000 NULL
P        3.34585690       8.71531398      11.08420394       0.00000000 NULL
P        3.34585690       4.04557602      11.08420394       0.00000000 NULL
P        1.25123141       4.04557602       6.03636773       0.00000000 NULL
P        3.11003754      10.33716822       7.92471200       0.00000000 NULL
P        1.48705077      10.33716822       9.19585967       0.00000000 NULL
P        1.48705077       2.42372178       9.19585967       0.00000000 NULL
P        3.11003754       2.42372178       7.92471200       0.00000000 NULL
P        1.03253712       1.00006074       1.51171395       0.00000000 NULL
P        3.56455119       1.00006074      15.60885772       0.00000000 NULL
P        3.56455119      11.76082926      15.60885772       0.00000000 NULL
P        1.03253712      11.76082926       1.51171395       0.00000000 NULL
P        2.53230506       5.37627781       9.76193253       0.00000000 NULL
P        2.06478325       5.37627781       7.35863914       0.00000000 NULL
P        2.06478325       7.38461219       7.35863914       0.00000000 NULL
P        2.53230506       7.38461219       9.76193253       0.00000000 NULL
P        3.89168940       5.36826269       1.26658160       0.00000000 NULL
P        0.70539891       5.36826269      15.85399007       0.00000000 NULL
P        0.70539891       7.39262731      15.85399007       0.00000000 NULL
P        3.89168940       7.39262731       1.26658160       0.00000000 NULL
P        0.88895943       9.31635828      12.61831843       0.00000000 NULL
P        3.70812888       9.31635828       4.50225324       0.00000000 NULL
P        3.70812888       3.44453172       4.50225324       0.00000000 NULL
P        0.88895943       3.44453172      12.61831843       0.00000000 NULL
P        0.49404278      11.49510031      15.52018342       0.00000000 NULL
P        4.10304553      11.49510031       1.60038825       0.00000000 NULL
P        4.10304553       1.26578969       1.60038825       0.00000000 NULL
P        0.49404278       1.26578969      15.52018342       0.00000000 NULL
P        1.21097360       9.89726589      14.54542710       0.00000000 NULL
P        3.38611471       9.89726589       2.57514457       0.00000000 NULL
P        3.38611471       2.86362411       2.57514457       0.00000000 NULL
P        1.21097360       2.86362411      14.54542710       0.00000000 NULL
P        0.07478281       1.00788061       4.38250339       0.00000000 NULL
P        4.52230550       1.00788061      12.73806828       0.00000000 NULL
P        4.52230550      11.75300939      12.73806828       0.00000000 NULL
P        0.07478281      11.75300939       4.38250339       0.00000000 NULL
P        1.11267549      11.75090512      11.48585425       0.00000000 NULL
P        3.48441282      11.75090512       5.63471742       0.00000000 NULL
P        3.48441282       1.00998488       5.63471742       0.00000000 NULL
P        1.11267549       1.00998488      11.48585425       0.00000000 NULL
P        4.60350251       2.48825998      11.36000093       0.00000000 NULL
P       -0.00641420       2.48825998       5.76057074       0.00000000 NULL
P       -0.00641420      10.27263002       5.76057074       0.00000000 NULL
P        4.60350251      10.27263002      11.36000093       0.00000000 NULL
52
Lattice="5.145842856067179 0.0 0.008496388246594943 0.0 12.94341715908377 0.0 -0.4542377710032735 0.0 17.25926764189867" Properties=species:S:1:pos:R:3:initial_magmoms:R:1:castep_labels:S:1 n_minim_iter=2 pbc="T T T"
P        0.75316541       5.34548811       8.96237148       0.00000000 NULL
P        3.93843967       5.34548811       8.30539256       0.00000000 NULL
P        3.93843967       7.59792905       8.30539256       0.00000000 NULL
P        0.75316541       7.59792905       8.96237148       0.00000000 NULL
P        4.01824152       5.45257874      15.07693661       0.00000000 NULL
P        0.67336356       5.45257874       2.19082743       0.00000000 NULL
P        0.67336356       7.49083842       2.19082743       0.00000000 NULL
P        4.01824152       7.49083842      15.07693661       0.00000000 NULL
P        1.27944630       8.83989097       6.08741826       0.00000000 NULL
P        3.41215878       8.83989097      11.18034578       0.00000000 NULL
P        3.41215878       4.10352619      11.18034578       0.00000000 NULL
P        1.27944630       4.10352619       6.08741826       0.00000000 NULL
P        3.16789057      10.48502326       7.99449652       0.00000000 NULL
P        1.52371451      10.48502326       9.27326752       0.00000000 NULL
P        1.52371451       2.45839390       9.27326752       0.00000000 NULL
P        3.16789057       2.45839390       7.99449652       0.00000000 NULL
P        1.05008333       1.01463352       1.52575931       0.00000000 NULL
P        3.64152175       1.01463352      15.74200473       0.00000000 NULL
P        3.64152175      11.92878364      15.74200473       0.00000000 NULL
P        1.05008333      11.92878364       1.52575931       0.00000000 NULL
P        2.58513059       5.45281382       9.84613368       0.00000000 NULL
P        2.10647449       5.45281382       7.42163036       0.00000000 NULL
P        2.10647449       7.49060334       7.42163036       0.00000000 NULL
P        2.58513059       7.49060334       9.84613368       0.00000000 NULL
P        3.94936338       5.44474128       1.28333559       0.00000000 NULL
P        0.74224170       5.44474128      15.98442844       0.00000000 NULL
P        0.74224170       7.49867588      15.98442844       0.00000000 NULL
P        3.94936338       7.49867588       1.28333559       0.00000000 NULL
P        0.92297403       9.44947021      12.72254607       0.00000000 NULL
P        3.76863105       9.44947021       4.54521797       0.00000000 NULL
P        3.76863105       3.49394695       4.54521797       0.00000000 NULL
P        0.92297403       3.49394695      12.72254607       0.00000000 NULL
P        0.52725992      11.65966527      15.64756435       0.00000000 NULL
P        4.16434516      11.65966527       1.62019969       0.00000000 NULL
P        4.16434516       1.28375189       1.62019969       0.00000000 NULL
P        0.52725992       1.28375189      15.64756435       0.00000000 NULL
P        1.25283351      10.03865626      14.66603818       0.00000000 NULL
P        3.43877157      10.03865626       2.60172586       0.00000000 NULL
P        3.43877157       2.90476090       2.60172586       0.00000000 NULL
P        1.25283351       2.90476090      14.66603818       0.00000000 NULL
P        0.08345428       1.02244406       4.41797750       0.00000000 NULL
P        4.60815080       1.02244406      12.84978654       0.00000000 NULL
P        4.60815080      11.92097310      12.84978654       0.00000000 NULL
P        0.08345428      11.92097310       4.41797750       0.00000000 NULL
P        1.14820944      11.91867513      11.58117587       0.00000000 NULL
P        3.54339564      11.91867513       5.68658817       0.00000000 NULL
P        3.54339564       1.02474203       5.68658817       0.00000000 NULL
P        1.14820944       1.02474203      11.58117587       0.00000000 NULL
P        4.68835265       2.52391701      11.46001760       0.00000000 NULL
P        0.00325243       2.52391701       5.80774644       0.00000000 NULL
P        0.00325243      10.41950014       5.80774644       0.00000000 NULL
P        4.68835265      10.41950014      11.46001760       0.00000000 NULL
52
Lattice="5.505517074288293 0.0 0.05761101219727195 0.0 13.848988644357595 0.0 -0.322243137626763 0.0 17.91998054664912" Properties=species:S:1:pos:R:3:initial_magmoms:R:1:castep_labels:S:1 n_minim_iter=3 pbc="T T T"
P        0.88984482       5.71827931       9.31609801       0.00000000 NULL
P        4.29342911       5.71827931       8.66149355       0.00000000 NULL
P        4.29342911       8.13070933       8.66149355       0.00000000 NULL
P        0.88984482       8.13070933       9.31609801       0.00000000 NULL
P        4.44114757       5.83258944      15.69544172       0.00000000 NULL
P        0.74212636       5.83258944       2.28214985       0.00000000 NULL
P        0.74212636       8.01639920       2.28214985       0.00000000 NULL
P        4.44114757       8.01639920      15.69544172       0.00000000 NULL
P        1.42759314       9.45792369       6.33287401       0.00000000 NULL
P        3.75568080       9.45792369      11.64471756       0.00000000 NULL
P        3.75568080       4.39106495      11.64471756       0.00000000 NULL
P        1.42759314       4.39106495       6.33287401       0.00000000 NULL
P        3.46517208      11.21858966       8.33276728       0.00000000 NULL
P        1.71810186      11.21858966       9.64482429       0.00000000 NULL
P        1.71810186       2.63039899       9.64482429       0.00000000 NULL
P        3.46517208       2.63039899       8.33276728       0.00000000 NULL
P        1.13897149       1.08696946       1.59451252       0.00000000 NULL
P        4.04430245       1.08696946      16.38307905       0.00000000 NULL
P        4.04430245      12.76201918      16.38307905       0.00000000 NULL
P        1.13897149      12.76201918       1.59451252       0.00000000 NULL
P        2.86038678       5.83235048      10.25235377       0.00000000 NULL
P        2.32288716       5.83235048       7.72523780       0.00000000 NULL
P        2.32288716       8.01663816       7.72523780       0.00000000 NULL
P        2.86038678       8.01663816      10.25235377       0.00000000 NULL
P        4.23663359       5.82417253       1.36985172       0.00000000 NULL
P        0.94664034       5.82417253      16.60773985       0.00000000 NULL
P        0.94664034       8.02481612      16.60773985       0.00000000 NULL
P        4.23663359       8.02481612       1.36985172       0.00000000 NULL
P        1.10892834      10.10989889      13.22111109       0.00000000 NULL
P        4.07434560      10.10989889       4.75648047       0.00000000 NULL
P        4.07434560       3.73908976       4.75648047       0.00000000 NULL
P        1.10892834       3.73908976      13.22111109       0.00000000 NULL
P        0.71325059      12.47623586      16.25595104       0.00000000 NULL
P        4.47002334      12.47623586       1.72164052       0.00000000 NULL
P        4.47002334       1.37275279       1.72164052       0.00000000 NULL
P        0.71325059       1.37275279      16.25595104       0.00000000 NULL
P        1.48027926      10.74008770      15.24338890       0.00000000 NULL
P        3.70299467      10.74008770       2.73420267       0.00000000 NULL
P        3.70299467       3.10890095       2.73420267       0.00000000 NULL
P        1.48027926       3.10890095      15.24338890       0.00000000 NULL
P        0.13253053       1.09476708       4.58717768       0.00000000 NULL
P        5.05074340       1.09476708      13.39041389       0.00000000 NULL
P        5.05074340      12.75422157      13.39041389       0.00000000 NULL
P        0.13253053      12.75422157       4.58717768       0.00000000 NULL
P        1.34020779      12.75083741      12.03772466       0.00000000 NULL
P        3.84306614      12.75083741       5.93986691       0.00000000 NULL
P        3.84306614       1.09815124       5.93986691       0.00000000 NULL
P        1.34020779       1.09815124      12.03772466       0.00000000 NULL
P        5.12414870       2.70094040      11.94478039       0.00000000 NULL
P        0.05912523       2.70094040       6.03281118       0.00000000 NULL
P        0.05912523      11.14804825       6.03281118       0.00000000 NULL
P        5.12414870      11.14804825      11.94478039       0.00000000 NULL
52
Lattice="5.576996982548512 0.0 0.09921690149850919 0.0 14.028687692523029 0.0 -0.18854285115967667 0.0 18.019476716127794" Properties=species:S:1:pos:R:3:initial_magmoms:R:1:castep_labels:S:1 n_minim_iter=4 pbc="T T T"
P        0.97282890       5.79234940       9.37673651       0.00000000 NULL
P        4.41562523       5.79234940       8.74195712       0.00000000 NULL
P        4.41562523       8.23633830       8.74195712       0.00000000 NULL
P        0.97282890       8.23633830       9.37673651       0.00000000 NULL
P        4.61942394       5.90821439      15.81799314       0.00000000 NULL
P        0.76903019       5.90821439       2.30070049       0.00000000 NULL
P        0.76903019       8.12047331       2.30070049       0.00000000 NULL
P        4.61942394       8.12047331      15.81799314       0.00000000 NULL
P        1.49532945       9.58045839       6.37872631       0.00000000 NULL
P        3.89312468       9.58045839      11.73996731       0.00000000 NULL
P        3.89312468       4.44822930      11.73996731       0.00000000 NULL
P        1.49532945       4.44822930       6.37872631       0.00000000 NULL
P        3.57336356      11.36443445       8.40694240       0.00000000 NULL
P        1.81509057      11.36443445       9.71175122       0.00000000 NULL
P        1.81509057       2.66425324       9.71175122       0.00000000 NULL
P        3.57336356       2.66425324       8.40694240       0.00000000 NULL
P        1.16557122       1.10118637       1.61211123       0.00000000 NULL
P        4.22288291       1.10118637      16.50658239       0.00000000 NULL
P        4.22288291      12.92750132      16.50658239       0.00000000 NULL
P        1.16557122      12.92750132       1.61211123       0.00000000 NULL
P        2.97721745       5.90704089      10.33383387       0.00000000 NULL
P        2.41123668       5.90704089       7.78485976       0.00000000 NULL
P        2.41123668       8.12164680       7.78485976       0.00000000 NULL
P        2.97721745       8.12164680      10.33383387       0.00000000 NULL
P        4.30208404       5.89983017       1.40951819       0.00000000 NULL
P        1.08637008       5.89983017      16.70917544       0.00000000 NULL
P        1.08637008       8.12885753      16.70917544       0.00000000 NULL
P        4.30208404       8.12885753       1.40951819       0.00000000 NULL
P        1.22510355      10.24109207      13.30431488       0.00000000 NULL
P        4.16335058      10.24109207       4.81437875       0.00000000 NULL
P        4.16335058       3.78759562       4.81437875       0.00000000 NULL
P        1.22510355       3.78759562      13.30431488       0.00000000 NULL
P        0.84732143      12.63881375      16.35369079       0.00000000 NULL
P        4.54113270      12.63881375       1.76500284       0.00000000 NULL
P        4.54113270       1.38987394       1.76500284       0.00000000 NULL
P        0.84732143       1.38987394      16.35369079       0.00000000 NULL
P        1.61669195      10.87917329      15.34125439       0.00000000 NULL
P        3.77176218      10.87917329       2.77743924       0.00000000 NULL
P        3.77176218       3.14951440       2.77743924       0.00000000 NULL
P        1.61669195       3.14951440      15.34125439       0.00000000 NULL
P        0.16999415       1.10958068       4.61358433       0.00000000 NULL
P        5.21845997       1.10958068      13.50510930       0.00000000 NULL
P        5.21845997      12.91910702      13.50510930       0.00000000 NULL
P        0.16999415      12.91910702       4.61358433       0.00000000 NULL
P        1.45093512      12.91525718      12.11623011       0.00000000 NULL
P        3.93751900      12.91525718       6.00246351       0.00000000 NULL
P        3.93751900       1.11343051       6.00246351       0.00000000 NULL
P        1.45093512       1.11343051      12.11623011       0.00000000 NULL
P        5.28220426       2.73646475      12.05062632       0.00000000 NULL
P        0.10624986       2.73646475       6.06806731       0.00000000 NULL
P        0.10624986      11.29222294       6.06806731       0.00000000 NULL
P        5.28220426      11.29222294      12.05062632       0.00000000 NULL
52
Lattice="5.597270529377034 0.0 0.14119643609679258 0.0 14.077512816750387 0.0 -0.04877616373521335 0.0 18.03223254875025" Properties=species:S:1:pos:R:3:initial_magmoms:R:1:castep_labels:S:1 n_minim_iter=5 pbc="T T T"
P        1.04929357       5.81261281       9.39275115       0.00000000 NULL
P        4.49920079       5.81261281       8.78067784       0.00000000 NULL
P        4.49920079       8.26490001       8.78067784       0.00000000 NULL
P        1.04929357       8.26490001       9.39275115       0.00000000 NULL
P        4.75947427       5.92910415      15.86527793       0.00000000 NULL
P        0.78902009       5.92910415       2.30815107       0.00000000 NULL
P        0.78902009       8.14840867       2.30815107       0.00000000 NULL
P        4.75947427       8.14840867      15.86527793       0.00000000 NULL
P        1.55091876       9.61361733       6.39395657       0.00000000 NULL
P        3.99757560       9.61361733      11.77947242       0.00000000 NULL
P        3.99757560       4.46389549      11.77947242       0.00000000 NULL
P        1.55091876       4.46389549       6.39395657       0.00000000 NULL
P        3.65051097      11.40437936       8.44149798       0.00000000 NULL
P        1.89798340      11.40437936       9.73193102       0.00000000 NULL
P        1.89798340       2.67313346       9.73193102       0.00000000 NULL
P        3.65051097       2.67313346       8.44149798       0.00000000 NULL
P        1.18147905       1.10485998       1.62211819       0.00000000 NULL
P        4.36701531       1.10485998      16.55131080       0.00000000 NULL
P        4.36701531      12.97265284      16.55131080       0.00000000 NULL
P        1.18147905      12.97265284       1.62211819       0.00000000 NULL
P        3.06939128       5.92653937      10.36647142       0.00000000 NULL
P        2.47910308       5.92653937       7.80695757       0.00000000 NULL
P        2.47910308       8.15097345       7.80695757       0.00000000 NULL
P        3.06939128       8.15097345      10.36647142       0.00000000 NULL
P        4.32877030       5.92089796       1.44325025       0.00000000 NULL
P        1.21972406       5.92089796      16.73017875       0.00000000 NULL
P        1.21972406       8.15661486      16.73017875       0.00000000 NULL
P        4.32877030       8.15661486       1.44325025       0.00000000 NULL
P        1.33307797      10.27695087      13.32361945       0.00000000 NULL
P        4.21541639      10.27695087       4.84980954       0.00000000 NULL
P        4.21541639       3.80056195       4.84980954       0.00000000 NULL
P        1.33307797       3.80056195      13.32361945       0.00000000 NULL
P        0.97728298      12.68363331      16.37273267       0.00000000 NULL
P        4.57121138      12.68363331       1.80069632       0.00000000 NULL
P        4.57121138       1.39387951       1.80069632       0.00000000 NULL
P        0.97728298       1.39387951      16.37273267       0.00000000 NULL
P        1.74182098      10.91681359      15.36542950       0.00000000 NULL
P        3.80667338      10.91681359       2.80799950       0.00000000 NULL
P        3.80667338       3.16069922       2.80799950       0.00000000 NULL
P        1.74182098       3.16069922      15.36542950       0.00000000 NULL
P        0.20697113       1.11417071       4.61785380       0.00000000 NULL
P        5.34152323       1.11417071      13.55557520       0.00000000 NULL
P        5.34152323      12.96334211      13.55557520       0.00000000 NULL
P        0.20697113      12.96334211       4.61785380       0.00000000 NULL
P        1.55129870      12.95907206      12.13676818       0.00000000 NULL
P        3.99719567      12.95907206       6.03666082       0.00000000 NULL
P        3.99719567       1.11844076       6.03666082       0.00000000 NULL
P        1.55129870       1.11844076      12.13676818       0.00000000 NULL
P        5.39479013       2.74661845      12.09933237       0.00000000 NULL
P        0.15370424       2.74661845       6.07409662       0.00000000 NULL
P        0.15370424      11.33089437       6.07409662       0.00000000 NULL
P        5.39479013      11.33089437      12.09933237       0.00000000 NULL
52
Lattice="5.597071246354504 0.0 0.1870124718405338 0.0 14.073454248170943 0.0 0.10585891725315928 0.0 18.0214505582484" Properties=species:S:1:pos:R:3:initial_magmoms:R:1:castep_labels:S:1 n_minim_iter=6 pbc="T T T"
P        1.12955620       5.81124126       9.39818868       0.00000000 NULL
P        4.57337396       5.81124126       8.81027436       0.00000000 NULL
P        4.57337396       8.26221299       8.81027436       0.00000000 NULL
P        1.12955620       8.26221299       9.39818868       0.00000000 NULL
P        4.89550909       5.92810079      15.89549088       0.00000000 NULL
P        0.80742107       5.92810079       2.31297216       0.00000000 NULL
P        0.80742107       8.14535346       2.31297216       0.00000000 NULL
P        4.89550909       8.14535346      15.89549088       0.00000000 NULL
P        1.60631751       9.61058430       6.40146015       0.00000000 NULL
P        4.09661265       9.61058430      11.80700288       0.00000000 NULL
P        4.09661265       4.46286995      11.80700288       0.00000000 NULL
P        1.60631751       4.46286995       6.40146015       0.00000000 NULL
P        3.72077994      11.40170802       8.46820171       0.00000000 NULL
P        1.98215022      11.40170802       9.74026133       0.00000000 NULL
P        1.98215022       2.67174622       9.74026133       0.00000000 NULL
P        3.72077994       2.67174622       8.46820171       0.00000000 NULL
P        1.19386014       1.10420738       1.63085720       0.00000000 NULL
P        4.50907002       1.10420738      16.57760584       0.00000000 NULL
P        4.50907002      12.96924687      16.57760584       0.00000000 NULL
P        1.19386014      12.96924687       1.63085720       0.00000000 NULL
P        3.15917139       5.92329515      10.38905352       0.00000000 NULL
P        2.54375877       5.92329515       7.81940952       0.00000000 NULL
P        2.54375877       8.15015910       7.81940952       0.00000000 NULL
P        3.15917139       8.15015910      10.38905352       0.00000000 NULL
P        4.34129135       5.92021164       1.47851748       0.00000000 NULL
P        1.36163881       5.92021164      16.72994556       0.00000000 NULL
P        1.36163881       8.15324261      16.72994556       0.00000000 NULL
P        4.34129135       8.15324261       1.47851748       0.00000000 NULL
P        1.44689223      10.27446148      13.32631111       0.00000000 NULL
P        4.25603793      10.27446148       4.88215193       0.00000000 NULL
P        4.25603793       3.79899277       4.88215193       0.00000000 NULL
P        1.44689223       3.79899277      13.32631111       0.00000000 NULL
P        1.11666998      12.68123907      16.37100751       0.00000000 NULL
P        4.58626017      12.68123907       1.83745553       0.00000000 NULL
P        4.58626017       1.39221518       1.83745553       0.00000000 NULL
P        1.11666998       1.39221518      16.37100751       0.00000000 NULL
P        1.87297789      10.91335157      15.37070447       0.00000000 NULL
P        3.82995227      10.91335157       2.83775857       0.00000000 NULL
P        3.82995227       3.16010268       2.83775857       0.00000000 NULL
P        1.87297789       3.16010268      15.37070447       0.00000000 NULL
P        0.24721703       1.11497787       4.61592938       0.00000000 NULL
P        5.45571313       1.11497787      13.59253366       0.00000000 NULL
P        5.45571313      12.95847637      13.59253366       0.00000000 NULL
P        0.24721703      12.95847637       4.61592938       0.00000000 NULL
P        1.65635214      12.95363591      12.14267648       0.00000000 NULL
P        4.04657801      12.95363591       6.06578656       0.00000000 NULL
P        4.04657801       1.11981834       6.06578656       0.00000000 NULL
P        1.65635214       1.11981834      12.14267648       0.00000000 NULL
P        5.49755118       2.74682909      12.13600101       0.00000000 NULL
P        0.20537898       2.74682909       6.07246203       0.00000000 NULL
P        0.20537898      11.32662516       6.07246203       0.00000000 NULL
P        5.49755118      11.32662516      12.13600101       0.00000000 NULL
52
Lattice="5.595915979760509 0.0 0.2357569381188697 0.0 14.059051013466537 0.0 0.2704663510167131 0.0 18.04599424829064" Properties=species:S:1:pos:R:3:initial_magmoms:R:1:castep_labels:S:1 n_minim_iter=7 pbc="T T T"
P        1.21463187       5.80594031       9.42506539       0.00000000 NULL
P        4.65175046       5.80594031       8.85668580       0.00000000 NULL
P        4.65175046       8.25311070       8.85668580       0.00000000 NULL
P        1.21463187       8.25311070       9.42506539       0.00000000 NULL
P        5.04073710       5.92345270      15.95949586       0.00000000 NULL
P        0.82564522       5.92345270       2.32225534       0.00000000 NULL
P        0.82564522       8.13559831       2.32225534       0.00000000 NULL
P        5.04073710       8.13559831      15.95949586       0.00000000 NULL
P        1.66586439       9.60024429       6.42084189       0.00000000 NULL
P        4.20051794       9.60024429      11.86090930       0.00000000 NULL
P        4.20051794       4.45880672      11.86090930       0.00000000 NULL
P        1.66586439       4.45880672       6.42084189       0.00000000 NULL
P        3.79446789      11.39121588       8.51442425       0.00000000 NULL
P        2.07191444      11.39121588       9.76732695       0.00000000 NULL
P        2.07191444       2.66783514       9.76732695       0.00000000 NULL
P        3.79446789       2.66783514       8.51442425       0.00000000 NULL
P        1.20582259       1.10256306       1.64337579       0.00000000 NULL
P        4.66055974       1.10256306      16.63837540       0.00000000 NULL
P        4.66055974      12.95648796      16.63837540       0.00000000 NULL
P        1.20582259      12.95648796       1.64337579       0.00000000 NULL
P        3.25516048       5.91433141      10.43685229       0.00000000 NULL
P        2.61122185       5.91433141       7.84489891       0.00000000 NULL
P        2.61122185       8.14471960       7.84489891       0.00000000 NULL
P        3.25516048       8.14471960      10.43685229       0.00000000 NULL
P        4.35514839       5.91612317       1.51942256       0.00000000 NULL
P        1.51123394       5.91612317      16.76232864       0.00000000 NULL
P        1.51123394       8.14292784      16.76232864       0.00000000 NULL
P        4.35514839       8.14292784       1.51942256       0.00000000 NULL
P        1.56766883      10.26502476      13.35519253       0.00000000 NULL
P        4.29871350      10.26502476       4.92655867       0.00000000 NULL
P        4.29871350       3.79402625       4.92655867       0.00000000 NULL
P        1.56766883       3.79402625      13.35519253       0.00000000 NULL
P        1.26429866      12.67070622      16.40163297       0.00000000 NULL
P        4.60208366      12.67070622       1.88011823       0.00000000 NULL
P        4.60208366       1.38834479       1.88011823       0.00000000 NULL
P        1.26429866       1.38834479      16.40163297       0.00000000 NULL
P        2.01221013      10.90151572      15.40662008       0.00000000 NULL
P        3.85417220      10.90151572       2.87513111       0.00000000 NULL
P        3.85417220       3.15753529       2.87513111       0.00000000 NULL
P        2.01221013       3.15753529      15.40662008       0.00000000 NULL
P        0.29093026       1.11607455       4.62206328       0.00000000 NULL
P        5.57545206       1.11607455      13.65968791       0.00000000 NULL
P        5.57545206      12.94297646      13.65968791       0.00000000 NULL
P        0.29093026      12.94297646       4.62206328       0.00000000 NULL
P        1.76943209      12.93704611      12.17319786       0.00000000 NULL
P        4.09695024      12.93704611       6.10855333       0.00000000 NULL
P        4.09695024       1.12200491       6.10855333       0.00000000 NULL
P        1.76943209       1.12200491      12.17319786       0.00000000 NULL
P        5.60629223       2.74599744      12.19847840       0.00000000 NULL
P        0.26009009       2.74599744       6.08327280       0.00000000 NULL
P        0.26009009      11.31305358       6.08327280       0.00000000 NULL
P        5.60629223      11.31305358      12.19847840       0.00000000 NULL
52
Lattice="5.590100212572811 0.0 0.25159125088133844 0.0 14.029300989282266 0.0 0.3244485327562491 0.0 18.099417507376028" Properties=species:S:1:pos:R:3:initial_magmoms:R:1:castep_labels:S:1 n_minim_iter=8 pbc="T T T"
P        1.24119403       5.79451650       9.46194886       0.00000000 NULL
P        4.67335471       5.79451650       8.88905991       0.00000000 NULL
P        4.67335471       8.23478449       8.88905991       0.00000000 NULL
P        1.24119403       8.23478449       9.46194886       0.00000000 NULL
P        5.08600986       5.91256162      16.02075584       0.00000000 NULL
P        0.82853888       5.91256162       2.33025293       0.00000000 NULL
P        0.82853888       8.11673937       2.33025293       0.00000000 NULL