30
Lattice="6.662899999999997 9.493375298670756e-16 0.0 -3.331449999999999 5.7702406628753335 0.0 0.0 0.0 17.632979999999996" Properties=species:S:1:pos:R:3:initial_magmoms:R:1:castep_labels:S:1 n_minim_iter=1 pbc="T T T"
P       -1.47767098       4.52194892      11.41550485       0.00000000 NULL
P        1.32350813       4.78896681       5.53784485       0.00000000 NULL
P        0.15416285       2.22956560      17.29316485       0.00000000 NULL
P       -3.21831796       5.76370760       3.69087718       0.00000000 NULL
P        3.26922618       5.67553198      15.44619718       0.00000000 NULL
P       -0.05090822       0.10124176       9.56853718       0.00000000 NULL
P        0.01491657       4.51928422       2.04053076       0.00000000 NULL
P        0.57490665       3.49768043      13.79585076       0.00000000 NULL
P       -0.58982323       3.52351669       7.91819076       0.00000000 NULL
P        0.98568344       5.56159915      13.07367679       0.00000000 NULL
P        0.99219443       2.13581419       7.19601679       0.00000000 NULL
P       -1.97787787       3.84306799       1.31835679       0.00000000 NULL
P       -2.62270100       4.92661474       7.79460591       0.00000000 NULL
P        2.24647402       5.57825899       1.91694591       0.00000000 NULL
P        0.37622698       1.03560760      13.67226591       0.00000000 NULL
P        2.79651641       1.27885959       6.81343108       0.00000000 NULL
P        3.04071668       2.70895662       0.93577108       0.00000000 NULL
P        4.15711690       1.78242446      12.69109108       0.00000000 NULL
P        2.56173580       4.00925438       3.14750104       0.00000000 NULL
P        5.52269824       1.54708519      14.90282104       0.00000000 NULL
P        1.90991596       0.21390109       9.02516104       0.00000000 NULL
P        0.15599048       5.60935366      10.20231527       0.00000000 NULL
P        1.44839752       2.83047212       4.32465527       0.00000000 NULL
P       -1.60438801       3.10065556      16.07997527       0.00000000 NULL
P        3.26932612       5.02643529       5.94482520       0.00000000 NULL
P        6.04980759       0.42570355       0.06716520       0.00000000 NULL
P        0.67521629       0.31810183      11.82248520       0.00000000 NULL
P        2.30471510       4.47276281      14.14761696       0.00000000 NULL
P       -0.61028134       1.53791743       8.26995696       0.00000000 NULL
P       -1.69443377       5.52980109       2.39229696       0.00000000 NULL
30
Lattice="6.705602026106201 -6.255422802269097e-16 0.0 -3.3528010130530994 5.807221702276373 0.0 0.0 0.0 17.730912210308585" Properties=species:S:1:pos:R:3:initial_magmoms:R:1:castep_labels:S:1 n_minim_iter=2 pbc="T T T"
P       -1.48693551       4.55074158      11.47886935       0.00000000 NULL
P        1.33172455       4.81957484       5.56856528       0.00000000 NULL
P        0.15521096       2.24412699      17.38917342       0.00000000 NULL
P       -3.23900007       5.80094304       3.71174775       0.00000000 NULL
P        3.29046306       5.71180653      15.53235589       0.00000000 NULL
P       -0.05146299       0.10169384       9.62205182       0.00000000 NULL
P        0.01524268       4.54810299       2.05184722       0.00000000 NULL
P        0.57835037       3.51996966      13.87245536       0.00000000 NULL
P       -0.59359306       3.54637076       7.96215129       0.00000000 NULL
P        0.99175501       5.59717309      13.14610818       0.00000000 NULL
P        0.99861556       2.14975012       7.23580411       0.00000000 NULL
P       -1.99037058       3.86752020       1.32550004       0.00000000 NULL
P       -2.63956737       4.95768616       7.83789323       0.00000000 NULL
P        2.26046483       5.61431102       1.92758916       0.00000000 NULL
P        0.37910254       1.04244622      13.74819730       0.00000000 NULL
P        2.81457922       1.28698119       6.85134032       0.00000000 NULL
P        3.06006980       2.72623400       0.94103625       0.00000000 NULL
P        4.18375401       1.79400652      12.76164439       0.00000000 NULL
P        2.57828499       4.03447047       3.16486834       0.00000000 NULL
P        5.55761243       1.55712617      14.98547648       0.00000000 NULL
P        1.92250562       0.21562507       9.07517241       0.00000000 NULL
P        0.15712629       5.64517693      10.25915895       0.00000000 NULL
P        1.45750247       2.84855788       4.34885488       0.00000000 NULL
P       -1.61462876       3.12070860      16.16946302       0.00000000 NULL
P        3.29043262       5.05864252       5.97764942       0.00000000 NULL
P        6.08849763       0.42830221       0.06734535       0.00000000 NULL
P        0.67947279       0.32027698      11.88795349       0.00000000 NULL
P        2.31967340       4.50109104      14.22611273       0.00000000 NULL
P       -0.61457853       1.54778009       8.31580866       0.00000000 NULL
P       -1.70509487       5.56557228       2.40550459       0.00000000 NULL
30
Lattice="7.089113208982007 1.6694220596192037e-15 0.0 -3.544556604491005 6.13935212928224 0.0 0.0 0.0 18.619396435347856" Properties=species:S:1:pos:R:3:initial_magmoms:R:1:castep_labels:S:1 n_minim_iter=3 pbc="T T T"
P       -1.56999517       4.80935654      12.05367439       0.00000000 NULL
P        1.40546591       5.09432956       5.84720891       0.00000000 NULL
P        0.16452925       2.37501817      18.26013987       0.00000000 NULL
P       -3.42485290       6.13548750       3.90123301       0.00000000 NULL
P        3.48135787       6.03761799      16.31416397       0.00000000 NULL
P       -0.05650498       0.10559877      10.10769849       0.00000000 NULL
P        0.01819031       4.80683527       2.15448506       0.00000000 NULL
P        0.60918969       3.72018123      14.56741602       0.00000000 NULL
P       -0.62738000       3.75168777       8.36095054       0.00000000 NULL
P        1.04613806       5.91658775      13.80318256       0.00000000 NULL
P        1.05628966       2.27507612       7.59671708       0.00000000 NULL
P       -2.10242772       4.08704039       1.39025160       0.00000000 NULL
P       -2.79107801       5.23632474       8.23073579       0.00000000 NULL
P        2.38577264       5.93833422       2.02427031       0.00000000 NULL
P        0.40530536       1.10404530      14.43720127       0.00000000 NULL
P        2.97677236       1.35989355       7.19542178       0.00000000 NULL
P        3.23387278       2.88144487       0.98895630       0.00000000 NULL
P        4.42302466       1.89801371      13.40188726       0.00000000 NULL
P        2.72705387       4.26057780       3.32229409       0.00000000 NULL
P        5.87079828       1.64736530      15.73522504       0.00000000 NULL
P        2.03581766       0.23140903       9.52875956       0.00000000 NULL
P        0.16726163       5.96674302      10.77501462       0.00000000 NULL
P        1.53916361       3.01112780       4.56854914       0.00000000 NULL
P       -1.70642524       3.30083344      16.98148010       0.00000000 NULL
P        3.48000956       5.34788289       6.27530935       0.00000000 NULL
P        6.43595426       0.45163401       0.06884388       0.00000000 NULL
P        0.71770599       0.33983524      12.48177483       0.00000000 NULL
P        2.45404042       4.75525881      14.93812993       0.00000000 NULL
P       -0.65340189       1.63646138       8.73166445       0.00000000 NULL
P       -1.80063854       5.88698408       2.52519897       0.00000000 NULL
30
Lattice="7.163633591935549 -8.34888807940808e-16 0.0 -3.581816795967774 6.203888674019754 0.0 0.0 0.0 18.87217114882747" Properties=species:S:1:pos:R:3:initial_magmoms:R:1:castep_labels:S:1 n_minim_iter=4 pbc="T T T"
P       -1.58513941       4.86050419      12.21655349       0.00000000 NULL
P        1.42007301       5.14640758       5.92582977       0.00000000 NULL
P        0.16506640       2.40086558      18.50727721       0.00000000 NULL
P       -3.46178611       6.20093755       3.95565382       0.00000000 NULL
P        3.51924570       6.10141461      16.53710125       0.00000000 NULL
P       -0.05745960       0.10542519      10.24637754       0.00000000 NULL
P        0.01820205       4.85675730       2.18347973       0.00000000 NULL
P        0.61515737       3.75974658      14.76492717       0.00000000 NULL
P       -0.63335943       3.79127347       8.47420345       0.00000000 NULL
P        1.05594968       5.97800229      13.99006311       0.00000000 NULL
P        1.06731021       2.30040829       7.69933940       0.00000000 NULL
P       -2.12325989       4.12936678       1.40861568       0.00000000 NULL
P       -2.82073806       5.28783886       8.34350681       0.00000000 NULL
P        2.40795501       6.00280006       2.05278309       0.00000000 NULL
P        0.41278304       1.11713844      14.63423052       0.00000000 NULL
P        3.00765482       1.37403769       7.29463469       0.00000000 NULL
P        3.26794092       2.91216435       1.00391098       0.00000000 NULL
P        4.46985464       1.91768664      13.58535841       0.00000000 NULL
P        2.75711567       4.30257055       3.36597762       0.00000000 NULL
P        5.92939435       1.66487119      15.94742505       0.00000000 NULL
P        2.05894036       0.23644694       9.65670134       0.00000000 NULL
P        0.16803457       6.02804845      10.92284373       0.00000000 NULL
P        1.55460901       3.04434225       4.63212001       0.00000000 NULL
P       -1.72264358       3.33538666      17.21356744       0.00000000 NULL
P        3.51673164       5.40403865       6.35900071       0.00000000 NULL
P        6.50348573       0.45629041       0.06827699       0.00000000 NULL
P        0.72523301       0.34355962      12.64972443       0.00000000 NULL
P        2.47997293       4.80338756      15.13980638       0.00000000 NULL
P       -0.66194761       1.65447534       8.84908267       0.00000000 NULL
P       -1.81802532       5.94991446       2.55835895       0.00000000 NULL
30
Lattice="7.170467948486088 5.884929688307082e-16 0.0 -3.5852339742430446 6.209807400411041 0.0 0.0 0.0 18.999256668656738" Properties=species:S:1:pos:R:3:initial_magmoms:R:1:castep_labels:S:1 n_minim_iter=5 pbc="T T T"
P       -1.58510715       4.86641835      12.29780700       0.00000000 NULL
P        1.42176151       5.14934129       5.96472144       0.00000000 NULL
P        0.16334563       2.40385517      18.63089255       0.00000000 NULL
P       -3.46625942       6.20749719       3.98349398       0.00000000 NULL
P        3.52374599       6.10792751      16.64966509       0.00000000 NULL
P       -0.05748658       0.10419010      10.31657953       0.00000000 NULL
P        0.01752080       4.86084552       2.19784884       0.00000000 NULL
P        0.61562132       3.76421118      14.86401995       0.00000000 NULL
P       -0.63314213       3.79455811       8.53093439       0.00000000 NULL
P        1.05583039       5.98271137      14.08396311       0.00000000 NULL
P        1.06803085       2.30407577       7.75087755       0.00000000 NULL
P       -2.12386125       4.13282767       1.41779199       0.00000000 NULL
P       -2.82381307       5.28903784       8.40114499       0.00000000 NULL
P        2.40711369       6.01078234       2.06805943       0.00000000 NULL
P        0.41669938       1.11979463      14.73423055       0.00000000 NULL
P        3.00963395       1.37534118       7.34580201       0.00000000 NULL
P        3.27149740       2.91571735       1.01271645       0.00000000 NULL
P        4.47457057       1.91874887      13.67888757       0.00000000 NULL
P        2.76143233       4.30384374       3.38687213       0.00000000 NULL
P        5.93175581       1.66641498      16.05304324       0.00000000 NULL
P        2.06251377       0.23954869       9.71995769       0.00000000 NULL
P        0.16642178       6.03204383      10.99818903       0.00000000 NULL
P        1.55545832       3.04965999       4.66510347       0.00000000 NULL
P       -1.72188011       3.33791098      17.33127459       0.00000000 NULL
P        3.52006796       5.40913482       6.40016153       0.00000000 NULL
P        6.50964816       0.45677172       0.06707597       0.00000000 NULL
P        0.72598580       0.34390087      12.73324709       0.00000000 NULL
P        2.48219784       4.80619288      15.24035632       0.00000000 NULL
P       -0.66404777       1.65706458       8.90727076       0.00000000 NULL
P       -1.81815007       5.95635735       2.57418521       0.00000000 NULL
30
Lattice="7.154491266303576 -1.1073773479841143e-16 0.0 -3.577245633151788 6.195971187772795 0.0 0.0 0.0 19.09575938600806" Properties=species:S:1:pos:R:3:initial_magmoms:R:1:castep_labels:S:1 n_minim_iter=6 pbc="T T T"
P       -1.57953193       4.85737633      12.35889309       0.00000000 NULL
P        1.41913162       5.13519780       5.99363996       0.00000000 NULL
P        0.16040030       2.39936825      18.72414622       0.00000000 NULL
P       -3.46007903       6.19430137       4.00510892       0.00000000 NULL
P        3.51721622       6.09533684      16.73561518       0.00000000 NULL
P       -0.05713720       0.10230417      10.37036205       0.00000000 NULL
P        0.01651875       4.84930234       2.20855228       0.00000000 NULL
P        0.61411400       3.75701436      14.93905854       0.00000000 NULL
P       -0.63063276       3.78562568       8.57380541       0.00000000 NULL
P        1.05211050       5.96801825      14.15516942       0.00000000 NULL
P        1.06515452       2.30080765       7.78991629       0.00000000 NULL
P       -2.11726503       4.12311649       1.42466317       0.00000000 NULL
P       -2.81807615       5.27235287       8.44578141       0.00000000 NULL
P        2.39778396       6.00032029       2.08052829       0.00000000 NULL
P        0.42029218       1.11926922      14.81103454       0.00000000 NULL
P        3.00168379       1.37231976       7.38589347       0.00000000 NULL
P        3.26486751       2.91027690       1.02064035       0.00000000 NULL
P        4.46518560       1.91337454      13.75114660       0.00000000 NULL
P        2.75749055       4.29073414       3.40167844       0.00000000 NULL
P        5.91438512       1.66254725      16.13218470       0.00000000 NULL
P        2.05986123       0.24268980       9.76693157       0.00000000 NULL
P        0.16350559       6.01628055      11.05641006       0.00000000 NULL
P        1.55125336       3.04623092       4.69115693       0.00000000 NULL
P       -1.71475896       3.32943091      17.42166319       0.00000000 NULL
P        3.51225591       5.39702110       6.43059713       0.00000000 NULL
P        6.49507505       0.45575780       0.06534400       0.00000000 NULL
P        0.72440593       0.34319229      12.79585025       0.00000000 NULL
P        2.47651434       4.79336961      15.31591979       0.00000000 NULL
P       -0.66432296       1.65456205       8.95066666       0.00000000 NULL
P       -1.81219139       5.94401072       2.58541353       0.00000000 NULL
30
Lattice="7.074816202260749 9.982061053445735e-16 0.0 -3.5374081011303753 6.126970558263554 0.0 0.0 0.0 19.537648967344317" Properties=species:S:1:pos:R:3:initial_magmoms:R:1:castep_labels:S:1 n_minim_iter=7 pbc="T T T"
P       -1.54950406       4.81340138      12.63634386       0.00000000 NULL
P        1.40587180       5.06217975       6.12379420       0.00000000 NULL
P        0.14363225       2.37835999      19.14889351       0.00000000 NULL
P       -3.43052526       6.12861246       4.10587769       0.00000000 NULL
P        3.48538861       6.03358635      17.13097700       0.00000000 NULL
P       -0.05486335       0.09174231      10.61842734       0.00000000 NULL
P        0.01159140       4.79062897       2.25679316       0.00000000 NULL
P        0.60560258       3.72161763      15.28189247       0.00000000 NULL
P       -0.61719399       3.74169453       8.76934282       0.00000000 NULL
P        1.03242067       5.89311717      14.48060788       0.00000000 NULL
P        1.04997074       2.28630944       7.96805823       0.00000000 NULL
P       -2.08239141       4.07451451       1.45550857       0.00000000 NULL
P       -2.79033602       5.18497477       8.65302062       0.00000000 NULL
P        2.34807977       5.95098505       2.14047096       0.00000000 NULL
P        0.44225624       1.11798130      15.16557027       0.00000000 NULL
P        2.96137392       1.35721505       7.57392355       0.00000000 NULL
P        3.23210384       2.88373799       1.06137389       0.00000000 NULL
P        4.41874653       1.88601753      14.08647320       0.00000000 NULL
P        2.73977731       4.22252037       3.46539928       0.00000000 NULL
P        5.82432936       1.64299363      16.49049860       0.00000000 NULL
P        2.04811764       0.26145657       9.97794894       0.00000000 NULL
P        0.14640187       5.93556431      11.32677978       0.00000000 NULL
P        1.52974044       3.03240067       4.81423013       0.00000000 NULL
P       -1.67614231       3.28597615      17.83932944       0.00000000 NULL
P        3.47434013       5.33669792       6.56743784       0.00000000 NULL
P        6.42195400       0.44975478       0.05488818       0.00000000 NULL
P        0.71593016       0.34051786      13.07998749       0.00000000 NULL
P        2.44921034       4.72823073      15.65932026       0.00000000 NULL
P       -0.66724535       1.64177682       9.14677060       0.00000000 NULL
P       -1.78196500       5.88393357       2.63422095       0.00000000 NULL
30
Lattice="7.109084915826232 -1.790779142138965e-16 0.0 -3.554542457913116 6.156648134766275 0.0 0.0 0.0 19.170014318558263" Properties=species:S:1:pos:R:3:initial_magmoms:R:1:castep_labels:S:1 n_minim_iter=8 pbc="T T T"
P       -1.54542915       4.84264904      12.39156262       0.00000000 NULL
P        1.41202920       5.07370452       6.00155785       0.00000000 NULL
P        0.13339994       2.39694272      18.78156739       0.00000000 NULL
P       -3.45389578       6.15913670       4.03332909       0.00000000 NULL
P        3.50637427       6.06824128      16.81333863       0.00000000 NULL
P       -0.05247850       0.08591830      10.42333386       0.00000000 NULL
P        0.01243956       4.80772672       2.21194041       0.00000000 NULL
P        0.60285123       3.74201180      14.99194995       0.00000000 NULL
P       -0.61529080       3.76355775       8.60194518       0.00000000 NULL
P        1.03133067       5.91304639      14.20560894       0.00000000 NULL
P        1.05064059       2.30696638       7.81560417       0.00000000 NULL
P       -2.08197127       4.09328350       1.42559939       0.00000000 NULL
P       -2.80784869       5.18763613       8.49953772       0.00000000 NULL
P        2.34200655       5.99449837       2.10953295       0.00000000 NULL
P        0.46584213       1.13116178      14.88954250       0.00000000 NULL
P        2.97223373       1.36341582       7.44572697       0.00000000 NULL
P        3.24917833       2.90091031       1.05572219       0.00000000 NULL
P        4.44221531       1.89232201      13.83573174       0.00000000 NULL
P        2.76331995       4.22765798       3.38682190       0.00000000 NULL
P        5.83414169       1.64971387      16.16683145       0.00000000 NULL
P        2.06616573       0.27927629       9.77682667       0.00000000 NULL
P        0.13382945       5.95313735      11.12564374       0.00000000 NULL
P        1.53411100       3.06417976       4.73563896       0.00000000 NULL
P       -1.66794045       3.29597916      17.51564851       0.00000000 NULL
P        3.49626383       5.36296366       6.43637088       0.00000000 NULL
P        6.45087331       0.44731301       0.04636611       0.00000000 NULL
P        0.71649023       0.34637147      12.82637565       0.00000000 NULL
P        2.46670040       4.74452550      15.35707133       0.00000000 NULL
P       -0.67901306       1.64816018       8.96706656       0.00000000 NULL
P       -1.78768735       5.92061061       2.57706179       0.00000000 NULL
30
Lattice="7.118754897637228 -1.0974875612720112e-15 0.0 -3.559377448818613 6.16502258466873 0.0 0.0 0.0 18.931743044121532" Properties=species:S:1:pos:R:3:initial_magmoms:R:1:castep_labels:S:1 n_minim_iter=9 pbc="T T T"
P       -1.52957029       4.86038798      12.22641457       0.00000000 NULL
P        1.41462715       5.05947532       5.91583355       0.00000000 NULL
P        0.11494313       2.41018187      18.53699558       0.00000000 NULL
P       -3.46947645       6.16887647       3.99105811       0.00000000 NULL
P        3.51776450       6.08523909      16.61222014       0.00000000 NULL
P       -0.04828806       0.07592961      10.30163912       0.00000000 NULL
P        0.01046349       4.80515465       2.18148414       0.00000000 NULL
P        0.59677680       3.75338361      14.80264617       0.00000000 NULL
P       -0.60724030       3.77150691       8.49206516       0.00000000 NULL
P        1.02233954       5.90628510      14.02377269       0.00000000 NULL
P        1.04444572       2.32650802       7.71319168       0.00000000 NULL
P       -2.06678526       4.09725205       1.40261066       0.00000000 NULL
P       -2.81508253       5.15409420       8.41181748       0.00000000 NULL
P        2.31174032       6.02590847       2.10123646       0.00000000 NULL
P        0.50334221       1.15004251      14.72239849       0.00000000 NULL
P        2.96809427       1.36300654       7.38097178       0.00000000 NULL
P        3.25572859       2.91307428       1.07039077       0.00000000 NULL
P        4.45430947       1.88894178      13.69155280       0.00000000 NULL
P        2.78697711       4.20840754       3.31699769       0.00000000 NULL
P        5.81047673       1.64722584      15.93815972       0.00000000 NULL
P        2.08067850       0.30938921       9.62757870       0.00000000 NULL
P        0.11286672       5.94168079      11.00764820       0.00000000 NULL
P        1.52983570       3.09643674       4.69706719       0.00000000 NULL
P       -1.64270242       3.29192764      17.31822922       0.00000000 NULL
P        3.50735307       5.37027946       6.34272739       0.00000000 NULL
P        6.45649935       0.44242600       0.03214638       0.00000000 NULL
P        0.71427992       0.35231713      12.65330841       0.00000000 NULL
P        2.47650685       4.73666260      15.15306119       0.00000000 NULL
P       -0.69556074       1.65197344       8.84248018       0.00000000 NULL
P       -1.78094612       5.94140913       2.53189916       0.00000000 NULL
30
Lattice="7.290394986782175 -3.3901793748773886e-17 0.0 -3.6451974933910876 6.3136672621760805 0.0 0.0 0.0 17.56202989349616" Properties=species:S:1:pos:R:3:initial_magmoms:R:1:castep_labels:S:1 n_minim_iter=10 pbc="T T T"
P       -1.51181011       5.01220755      11.31224845       0.00000000 NULL
P        1.45140662       5.11682945       5.45823849       0.00000000 NULL
P        0.06040349       2.49829753      17.16625841       0.00000000 NULL
P       -3.58361091       6.31820695       3.72227376       0.00000000 NULL
P        3.61833568       6.25806188      15.43029369       0.00000000 NULL
P       -0.03472477       0.05106571       9.57628373       0.00000000 NULL
P        0.00421691       4.88821926       2.01983517       0.00000000 NULL
P        0.58601611       3.86590568      13.72785510       0.00000000 NULL
P       -0.59023303       3.87320959       7.87384513       0.00000000 NULL
P        1.01448631       5.99303051      12.98396829       0.00000000 NULL
P        1.03767601       2.43858109       7.12995832       0.00000000 NULL
P       -2.05216233       4.19572293       1.27594836       0.00000000 NULL
P       -2.88186433       5.13356288       7.86624179       0.00000000 NULL
P        2.24153053       6.24265355       2.01223183       0.00000000 NULL
P        0.64033379       1.25111811      13.72025176       0.00000000 NULL
P        3.00902765       1.37964151       6.94839200       0.00000000 NULL
P        3.33548826       3.01795212       1.09438204       0.00000000 NULL
P        4.59107656       1.91607363      12.80240197       0.00000000 NULL
P        2.92509785       4.23004395       2.97443002       0.00000000 NULL
P        5.84597408       1.66543624      14.68244995       0.00000000 NULL
P        2.16452054       0.41818708       8.82843998       0.00000000 NULL
P        0.04683446       6.02019423      10.27115337       0.00000000 NULL
P        1.54502641       3.26301031       4.41714341       0.00000000 NULL
P       -1.59186088       3.34412998      16.12516334       0.00000000 NULL
P        3.61378661       5.49801391       5.84172610       0.00000000 NULL
P        6.59972390       0.43502931      -0.01228386       0.00000000 NULL
P        0.72208197       0.38062406      11.69573607       0.00000000 NULL
P        2.55967686       4.79735618      14.01567626       0.00000000 NULL
P       -0.77040361       1.69824399       8.16166629       0.00000000 NULL
P       -1.78927326       6.13173437       2.30765633       0.00000000 NULL
30
Lattice="6.604914056666484 4.298866588014306e-16 0.0 -3.302457028333242 5.720023362886106 0.0 0.0 0.0 20.093166700874516" Properties=species:S:1:pos:R:3:initial_magmoms:R:1:castep_labels:S:1 n_minim_iter=11 pbc="T T T"
P       -1.39547817       4.53970908      12.96515988       0.00000000 NULL
P        1.32678544       4.65868837       6.26743764       0.00000000 NULL
P        0.06869272       2.24164928      19.66288211       0.00000000 NULL
P       -3.23219893       5.73379244       4.24929567       0.00000000 NULL
P        3.27925234       5.65229353      17.64474013       0.00000000 NULL
P       -0.04705342       0.05396077      10.94701790       0.00000000 NULL
P       -0.01839691       4.42585237       2.31911918       0.00000000 NULL
P        0.53964201       3.52302937      15.71456365       0.00000000 NULL
P       -0.52124510       3.49116499       9.01684141       0.00000000 NULL
P        0.91583947       5.41498835      14.83266322       0.00000000 NULL
P        0.92914071       2.21938895       8.13494098       0.00000000 NULL
P       -1.84498018       3.80566943       1.43721875       0.00000000 NULL
P       -2.58319978       4.61623586       9.03342952       0.00000000 NULL
P        1.98692038       5.64902206       2.33570729       0.00000000 NULL
P        0.59627939       1.17478881      15.73115176       0.00000000 NULL
P        2.71129780       1.24774232       7.98307551       0.00000000 NULL
P        3.02738467       2.74809943       1.28535328       0.00000000 NULL
P        4.16868861       1.72418162      14.68079774       0.00000000 NULL
P        2.65815072       3.83423230       3.37048963       0.00000000 NULL
P        5.29392424       1.50088116      16.76593410       0.00000000 NULL
P        1.95529612       0.38490990      10.06821187       0.00000000 NULL
P        0.05171669       5.45547594      11.74951727       0.00000000 NULL
P        1.39626537       2.94749742       5.05179503       0.00000000 NULL
P       -1.44798207       3.03707337      18.44723950       0.00000000 NULL
P        3.26020346       4.97010141       6.67381213       0.00000000 NULL
P        5.97658938       0.41155364      -0.02391010       0.00000000 NULL
P        0.67057825       0.33836832      13.37153436       0.00000000 NULL
P        2.30670858       4.32631086      16.01482491       0.00000000 NULL
P       -0.70911621       1.55919971       9.31710268       0.00000000 NULL
P       -1.59759237       5.55453617       2.61938045       0.00000000 NULL
30
Lattice="7.279617719166114 1.459458502821915e-15 0.0 -3.639808859583059 6.304333874637187 0.0 0.0 0.0 20.306477170473073" Properties=species:S:1:pos:R:3:initial_magmoms:R:1:castep_labels:S:1 n_minim_iter=12 pbc="T T T"
P       -1.53523891       4.99737160      13.10318947       0.00000000 NULL
P        1.45566134       5.13520397       6.33436375       0.00000000 NULL
P        0.07957756       2.47609219      19.87201520       0.00000000 NULL
P       -3.56208693       6.32009391       4.29524468       0.00000000 NULL
P        3.61459648       6.22914470      17.83289612       0.00000000 NULL
P       -0.05250955       0.05942915      11.06407040       0.00000000 NULL
P       -0.00975955       4.87179080       2.34591851       0.00000000 NULL
P        0.58416551       3.87689050      15.88356996       0.00000000 NULL
P       -0.57440596       3.85998645       9.11474423       0.00000000 NULL
P        1.00874013       5.96599262      14.98327183       0.00000000 NULL
P        1.02252224       2.44774299       8.21444611       0.00000000 NULL
P       -2.03126238       4.19493215       1.44562039       0.00000000 NULL
P       -2.84899097       5.08419862       9.12961967       0.00000000 NULL
P        2.18773178       6.22953312       2.36079394       0.00000000 NULL
P        0.66125918       1.29493602      15.89844539       0.00000000 NULL
P        2.99293549       1.37299049       8.06969773       0.00000000 NULL
P        3.33238575       3.02588047       1.30087200       0.00000000 NULL
P        4.59410533       1.90546293      14.83852345       0.00000000 NULL
P        2.92904926       4.22222508       3.40794647       0.00000000 NULL
P        5.83183841       1.65659027      16.94559791       0.00000000 NULL
P        2.15853891       0.42551853      10.17677219       0.00000000 NULL
P        0.05811428       6.01337749      11.87204618       0.00000000 NULL
P        1.53887167       3.24731669       5.10322046       0.00000000 NULL
P       -1.59698595       3.34797357      18.64087190       0.00000000 NULL
P        3.60042179       5.47860943       6.74498982       0.00000000 NULL
P        6.58421290       0.44697243      -0.02383590       0.00000000 NULL
P        0.73479188       0.37875203      13.51381554       0.00000000 NULL
P        2.55287445       4.76870057      16.18632460       0.00000000 NULL
P       -0.78643026       1.70912947       9.41749887       0.00000000 NULL