42
Lattice="10.73764 -3.491332781216232e-15 -7.652458299401061e-30 5.368820000000002 9.299069016691938 -5.820462842755698e-30 5.36882 3.0996896722306446 9.350143555089604" Properties=species:S:1:pos:R:3:initial_magmoms:R:1:castep_labels:S:1 n_minim_iter=1 pbc="T T T"
P        9.58148502       5.94721959       3.62996977       0.00000000 NULL
P       11.09734073       7.32671881       3.62996977       0.00000000 NULL
P       11.53409425       5.32419964       3.62996977       0.00000000 NULL
P       13.20065543       5.54057347       7.21116638       0.00000000 NULL
P        8.93558966       4.39574834       7.21116638       0.00000000 NULL
P       10.07667490       8.66181621       7.21116638       0.00000000 NULL
P       13.15089506      10.36989680       4.86568661       0.00000000 NULL
P       13.14278653       2.02418042       4.86568661       0.00000000 NULL
P        5.91923840       6.20406081       4.86568661       0.00000000 NULL
P        7.87131774       8.70746131       6.22898242       0.00000000 NULL
P       14.34286383       7.42764625       6.22898242       0.00000000 NULL
P        9.99873843       2.46303046       6.22898242       0.00000000 NULL
P       15.04071272       8.14844996       4.48491136       0.00000000 NULL
P       10.27404830       1.49827375       4.48491136       0.00000000 NULL
P        6.89815897       8.95141433       4.48491136       0.00000000 NULL
P       16.23929588      11.43732144       9.20554359       0.00000000 NULL
P       17.89182298       8.11490356       9.20554359       0.00000000 NULL
P       14.18826114       8.34498205       9.20554359       0.00000000 NULL
P       16.57779569       6.56931769       9.15195698       0.00000000 NULL
P       13.50675816      10.25575600       9.15195698       0.00000000 NULL
P       18.23482615      11.07213336       9.15195698       0.00000000 NULL
P        5.38456031       4.28621059       2.98460509       0.00000000 NULL
P        6.38850710       2.49279771       2.98460509       0.00000000 NULL
P        4.33339259       2.52006072       2.98460509       0.00000000 NULL
P       10.47820519       5.05050695       1.04575465       0.00000000 NULL
P        9.87240473       6.99849267       1.04575465       0.00000000 NULL
P       11.86231008       6.54913841       1.04575465       0.00000000 NULL
P       10.38956437       7.56713601       5.54976649       0.00000000 NULL
P       12.09618984       5.81694334       5.54976649       0.00000000 NULL
P        9.72716579       5.21405867       5.54976649       0.00000000 NULL
P        1.48430263       1.84680441       0.45459089       0.00000000 NULL
P        6.22604821       7.09022302       0.45459089       0.00000000 NULL
P        8.39610915       0.36204158       0.45459089       0.00000000 NULL
P        9.39525515       3.90272658       2.49586654       0.00000000 NULL
P        9.41987279       8.51024511       2.49586654       0.00000000 NULL
P       13.39779206       6.18516634       2.49586654       0.00000000 NULL
P       11.05048759       4.13170965       6.63279455       0.00000000 NULL
P        8.79056172       6.96228023       6.63279455       0.00000000 NULL
P       12.37187069       7.50414815       6.63279455       0.00000000 NULL
P        7.32556161       3.83301736       1.78741739       0.00000000 NULL
P        5.02552960       1.03843788       1.78741739       0.00000000 NULL
P        3.75536879       4.42761377       1.78741739       0.00000000 NULL
42
Lattice="10.82143283455331 -4.923638583892639e-15 -1.3612547741030484e-16 5.4107164172766575 9.371635740070209 5.736200069758035e-17 5.410716417276655 3.1238785800234017 9.418525167155337" Properties=species:S:1:pos:R:3:initial_magmoms:R:1:castep_labels:S:1 n_minim_iter=2 pbc="T T T"
P        9.65569290       5.99352327       3.65620545       0.00000000 NULL
P       11.18412980       7.38443450       3.65620545       0.00000000 NULL
P       11.62447580       5.36531371       3.65620545       0.00000000 NULL
P       13.30393371       5.58373779       7.26418574       0.00000000 NULL
P        9.00512475       4.42985802       7.26418574       0.00000000 NULL
P       10.15524004       8.72967567       7.26418574       0.00000000 NULL
P       13.25367923      10.45085538       4.90119133       0.00000000 NULL
P       13.24529947       2.03982088       4.90119133       0.00000000 NULL
P        5.96531980       6.25259521       4.90119133       0.00000000 NULL
P        7.93264509       8.77572721       6.27468106       0.00000000 NULL
P       14.45511298       7.48553571       6.27468106       0.00000000 NULL
P       10.07654042       2.48200856       6.27468106       0.00000000 NULL
P       15.15822121       8.21204677       4.51747948       0.00000000 NULL
P       10.35416335       1.50984345       4.51747948       0.00000000 NULL
P        6.95191394       9.02138125       4.51747948       0.00000000 NULL
P       16.36590179      11.52689601       9.27262625       0.00000000 NULL
P       18.03178313       8.17817251       9.27262625       0.00000000 NULL
P       14.29876283       8.40983870       9.27262625       0.00000000 NULL
P       16.70703066       6.62038393       9.21871070       0.00000000 NULL
P       13.61205458      10.33600228       9.21871070       0.00000000 NULL
P       18.37736251      11.15852101       9.21871070       0.00000000 NULL
P        5.42678628       4.32017482       3.00668393       0.00000000 NULL
P        6.43870442       2.51181355       3.00668393       0.00000000 NULL
P        4.36665855       2.53964737       3.00668393       0.00000000 NULL
P       10.55996386       5.08942868       1.05357588       0.00000000 NULL
P        9.94902543       7.05336017       1.05357588       0.00000000 NULL
P       11.95530921       6.60048263       1.05357588       0.00000000 NULL
P       10.47070877       7.62630135       5.59031736       0.00000000 NULL
P       12.19064916       5.86222101       5.59031736       0.00000000 NULL
P        9.80294057       5.25474911       5.59031736       0.00000000 NULL
P        1.49592175       1.86109739       0.45804378       0.00000000 NULL
P        6.27451316       7.14558081       0.45804378       0.00000000 NULL
P        8.46171434       0.36495755       0.45804378       0.00000000 NULL
P        9.46850471       3.93307407       2.51427204       0.00000000 NULL
P        9.49332254       8.57676882       2.51427204       0.00000000 NULL
P       13.50247125       6.23342858       2.51427204       0.00000000 NULL
P       11.13701980       4.16400016       6.68151765       0.00000000 NULL
P        8.85905285       7.01632933       6.68151765       0.00000000 NULL
P       12.46822585       7.56294199       6.68151765       0.00000000 NULL
P        7.38283116       3.86310979       1.80022654       0.00000000 NULL
P        5.06485205       1.04636151       1.80022654       0.00000000 NULL
P        3.78446604       4.46216444       1.80022654       0.00000000 NULL
42
Lattice="11.315349657332241 -7.883906219034271e-15 -5.46967958186074e-16 5.657674828666125 9.799380255953258 5.543806679391574e-16 5.657674828666122 3.266460085317751 9.836814347840676" Properties=species:S:1:pos:R:3:initial_magmoms:R:1:castep_labels:S:1 n_minim_iter=3 pbc="T T T"
P       10.09275578       6.26631955       3.81653681       0.00000000 NULL
P       11.69576368       7.72501784       3.81653681       0.00000000 NULL
P       12.15752951       5.60742312       3.81653681       0.00000000 NULL
P       13.91291230       5.83820257       7.58859377       0.00000000 NULL
P        9.41492524       4.63072373       7.58859377       0.00000000 NULL
P       10.61821142       9.12983421       7.58859377       0.00000000 NULL
P       13.85979684      10.92815263       5.11827319       0.00000000 NULL
P       13.84950903       2.13174804       5.11827319       0.00000000 NULL
P        6.23674310       6.53885984       5.11827319       0.00000000 NULL
P        8.29407675       9.17833660       6.55425468       0.00000000 NULL
P       15.11698394       7.82671104       6.55425468       0.00000000 NULL
P       10.53498827       2.59371287       6.55425468       0.00000000 NULL
P       15.85106140       8.58684928       4.71666762       0.00000000 NULL
P       10.82624857       1.57791402       4.71666762       0.00000000 NULL
P        7.26873899       9.43399721       4.71666762       0.00000000 NULL
P       17.11212280      12.05512342       9.68290059       0.00000000 NULL
P       18.85700621       8.55104600       9.68290059       0.00000000 NULL
P       14.94994444       8.79197135       9.68290059       0.00000000 NULL
P       17.46877903       6.92128164       9.62700885       0.00000000 NULL
P       14.23264069      10.80909354       9.62700885       0.00000000 NULL
P       19.21765373      11.66776559       9.62700885       0.00000000 NULL
P        5.67582043       4.52072596       3.14187299       0.00000000 NULL
P        6.73482814       2.62361259       3.14187299       0.00000000 NULL
P        4.56237591       2.65504170       3.14187299       0.00000000 NULL
P       11.04181227       5.31845358       1.10147923       0.00000000 NULL
P       10.40035943       7.37704379       1.10147923       0.00000000 NULL
P       12.50387727       6.90326314       1.10147923       0.00000000 NULL
P       10.94905011       7.97516860       5.83838531       0.00000000 NULL
P       12.74752320       6.12902067       5.83838531       0.00000000 NULL
P       10.24947565       5.49457125       5.83838531       0.00000000 NULL
P        1.56438884       1.94532716       0.47924141       0.00000000 NULL
P        6.56018314       7.47191619       0.47924141       0.00000000 NULL
P        8.84845249       0.38213690       0.47924141       0.00000000 NULL
P        9.90019153       4.11193924       2.62688331       0.00000000 NULL
P        9.92629773       8.96897352       2.62688331       0.00000000 NULL
P       14.11955970       6.51784775       2.62688331       0.00000000 NULL
P       11.64720765       4.35438703       6.97964288       0.00000000 NULL
P        9.26275562       7.33478928       6.97964288       0.00000000 NULL
P       13.03608570       7.90958419       6.97964288       0.00000000 NULL
P        7.72048339       4.04061994       1.87843779       0.00000000 NULL
P        5.29671265       1.09293553       1.87843779       0.00000000 NULL
P        3.95582844       4.66582478       1.87843779       0.00000000 NULL
42
Lattice="11.398353450987198 -4.220197844536607e-15 -6.973941848137521e-16 5.6991767254936 9.871263649868933 5.227710009789588e-16 5.699176725493599 3.2904212166229776 10.028977276573142" Properties=species:S:1:pos:R:3:initial_magmoms:R:1:castep_labels:S:1 n_minim_iter=4 pbc="T T T"
P       10.16429401       6.31147223       3.88950954       0.00000000 NULL
P       11.78210173       7.78425436       3.88950954       0.00000000 NULL
P       12.24866461       5.64680071       3.88950954       0.00000000 NULL
P       14.01621947       5.88133233       7.73777565       0.00000000 NULL
P        9.48362692       4.66345900       7.73777565       0.00000000 NULL
P       10.69521396       9.19773596       7.73777565       0.00000000 NULL
P       13.96308939      11.00886932       5.21751113       0.00000000 NULL
P       13.95076925       2.14570251       5.21751113       0.00000000 NULL
P        6.28120170       6.58795547       5.21751113       0.00000000 NULL
P        8.35456087       9.24704633       6.68263897       0.00000000 NULL
P       15.22925005       7.88374218       6.68263897       0.00000000 NULL
P       10.61124943       2.61173879       6.68263897       0.00000000 NULL
P       15.96868002       8.64921893       4.80851608       0.00000000 NULL
P       10.90445676       1.58863526       4.80851608       0.00000000 NULL
P        7.32192357       9.50467310       4.80851608       0.00000000 NULL
P       17.23724600      12.14510752       9.87112806       0.00000000 NULL
P       18.99687882       8.61334426       9.87112806       0.00000000 NULL
P       15.05846570       8.85533917       9.87112806       0.00000000 NULL
P       17.59674294       6.97123216       9.81447998       0.00000000 NULL
P       14.33642285      10.88894846       9.81447998       0.00000000 NULL
P       19.35942473      11.75361033       9.81447998       0.00000000 NULL
P        5.71843041       4.55631899       3.20454237       0.00000000 NULL
P        6.78584951       2.64079815       3.20454237       0.00000000 NULL
P        4.59325025       2.67414652       3.20454237       0.00000000 NULL
P       11.12212578       5.35465669       1.12380864       0.00000000 NULL
P       10.47455928       7.43315549       1.12380864       0.00000000 NULL
P       12.59837529       6.95471512       1.12380864       0.00000000 NULL
P       11.02956895       8.03450356       5.95254552       0.00000000 NULL
P       12.84165316       6.17338861       5.95254552       0.00000000 NULL
P       10.32383823       5.53463513       5.95254552       0.00000000 NULL
P        1.57570694       1.95954521       0.48914566       0.00000000 NULL
P        6.60833919       7.52688881       0.48914566       0.00000000 NULL
P        8.91348405       0.38482963       0.48914566       0.00000000 NULL
P        9.97232588       4.14198712       2.67865940       0.00000000 NULL
P        9.99925658       9.03524619       2.67865940       0.00000000 NULL
P       14.22347789       6.56529399       2.67865940       0.00000000 NULL
P       11.73348263       4.38652263       7.11699771       0.00000000 NULL
P        9.33045217       7.38777195       7.11699771       0.00000000 NULL
P       13.13112555       7.96823272       7.11699771       0.00000000 NULL
P        7.77753620       4.07109920       1.91377381       0.00000000 NULL
P        5.33608395       1.10017012       1.91377381       0.00000000 NULL
P        3.98391002       4.69999433       1.91377381       0.00000000 NULL
42
Lattice="11.369213287849115 -1.0256789343445523e-14 -6.662602129487094e-16 5.684606643924564 9.846027528320928 4.990282278312754e-16 5.6846066439245595 3.282009176106974 10.1837405332263" Properties=species:S:1:pos:R:3:initial_magmoms:R:1:castep_labels:S:1 n_minim_iter=5 pbc="T T T"
P       10.13563671       6.29433666       3.94783029       0.00000000 NULL
P       11.75245038       7.76716785       3.94783029       0.00000000 NULL
P       12.21955277       5.63055054       3.94783029       0.00000000 NULL
P       13.98164255       5.86694400       7.85792207       0.00000000 NULL
P        9.45931456       4.65012542       7.85792207       0.00000000 NULL
P       10.66668275       9.17498563       7.85792207       0.00000000 NULL
P       13.92950966      10.98139835       5.29714012       0.00000000 NULL
P       13.91462840       2.13804665       5.29714012       0.00000000 NULL
P        6.26350180       6.57261005       5.29714012       0.00000000 NULL
P        8.33278697       9.22492062       6.78584236       0.00000000 NULL
P       15.19183541       7.86318954       6.78584236       0.00000000 NULL
P       10.58301748       2.60394489       6.78584236       0.00000000 NULL
P       15.92956319       8.62615945       4.88296852       0.00000000 NULL
P       10.87490492       1.58356894       4.88296852       0.00000000 NULL
P        7.30317176       9.48232667       4.88296852       0.00000000 NULL
P       17.19275552      12.11575196      10.02248078       0.00000000 NULL
P       18.94999116       8.59084356      10.02248078       0.00000000 NULL
P       15.01871312       8.83148706      10.02248078       0.00000000 NULL
P       17.55165640       6.95256661       9.96535893       0.00000000 NULL
P       14.29909103      10.86161896       9.96535893       0.00000000 NULL
P       19.31071236      11.72389701       9.96535893       0.00000000 NULL
P        5.70482239       4.54737122       3.25537948       0.00000000 NULL
P        6.77033445       2.63182080       3.25537948       0.00000000 NULL
P        4.57866309       2.66683550       3.25537948       0.00000000 NULL
P       11.09264272       5.33766668       1.14219514       0.00000000 NULL
P       10.44544687       7.41671132       1.14219514       0.00000000 NULL
P       12.56955027       6.93767705       1.14219514       0.00000000 NULL
P       11.00154773       8.01500388       6.04452173       0.00000000 NULL
P       12.80963639       6.15693330       6.04452173       0.00000000 NULL
P       10.29645573       5.52011788       6.04452173       0.00000000 NULL
P        1.57142028       1.95467624       0.49711057       0.00000000 NULL
P        6.59169578       7.50779952       0.49711057       0.00000000 NULL
P        8.89070386       0.38355176       0.49711057       0.00000000 NULL
P        9.94627069       4.13142177       2.72041406       0.00000000 NULL
P        9.97399415       9.01262108       2.72041406       0.00000000 NULL
P       14.18737502       6.54801220       2.72041406       0.00000000 NULL
P       11.70419221       4.37549881       7.22795185       0.00000000 NULL
P        9.30641030       7.36817787       7.22795185       0.00000000 NULL
P       13.09703735       7.94837838       7.22795185       0.00000000 NULL
P        7.75804573       4.06154520       1.94186101       0.00000000 NULL
P        5.32298511       1.09659024       1.94186101       0.00000000 NULL
P        3.97278910       4.68789208       1.94186101       0.00000000 NULL
42
Lattice="11.251581188748856 -2.299516971155104e-14 -5.113207660495668e-17 5.625790594374446 9.74415514219961 -1.4345182849506997e-16 5.625790594374434 3.2480517140665293 10.496238856155516" Properties=species:S:1:pos:R:3:initial_magmoms:R:1:castep_labels:S:1 n_minim_iter=6 pbc="T T T"
P       10.02470354       6.22682757       4.06527926       0.00000000 NULL
P       11.63182028       7.69324857       4.06527926       0.00000000 NULL
P       12.09821974       5.56823414       4.06527926       0.00000000 NULL
P       13.83958889       5.80796560       8.10038215       0.00000000 NULL
P        9.36163249       4.59889193       8.10038215       0.00000000 NULL
P       10.55352218       9.08145276       8.10038215       0.00000000 NULL
P       13.79052210      10.86930155       5.45758871       0.00000000 NULL
P       13.76941140       2.11071704       5.45758871       0.00000000 NULL
P        6.19481006       6.50829170       5.45758871       0.00000000 NULL
P        8.24543436       9.13311720       6.99371624       0.00000000 NULL
P       15.03837551       7.78099606       6.99371624       0.00000000 NULL
P       10.47093369       2.57419702       6.99371624       0.00000000 NULL
P       15.76871188       8.53455369       5.03414207       0.00000000 NULL
P       10.75836556       1.56492837       5.03414207       0.00000000 NULL
P        7.22766613       9.38882822       5.03414207       0.00000000 NULL
P       17.01369991      11.99426668      10.32772553       0.00000000 NULL
P       18.75786147       8.50103575      10.32772553       0.00000000 NULL
P       14.86055397       8.73716299      10.32772553       0.00000000 NULL
P       17.36966290       6.87868591      10.26987301       0.00000000 NULL
P       14.14965707      10.75055314      10.26987301       0.00000000 NULL
P       19.11279537      11.60322638      10.26987301       0.00000000 NULL
P        5.64796164       4.50661752       3.35840114       0.00000000 NULL
P        6.70465503       2.59956813       3.35840114       0.00000000 NULL
P        4.52475511       2.63796950       3.35840114       0.00000000 NULL
P       10.97523051       5.27467128       1.18003657       0.00000000 NULL
P       10.33196526       7.34614621       1.18003657       0.00000000 NULL
P       12.44754779       6.86749279       1.18003657       0.00000000 NULL
P       10.88811751       7.93464182       6.23012474       0.00000000 NULL
P       12.67912382       6.09160301       6.23012474       0.00000000 NULL
P       10.18750223       5.46206545       6.23012474       0.00000000 NULL
P        1.55464562       1.93475994       0.51309384       0.00000000 NULL
P        6.52401904       7.43041257       0.51309384       0.00000000 NULL
P        8.79870712       0.37898263       0.51309384       0.00000000 NULL
P        9.84214287       4.08881781       2.80469159       0.00000000 NULL
P        9.87152984       8.92035562       2.80469159       0.00000000 NULL
P       14.04107085       6.47913685       2.80469159       0.00000000 NULL
P       11.58464644       4.33080559       7.45250611       0.00000000 NULL
P        9.20984563       7.29030937       7.45250611       0.00000000 NULL
P       12.96025149       7.86719531       7.45250611       0.00000000 NULL
P        7.67855470       4.02132218       1.99819571       0.00000000 NULL
P        5.26908041       1.08367061       1.99819571       0.00000000 NULL
P        3.92973667       4.63916235       1.99819571       0.00000000 NULL
42
Lattice="11.033437030330298 -1.6374694521251645e-15 -5.962227103920792e-17 5.516718515165148 9.555236759321971 -1.0737410400427993e-16 5.516718515165149 3.1850789197739906 10.94028446414384" Properties=species:S:1:pos:R:3:initial_magmoms:R:1:castep_labels:S:1 n_minim_iter=7 pbc="T T T"
P        9.81668554       6.10057002       4.22978593       0.00000000 NULL
P       11.40834287       7.55868945       4.22978593       0.00000000 NULL
P       11.87528267       5.45121405       4.22978593       0.00000000 NULL
P       13.57619253       5.69956005       8.44483829       0.00000000 NULL
P        9.18130456       4.50336587       8.44483829       0.00000000 NULL
P       10.34281400       8.90754760       8.44483829       0.00000000 NULL
P       13.53554164      10.66159903       5.68238751       0.00000000 NULL
P       13.49888182       2.05755109       5.68238751       0.00000000 NULL
P        6.06588763       6.39132339       5.68238751       0.00000000 NULL
P        8.08209652       8.96521599       7.28655541       0.00000000 NULL
P       14.75649357       7.62856461       7.28655541       0.00000000 NULL
P       10.26172100       2.51669291       7.28655541       0.00000000 NULL
P       15.47158323       8.36382362       5.25235354       0.00000000 NULL
P       10.54092914       1.52977760       5.25235354       0.00000000 NULL
P        7.08779872       9.21687230       5.25235354       0.00000000 NULL
P       16.67977521      11.77031429      10.75931525       0.00000000 NULL
P       18.40365913       8.33544407      10.75931525       0.00000000 NULL
P       14.56703229       8.55995191      10.75931525       0.00000000 NULL
P       17.03073102       6.74067520      10.70170754       0.00000000 NULL
P       13.87238599      10.54632697      10.70170754       0.00000000 NULL
P       18.74734962      11.37870811      10.70170754       0.00000000 NULL
P        5.54240756       4.43406544       3.50703064       0.00000000 NULL
P        6.58552805       2.53833829       3.50703064       0.00000000 NULL
P        4.42221993       2.58283302       3.50703064       0.00000000 NULL
P       10.75593638       5.15436442       1.23814828       0.00000000 NULL
P       10.11927936       7.21837716       1.23814828       0.00000000 NULL
P       12.22509534       6.73773194       1.23814828       0.00000000 NULL
P       10.67783614       7.78710687       6.49303696       0.00000000 NULL
P       12.43835133       5.96964272       6.49303696       0.00000000 NULL
P        9.98412361       5.35372392       6.49303696       0.00000000 NULL
P        1.52403994       1.89722537       0.53716611       0.00000000 NULL
P        6.39774391       7.28676677       0.53716611       0.00000000 NULL
P        8.62837169       0.37124462       0.53716611       0.00000000 NULL
P        9.64902937       4.00997250       2.92411391       0.00000000 NULL
P        9.68166040       8.74918271       2.92411391       0.00000000 NULL
P       13.76962132       6.35131831       2.92411391       0.00000000 NULL
P       11.36373398       4.24899745       7.77507656       0.00000000 NULL
P        9.03130977       7.14469248       7.77507656       0.00000000 NULL
P       12.70526733       7.71678359       7.77507656       0.00000000 NULL
P        7.53081862       3.94672020       2.07576281       0.00000000 NULL
P        5.16926916       1.05999642       2.07576281       0.00000000 NULL
P        3.85006776       4.54852013       2.07576281       0.00000000 NULL
42
Lattice="11.088295122112982 2.9386113617998848e-15 -2.2666893295664808e-17 5.544147561056486 9.602745260408915 -8.238124173365277e-17 5.54414756105649 3.2009150868029734 11.111660477629993" Properties=species:S:1:pos:R:3:initial_magmoms:R:1:castep_labels:S:1 n_minim_iter=8 pbc="T T T"
P        9.85242675       6.12591514       4.29036559       0.00000000 NULL
P       11.46727987       7.61008109       4.29036559       0.00000000 NULL
P       11.94517873       5.46949429       4.29036559       0.00000000 NULL
P       13.64784729       5.73165402       8.57773110       0.00000000 NULL
P        9.22812946       4.52028105       8.57773110       0.00000000 NULL
P       10.38890861       8.95355545       8.57773110       0.00000000 NULL
P       13.61558616      10.71665907       5.76566374       0.00000000 NULL
P       13.56140104       2.05571748       5.76566374       0.00000000 NULL
P        6.08789816       6.43311396       5.76566374       0.00000000 NULL
P        8.11771958       9.02008483       7.39606943       0.00000000 NULL
P       14.84105794       7.66529672       7.39606943       0.00000000 NULL
P       10.30610784       2.52010896       7.39606943       0.00000000 NULL
P       15.55589512       8.40134485       5.34111232       0.00000000 NULL
P       10.58612563       1.53301774       5.34111232       0.00000000 NULL
P        7.12286461       9.27112793       5.34111232       0.00000000 NULL
P       16.75649130      11.83705764      10.92277524       0.00000000 NULL
P       18.50538965       8.37815981      10.92277524       0.00000000 NULL
P       14.63544709       8.59301833      10.92277524       0.00000000 NULL
P       17.11117538       6.76946429      10.86616954       0.00000000 NULL
P       13.93938304      10.60479107      10.86616954       0.00000000 NULL
P       18.84676963      11.43398042      10.86616954       0.00000000 NULL
P        5.57288343       4.47117057       3.56695423       0.00000000 NULL
P        6.62985314       2.54090135       3.56695423       0.00000000 NULL
P        4.42970610       2.59067334       3.56695423       0.00000000 NULL
P       10.80256435       5.16266213       1.26694696       0.00000000 NULL
P       10.15800950       7.26886430       1.26694696       0.00000000 NULL
P       12.30431151       6.77396409       1.26694696       0.00000000 NULL
P       10.73117201       7.83215703       6.59288700       0.00000000 NULL
P       12.50555607       5.99594443       6.59288700       0.00000000 NULL
P       10.02815728       5.37738905       6.59288700       0.00000000 NULL
P        1.53212245       1.90529891       0.54872377       0.00000000 NULL
P        6.42812359       7.32323883       0.54872377       0.00000000 NULL
P        8.67219663       0.37420751       0.54872377       0.00000000 NULL
P        9.69553951       4.03029547       2.96925186       0.00000000 NULL
P        9.73086363       8.79375927       2.96925186       0.00000000 NULL
P       13.83848223       6.38143578       2.96925186       0.00000000 NULL
P       11.42432784       4.27315312       7.90478322       0.00000000 NULL
P        9.07679036       7.17515583       7.90478322       0.00000000 NULL
P       12.76376716       7.75718157       7.90478322       0.00000000 NULL
P        7.56840089       3.96872545       2.10257233       0.00000000 NULL
P        5.19696418       1.06395510       2.10257233       0.00000000 NULL
P        3.86707761       4.57006471       2.10257233       0.00000000 NULL
42
Lattice="10.953225560291655 -2.4825529973479194e-15 -2.5201417379807124e-17 5.476612780145827 9.48577158859361 -4.224456589060772e-17 5.476612780145828 3.1619238628645365 11.069205134096002" Properties=species:S:1:pos:R:3:initial_magmoms:R:1:castep_labels:S:1 n_minim_iter=9 pbc="T T T"
P        9.73034480       6.05039192       4.27290530       0.00000000 NULL
P       11.32784626       7.51962143       4.27290530       0.00000000 NULL
P       11.80148561       5.40152983       4.27290530       0.00000000 NULL
P       13.48229569       5.66287789       8.54465169       0.00000000 NULL
P        9.11627382       4.46409366       8.54465169       0.00000000 NULL
P       10.26110716       8.84457162       8.54465169       0.00000000 NULL
P       13.45263967      10.58655894       5.74242214       0.00000000 NULL
P       13.39513470       2.02793600       5.74242214       0.00000000 NULL
P        6.01190230       6.35704823       5.74242214       0.00000000 NULL
P        8.01811130       8.91205510       7.36684325       0.00000000 NULL
P       14.66223602       7.57162755       7.36684325       0.00000000 NULL
P       10.17932935       2.48786053       7.36684325       0.00000000 NULL
P       15.36810434       8.29799960       5.32235670       0.00000000 NULL
P       10.45545184       1.51337461       5.32235670       0.00000000 NULL
P        7.03612049       9.16016897       5.32235670       0.00000000 NULL
P       16.55126558      11.69436496      10.88013455       0.00000000 NULL
P       18.28182269       8.27631583      10.88013455       0.00000000 NULL
P       14.45642675       8.48663397      10.88013455       0.00000000 NULL
P       16.90206989       6.68618585      10.82418014       0.00000000 NULL
P       13.76921019      10.47659994      10.82418014       0.00000000 NULL
P       18.61823494      11.29452898      10.82418014       0.00000000 NULL
P        5.50547992       4.41927022       3.55405342       0.00000000 NULL
P        6.55107310       2.50825100       3.55405342       0.00000000 NULL
P        4.37328532       2.55825036       3.55405342       0.00000000 NULL