10
Lattice="4.077619999999999 6.330182788300753e-16 -1.1704815725962861e-15 0.12450671747316701 4.303969489924862 2.1421687574051932e-15 2.02818389375759 2.0585252465769712 11.980006419309948" Properties=species:S:1:pos:R:3:initial_magmoms:R:1:castep_labels:S:1 n_minim_iter=1 pbc="T T T"
P        5.19351253       1.84244658       6.63301927       0.00000000 NULL
P        1.21184780       3.84838104       2.16701305       0.00000000 NULL
P        5.56716298       2.43478523      11.19134103       0.00000000 NULL
P        3.38611002       3.14790962       2.44247173       0.00000000 NULL
P        2.29051941       3.72544078       7.65206138       0.00000000 NULL
P        3.24210651       4.06843164       9.48359471       0.00000000 NULL
P        4.44444630       5.52312877      10.18395068       0.00000000 NULL
P        3.40099620       2.66872058       6.27605821       0.00000000 NULL
P        4.10551905       2.23706540       8.45849431       0.00000000 NULL
P        2.96929952       0.75388204       4.07719512       0.00000000 NULL
10
Lattice="4.08402176983832 -0.0007773190341067782 0.0013490023034260768 0.1238817219958676 4.306425869455967 -0.0007206996534440099 2.0349390332448407 2.057204109609713 11.990868519543607" Properties=species:S:1:pos:R:3:initial_magmoms:R:1:castep_labels:S:1 n_minim_iter=2 pbc="T T T"
P        5.20375350       1.84110718       6.64028489       0.00000000 NULL
P        1.21391395       3.85011977       2.16861240       0.00000000 NULL
P        5.57925273       2.43323666      11.20271404       0.00000000 NULL
P        3.39148169       3.14856035       2.44540619       0.00000000 NULL
P        2.29574870       3.72598993       7.65888264       0.00000000 NULL
P        3.24941657       4.06829170       9.49235870       0.00000000 NULL
P        4.45384969       5.52361506      10.19354241       0.00000000 NULL
P        3.40776675       2.66858487       6.28188895       0.00000000 NULL
P        4.11432866       2.23618508       8.46691748       0.00000000 NULL
P        2.97514820       0.75296820       4.08149684       0.00000000 NULL
10
Lattice="4.3033292621500525 -0.02844684087098117 0.049147526459535094 0.10137263046656608 4.386901802307904 -0.026644032666536113 2.270484312267608 2.006116502387087 12.35757621081542" Properties=species:S:1:pos:R:3:initial_magmoms:R:1:castep_labels:S:1 n_minim_iter=3 pbc="T T T"
P        5.55695153       1.79031598       6.88779587       0.00000000 NULL
P        1.28470793       3.90542164       2.22175282       0.00000000 NULL
P        5.99726296       2.37329393      11.58858191       0.00000000 NULL
P        3.57559597       3.16667133       2.54530242       0.00000000 NULL
P        2.47660790       3.73886755       7.88866633       0.00000000 NULL
P        3.50234242       4.05634708       9.78816691       0.00000000 NULL
P        4.77881269       5.53143546      10.51756610       0.00000000 NULL
P        3.64123237       2.65902588       6.47903357       0.00000000 NULL
P        4.41882552       2.20057324       8.75247836       0.00000000 NULL
P        3.17684324       0.71903150       4.22775636       0.00000000 NULL
10
Lattice="4.374420020511194 -0.062335345460457804 0.09609656691686275 0.06777366517650385 4.334540533097586 -0.07509877539458507 2.4266721362669332 1.8258488590220125 12.395467005477311" Properties=species:S:1:pos:R:3:initial_magmoms:R:1:castep_labels:S:1 n_minim_iter=4 pbc="T T T"
P        5.71197749       1.64361829       6.95067849       0.00000000 NULL
P        1.30159852       3.82620743       2.19707426       0.00000000 NULL
P        6.20472744       2.16944331      11.66234215       0.00000000 NULL
P        3.63396451       3.07382612       2.56299744       0.00000000 NULL
P        2.56796737       3.59169021       7.89545700       0.00000000 NULL
P        3.62990149       3.86467371       9.80805159       0.00000000 NULL
P        4.93297962       5.31119978      10.53988003       0.00000000 NULL
P        3.74927981       2.52786834       6.50000275       0.00000000 NULL
P        4.56968870       2.04417751       8.80223270       0.00000000 NULL
P        3.26949247       0.63515437       4.25984696       0.00000000 NULL
10
Lattice="4.51321375856693 -0.1381416824601391 0.21464704824641467 -0.008002745783431207 4.188331613597143 -0.17955841111449627 2.8057377414128295 1.4184838502566526 12.397786364006766" Properties=species:S:1:pos:R:3:initial_magmoms:R:1:castep_labels:S:1 n_minim_iter=5 pbc="T T T"
P        6.05447316       1.30861128       7.06126719       0.00000000 NULL
P        1.33973647       3.62397571       2.13243287       0.00000000 NULL
P        6.68003978       1.70644976      11.76410772       0.00000000 NULL
P        3.75686619       2.84835787       2.60145387       0.00000000 NULL
P        2.78095915       3.24641353       7.86215768       0.00000000 NULL
P        3.92550861       3.41317572       9.79338258       0.00000000 NULL
P        5.29384471       4.79181013      10.53061513       0.00000000 NULL
P        3.99878898       2.22053688       6.51022521       0.00000000 NULL
P        4.91605900       1.68362313       8.86853720       0.00000000 NULL
P        3.47530210       0.44600670       4.30756429       0.00000000 NULL
10
Lattice="4.600047447682502 -0.20412969376485152 0.2792211204983898 -0.07500237050530639 4.076184075588881 -0.18372686664924112 3.0053332168512528 1.315895948402802 12.39631476937917" Properties=species:S:1:pos:R:3:initial_magmoms:R:1:castep_labels:S:1 n_minim_iter=6 pbc="T T T"
P        6.24533829       1.16099859       7.12781825       0.00000000 NULL
P        1.33722172       3.50233772       2.13839264       0.00000000 NULL
P        6.94820755       1.54383488      11.82896671       0.00000000 NULL
P        3.81594167       2.71446970       2.66639392       0.00000000 NULL
P        2.86387297       3.12196109       7.87160751       0.00000000 NULL
P        4.04967711       3.22540398       9.80994226       0.00000000 NULL
P        5.48033260       4.57221299      10.56692719       0.00000000 NULL
P        4.14193269       2.08636550       6.52356507       0.00000000 NULL
P        5.10645135       1.54108099       8.92398647       0.00000000 NULL
P        3.59149062       0.36888055       4.32266708       0.00000000 NULL
10
Lattice="4.640976610930185 -0.2729769850373226 0.3808354227162007 -0.14642165070694313 3.94551389586642 -0.12000728420053057 3.2894764119759032 1.3888853070047267 12.449471474067726" Properties=species:S:1:pos:R:3:initial_magmoms:R:1:castep_labels:S:1 n_minim_iter=7 pbc="T T T"
P        6.43711582       1.10524843       7.26915695       0.00000000 NULL
P        1.33097531       3.39375348       2.21654601       0.00000000 NULL
P        7.26768024       1.54458377      11.99349253       0.00000000 NULL
P        3.86321507       2.59968588       2.81939349       0.00000000 NULL
P        2.98153901       3.10059370       7.95574713       0.00000000 NULL
P        4.19928935       3.16554886       9.91871549       0.00000000 NULL
P        5.71229592       4.48105947      10.73672585       0.00000000 NULL
P        4.30794662       2.03645137       6.61256253       0.00000000 NULL
P        5.32864431       1.51320659       9.05630981       0.00000000 NULL
P        3.70911855       0.35480230       4.36911440       0.00000000 NULL
10
Lattice="4.6841457035767 -0.3336014324735304 0.4534640511714637 -0.2090932410187644 3.8844577215491363 -0.05788795761782316 3.4937252968465495 1.4971491754531085 12.752460300405941" Properties=species:S:1:pos:R:3:initial_magmoms:R:1:castep_labels:S:1 n_minim_iter=8 pbc="T T T"
P        6.58731649       1.09022903       7.51316981       0.00000000 NULL
P        1.31813979       3.35061047       2.33362415       0.00000000 NULL
P        7.50728380       1.58952061      12.35921763       0.00000000 NULL
P        3.90186445       2.53627030       2.98964169       0.00000000 NULL
P        3.07040730       3.13088160       8.19418156       0.00000000 NULL
P        4.30853480       3.19027469      10.21494943       0.00000000 NULL
P        5.87784781       4.47738893      11.10727265       0.00000000 NULL
P        4.42508237       2.03773711       6.82500380       0.00000000 NULL
P        5.49233455       1.53563590       9.33691687       0.00000000 NULL
P        3.79964232       0.36210936       4.49602867       0.00000000 NULL
10
Lattice="4.657796337378671 -0.3409865221261493 0.4753141883640388 -0.2176928343202603 3.8318305542494833 -0.04558707155983872 3.54108651005381 1.500795111051287 12.745661617686185" Properties=species:S:1:pos:R:3:initial_magmoms:R:1:castep_labels:S:1 n_minim_iter=9 pbc="T T T"
P        6.58638638       1.07561156       7.53156238       0.00000000 NULL
P        1.31269134       3.30650663       2.34578174       0.00000000 NULL
P        7.53019625       1.58094882      12.37521803       0.00000000 NULL
P        3.88977634       2.49745427       3.01611730       0.00000000 NULL
P        3.08760039       3.10261774       8.19954391       0.00000000 NULL
P        4.32391711       3.16069050      10.22253918       0.00000000 NULL
P        5.89751572       4.42872553      11.12929480       0.00000000 NULL
P        4.43254987       2.01703481       6.83762427       0.00000000 NULL
P        5.50888520       1.52315660       9.35092417       0.00000000 NULL
P        3.80014614       0.36008333       4.50210691       0.00000000 NULL
10
Lattice="4.662727665646322 -0.3537179889235505 0.498090026395474 -0.23098045336338047 3.8027721136693677 -0.028337584702518664 3.6040272157989857 1.526828091625382 12.823077346445688" Properties=species:S:1:pos:R:3:initial_magmoms:R:1:castep_labels:S:1 n_minim_iter=10 pbc="T T T"
P        6.62473647       1.07129987       7.59745080       0.00000000 NULL
P        1.31263825       3.28461573       2.37718244       0.00000000 NULL
P        7.59602587       1.59148346      12.47215134       0.00000000 NULL
P        3.89940495       2.47422155       3.06365850       0.00000000 NULL
P        3.11805179       3.10158149       8.26196678       0.00000000 NULL
P        4.35956816       3.16044796      10.29980997       0.00000000 NULL
P        5.94703870       4.41603385      11.22854874       0.00000000 NULL
P        4.46449311       2.01354192       6.89542196       0.00000000 NULL
P        5.55639342       1.52703436       9.42647412       0.00000000 NULL
P        3.82314949       0.36297017       4.53734720       0.00000000 NULL
10
Lattice="4.693948102407619 -0.44903325661630683 0.675804026640158 -0.3306334004193629 3.57262086594313 0.10580876562853835 4.093559532640221 1.7290222340567192 13.425165653504028" Properties=species:S:1:pos:R:3:initial_magmoms:R:1:castep_labels:S:1 n_minim_iter=11 pbc="T T T"
P        6.91584925       1.04027905       8.10858707       0.00000000 NULL
P        1.31437886       3.11191018       2.61957687       0.00000000 NULL
P        8.10121940       1.67465901      13.22583437       0.00000000 NULL
P        3.97321550       2.29480979       3.43552723       0.00000000 NULL
P        3.35451816       3.09115611       8.74614394       0.00000000 NULL
P        4.63538217       3.16107049      10.89731973       0.00000000 NULL
P        6.33137734       4.31546297      12.00416677       0.00000000 NULL
P        4.70782697       1.98581011       7.34610195       0.00000000 NULL
P        5.92701422       1.55847841      10.01799763       0.00000000 NULL
P        3.99606721       0.38594150       4.81189670       0.00000000 NULL
10
Lattice="4.818490524828181 -0.3924200567367547 0.6146578284283797 -0.26707479191481 3.635563793985177 0.1337877413436195 4.004439602237431 1.8695349613496501 13.437718121420877" Properties=species:S:1:pos:R:3:initial_magmoms:R:1:castep_labels:S:1 n_minim_iter=12 pbc="T T T"
P        7.00311894       1.17555924       8.04516728       0.00000000 NULL
P        1.38116487       3.19638504       2.62769211       0.00000000 NULL
P        8.14414348       1.86925290      13.18092611       0.00000000 NULL
P        4.07332444       2.39957473       3.42525200       0.00000000 NULL
P        3.35344370       3.24223002       8.74614737       0.00000000 NULL
P        4.61532022       3.32553387      10.89924545       0.00000000 NULL
P        6.39850339       4.52349271      12.01062486       0.00000000 NULL
P        4.75533915       2.11746958       7.32752677       0.00000000 NULL
P        5.98573976       1.70236624      10.01411872       0.00000000 NULL
P        4.03235602       0.47062496       4.77341777       0.00000000 NULL
10
Lattice="4.7039916024078146 -0.39796679413825653 0.6213432186835905 -0.2764255586683211 3.5657940424688666 0.1177649545603078 3.964329942408985 1.7883199256202333 13.221506408158257" Properties=species:S:1:pos:R:3:initial_magmoms:R:1:castep_labels:S:1 n_minim_iter=13 pbc="T T T"
P        6.86620272       1.11433511       7.93143763       0.00000000 NULL
P        1.34024500       3.12371802       2.57520021       0.00000000 NULL
P        8.00019265       1.77935362      12.97895180       0.00000000 NULL
P        3.98390905       2.33420465       3.37759387       0.00000000 NULL
P        3.29827804       3.14969641       8.59690541       0.00000000 NULL
P        4.53639648       3.22098343      10.72011088       0.00000000 NULL
P        6.28307223       4.38780839      11.82161485       0.00000000 NULL
P        4.66262432       2.04736996       7.21557773       0.00000000 NULL
P        5.88357887       1.62859459       9.86234075       0.00000000 NULL
P        3.95363870       0.44002298       4.70299208       0.00000000 NULL
10
Lattice="4.722131420603043 -0.40197808170125815 0.6320990839092028 -0.28010562941238715 3.5819531062223864 0.11505210949749994 4.00292816510448 1.7856466588102848 13.333406339904167" Properties=species:S:1:pos:R:3:initial_magmoms:R:1:castep_labels:S:1 n_minim_iter=14 pbc="T T T"
P        6.90568151       1.10981252       8.00181978       0.00000000 NULL
P        1.34722385       3.13503606       2.59380363       0.00000000 NULL
P        8.05399042       1.77601655      13.09324864       0.00000000 NULL
P        4.00264810       2.34018444       3.40857244       0.00000000 NULL
P        3.32316388       3.15885685       8.66741040       0.00000000 NULL
P        4.56691125       3.22623735      10.80977883       0.00000000 NULL
P        6.32721267       4.39530024      11.92630070       0.00000000 NULL
P        4.69062430       2.05039215       7.27736475       0.00000000 NULL
P        5.92501031       1.62691674       9.94950743       0.00000000 NULL
P        3.97608577       0.43808972       4.74614928       0.00000000 NULL
