22
Lattice="7.267826196248388 0.0 0.0 0.0 8.872012546186317 1.7487327139143864 0.0 0.7593820179934172 7.939150118838349" Properties=species:S:1:pos:R:3:initial_magmoms:R:1:castep_labels:S:1:forces:R:3 n_minim_iter=1 energy=-117.45942808287 stress="0.0016051223903851717 0.0 0.0 0.0 0.0004456394748696515 0.000309257827956498 0.0 0.000309257827956498 -0.0002501060216821946" free_energy=-117.45942808287 pbc="T T T"
P        3.72235648       5.55926323       6.82528881       0.00000000 NULL      -0.10049200       0.00104600       0.11873000
P        3.54546971       1.12325696       5.95092245       0.00000000 NULL       0.10049300       0.00104400       0.11873000
P        5.06321397       3.75009890       4.90044955       0.00000000 NULL       0.03993300      -0.09025300      -0.08637600
P        2.20461222       8.18610518       5.77481591       0.00000000 NULL      -0.03993300      -0.09025300      -0.08637700
P        5.61145623       6.25325607       3.37552236       0.00000000 NULL       0.09238300      -0.02915800       0.00032600
P        1.65636996       1.81724980       2.50115601       0.00000000 NULL      -0.09238300      -0.02915800       0.00032600
P        3.26772049       2.52053222       4.14609512       0.00000000 NULL      -0.01439100       0.07642700      -0.02402800
P        4.00010570       6.95653849       5.02046148       0.00000000 NULL       0.01439100       0.07642700      -0.02402800
P        6.15862667       2.51878132       3.33112664       0.00000000 NULL       0.01496200       0.04674600      -0.05954700
P        1.10919953       6.95478760       4.20549300       0.00000000 NULL      -0.01496200       0.04674600      -0.05954600
P        2.22837726       7.02227736       7.69554477       0.00000000 NULL       0.02241000       0.04239000       0.14134400
P        5.03944894       2.58627109       6.82117841       0.00000000 NULL      -0.02241000       0.04238800       0.14134300
P        5.19112541       8.41169537       7.96725426       0.00000000 NULL       0.04031800      -0.04612000      -0.01331800
P        2.07670079       3.97568910       7.09288791       0.00000000 NULL      -0.04031800      -0.04612400      -0.01331800
P        6.72464655       1.11155391       6.72444291       0.00000000 NULL       0.03952600       0.05094900       0.04266200
P        0.54317965       5.54756019       7.59880926       0.00000000 NULL      -0.03952700       0.05095100       0.04266300
P        6.90014335       6.03973751       5.56502192       0.00000000 NULL       0.02796200       0.03028900      -0.05542700
P        0.36768284       1.60373124       4.69065556       0.00000000 NULL      -0.02796200       0.03028900      -0.05542700
P        1.47796901       3.62173629       4.92906757       0.00000000 NULL      -0.01971100      -0.06869200      -0.06060600
P        5.78985718       8.05774256       5.80343392       0.00000000 NULL       0.01971100      -0.06869200      -0.06060500
P        7.90440764       3.82335632       2.66667630       0.00000000 NULL       0.02392200      -0.01362100      -0.00375900
P       -0.63658144       8.25936260       3.54104266       0.00000000 NULL      -0.02392200      -0.01362100      -0.00375900
22
Lattice="7.249915200942161 0.0 0.0 0.0 8.865106569269635 1.7451882203471105 0.0 0.7550883203239989 7.941843039455701" Properties=species:S:1:pos:R:3:initial_magmoms:R:1:castep_labels:S:1:forces:R:3 n_minim_iter=2 energy=-117.460945965262 stress="-0.0003874192044149462 0.0 -0.0 0.0 -0.0008572735490014622 2.8789409573117878e-05 -0.0 2.8789409573117878e-05 -0.0007779928656347139" free_energy=-117.460945965262 pbc="T T T"
P        3.71287621       5.55221549       6.82563525       0.00000000 NULL      -0.06406400      -0.00470300       0.11225400
P        3.53703899       1.11966221       5.95304114       0.00000000 NULL       0.06406500      -0.00470400       0.11225400
P        5.05085799       3.74492592       4.90028768       0.00000000 NULL       0.04406600      -0.07143300      -0.07329800
P        2.19905721       8.17747920       5.77288179       0.00000000 NULL      -0.04406600      -0.07143200      -0.07329800
P        5.59790929       6.24728073       3.37384946       0.00000000 NULL       0.08274800      -0.05522500      -0.02837200
P        1.65200591       1.81472745       2.50125535       0.00000000 NULL      -0.08274800      -0.05522500      -0.02837200
P        3.25962351       2.51706940       4.14641819       0.00000000 NULL       0.00293100       0.05548300      -0.02360600
P        3.99029169       6.94962268       5.01901230       0.00000000 NULL      -0.00293100       0.05548400      -0.02360600
P        6.14349489       2.51561636       3.33102835       0.00000000 NULL      -0.01564000       0.02858700      -0.08026200
P        1.10642031       6.94816964       4.20362246       0.00000000 NULL       0.01564000       0.02858700      -0.08026200
P        2.22295401       7.01394064       7.69559972       0.00000000 NULL       0.02856100       0.08028500       0.15296100
P        5.02696119       2.58138735       6.82300561       0.00000000 NULL      -0.02856100       0.08028300       0.15296100
P        5.17845537       8.40200766       7.96627988       0.00000000 NULL       0.03256000      -0.07642400      -0.01410600
P        2.07145983       3.96945438       7.09368577       0.00000000 NULL      -0.03256000      -0.07642700      -0.01410600
P        6.70819486       1.10775224       6.72663173       0.00000000 NULL       0.08710500       0.04814300       0.04940300
P        0.54172034       5.54030553       7.59922584       0.00000000 NULL      -0.08710600       0.04814400       0.04940300
P        6.88322385       6.03304953       5.56412192       0.00000000 NULL       0.02762800       0.01081000      -0.03820000
P        0.36669135       1.60049625       4.69152781       0.00000000 NULL      -0.02762800       0.01081000      -0.03820000
P        1.47426649       3.61670350       4.92905659       0.00000000 NULL      -0.03433500      -0.03834600      -0.04461800
P        5.77564871       8.04925678       5.80165070       0.00000000 NULL       0.03433500      -0.03834600      -0.04461800
P        7.88500087       3.81942922       2.66587321       0.00000000 NULL       0.03434600       0.02282300      -0.01215600
P       -0.63508567       8.25198251       3.53846732       0.00000000 NULL      -0.03434600       0.02282400      -0.01215600
22
Lattice="7.240300383565913 0.0 0.0 0.0 8.876191971081337 1.744527568013503 0.0 0.7521899884394624 7.958361901004937" Properties=species:S:1:pos:R:3:initial_magmoms:R:1:castep_labels:S:1:forces:R:3 n_minim_iter=3 energy=-117.462303526248 stress="-0.00025771307257887874 0.0 0.0 0.0 0.00025679665318040717 -0.0002957843219371222 0.0 -0.0002957843219371222 0.0008008110991383109" free_energy=-117.462303526248 pbc="T T T"
P        3.70738662       5.55631207       6.83825498       0.00000000 NULL      -0.06586900       0.01558800       0.09014000
P        3.53291377       1.11821608       5.96599120       0.00000000 NULL       0.06587000       0.01558800       0.09014000
P        5.04446876       3.74698268       4.90829017       0.00000000 NULL       0.04283000      -0.09072300      -0.04999200
P        2.19583162       8.18507867       5.78055395       0.00000000 NULL      -0.04283100      -0.09072400      -0.04999200
P        5.59111356       6.25370342       3.37781531       0.00000000 NULL       0.09194900      -0.03393200      -0.00110500
P        1.64918683       1.81560743       2.50555153       0.00000000 NULL      -0.09194900      -0.03393200      -0.00110500
P        3.25527455       2.51888030       4.15382081       0.00000000 NULL       0.00879800       0.03240100       0.00352100
P        3.98502583       6.95697629       5.02608459       0.00000000 NULL      -0.00879800       0.03240100       0.00352100
P        6.13531735       2.51762344       3.33634046       0.00000000 NULL      -0.00722200       0.02789900      -0.06122300
P        1.10498304       6.95571943       4.20860425       0.00000000 NULL       0.00722200       0.02789900      -0.06122300
P        2.22019685       7.02007934       7.70959682       0.00000000 NULL       0.02988800       0.07673400       0.10306300
P        5.02010354       2.58198335       6.83733303       0.00000000 NULL      -0.02988900       0.07673400       0.10306300
P        5.17184576       8.40892605       7.97897848       0.00000000 NULL       0.03408000      -0.05741300      -0.03361800
P        2.06845463       3.97083006       7.10671469       0.00000000 NULL      -0.03407900      -0.05741300      -0.03361800
P        6.69980189       1.10628769       6.74073528       0.00000000 NULL       0.08981000       0.05361200       0.02752200
P        0.54049850       5.54438368       7.61299907       0.00000000 NULL      -0.08981000       0.05361200       0.02752300
P        6.87429720       6.03856869       5.57265282       0.00000000 NULL       0.03007100       0.02198900      -0.04479300
P        0.36600318       1.60047270       4.70038904       0.00000000 NULL      -0.03007100       0.02198900      -0.04479300
P        1.47210159       3.61878337       4.93738552       0.00000000 NULL      -0.04772200      -0.03498500      -0.04444300
P        5.76819879       8.05687935       5.80964930       0.00000000 NULL       0.04772200      -0.03498500      -0.04444300
P        7.87476510       3.82332843       2.66959323       0.00000000 NULL       0.04434200      -0.01117000       0.01092700
P       -0.63446472       8.26142442       3.54185701       0.00000000 NULL      -0.04434200      -0.01117000       0.01092700
22
Lattice="7.222779489270637 0.0 0.0 0.0 8.908920872154388 1.7652225092481633 0.0 0.7779141376752328 7.936019441037859" Properties=species:S:1:pos:R:3:initial_magmoms:R:1:castep_labels:S:1:forces:R:3 n_minim_iter=4 energy=-117.470391901488 stress="-0.0011053994017950525 0.0 0.0 0.0 0.0014518252477073732 0.000808020761599032 0.0 0.000808020761599032 -0.0006210382749859542" free_energy=-117.470391901488 pbc="T T T"
P        3.69257545       5.59419449       6.84191835       0.00000000 NULL      -0.05986900       0.02391100       0.09509500
P        3.53020404       1.13973406       5.95930710       0.00000000 NULL       0.05987000       0.02391000       0.09509500
P        5.03572487       3.76612667       4.89884439       0.00000000 NULL       0.01347500      -0.03335500      -0.04668000
P        2.18705462       8.22058710       5.78145565       0.00000000 NULL      -0.01347500      -0.03335500      -0.04668000
P        5.58480405       6.27978253       3.38495462       0.00000000 NULL       0.06141900      -0.00268600      -0.02002500
P        1.63797544       1.82532210       2.50234337       0.00000000 NULL      -0.06141900      -0.00268600      -0.02002500
P        3.24758935       2.54290626       4.14752966       0.00000000 NULL       0.01017100      -0.02250200      -0.00399000
P        3.97519014       6.99736670       5.03014091       0.00000000 NULL      -0.01017100      -0.02250200      -0.00399000
P        6.12000592       2.53785884       3.32794174       0.00000000 NULL      -0.07684600       0.02341500      -0.09865600
P        1.10277357       6.99231928       4.21055300       0.00000000 NULL       0.07684700       0.02341500      -0.09865600
P        2.21709644       7.07043730       7.71684500       0.00000000 NULL      -0.00885500      -0.04981100       0.07963700
P        5.00568305       2.61597686       6.83423375       0.00000000 NULL       0.00885500      -0.04981200       0.07963700
P        5.16215273       8.45346204       7.97715551       0.00000000 NULL       0.07480600       0.07450800       0.03224700
P        2.06062676       3.99900161       7.09454426       0.00000000 NULL      -0.07480600       0.07450600       0.03224600
P        6.69001501       1.13375439       6.72628263       0.00000000 NULL       0.00516500       0.00349300       0.04308700
P        0.53276448       5.58821482       7.60889388       0.00000000 NULL      -0.00516600       0.00349400       0.04308800
P        6.86000331       6.07535119       5.56954476       0.00000000 NULL      -0.01359700      -0.01664000      -0.00102000
P        0.36277618       1.62089075       4.68693351       0.00000000 NULL       0.01359700      -0.01664000      -0.00102000
P        1.46546642       3.64103884       4.92887883       0.00000000 NULL      -0.03322500      -0.02631800      -0.00005700
P        5.75731306       8.09549927       5.81149008       0.00000000 NULL       0.03322500      -0.02631700      -0.00005600
P        7.85871772       3.84303084       2.67262691       0.00000000 NULL       0.06743400       0.02598600      -0.07963900
P       -0.63593823       8.29749128       3.55523817       0.00000000 NULL      -0.06743400       0.02598600      -0.07963900
22
Lattice="7.247768967247525 0.0 0.0 0.0 8.859615465169462 1.751336180788836 0.0 0.7611538001025789 7.936597367854499" Properties=species:S:1:pos:R:3:initial_magmoms:R:1:castep_labels:S:1:forces:R:3 n_minim_iter=5 energy=-117.478207384651 stress="1.3680909994955914e-05 -0.0 -0.0 -0.0 -0.0002200746384130116 -4.970330604892609e-05 -0.0 -4.970330604892609e-05 3.6622435966029644e-05" free_energy=-117.478207384651 pbc="T T T"
P        3.69898358       5.55480874       6.84377654       0.00000000 NULL      -0.05701000       0.02851100       0.06337300
P        3.54878539       1.12500100       5.96810845       0.00000000 NULL       0.05700800       0.02851200       0.06337300
P        5.05667648       3.73155650       4.88825423       0.00000000 NULL      -0.02102900       0.01361400       0.02939400
P        2.19109249       8.16136423       5.76392233       0.00000000 NULL       0.02102900       0.01361400       0.02939500
P        5.61185367       6.23839277       3.37466431       0.00000000 NULL       0.01697100      -0.07197500      -0.03729100
P        1.63591530       1.80858504       2.49899622       0.00000000 NULL      -0.01697100      -0.07197500      -0.03729100
P        3.25912031       2.52661801       4.14350403       0.00000000 NULL       0.01724800      -0.08231500       0.01350700
P        3.98864865       6.95642574       5.01917212       0.00000000 NULL      -0.01724800      -0.08231600       0.01350700
P        6.13989768       2.52208128       3.31819853       0.00000000 NULL      -0.03056500      -0.03452000      -0.09970200
P        1.10787129       6.95188902       4.19386662       0.00000000 NULL       0.03056500      -0.03452000      -0.09970200
P        2.22688896       7.02631189       7.71826816       0.00000000 NULL      -0.07277100      -0.03116300       0.01066400
P        5.02088001       2.59650416       6.84260007       0.00000000 NULL       0.07277100      -0.03116100       0.01066400
P        5.18358794       8.39252704       7.96392977       0.00000000 NULL       0.10847900       0.09289300       0.04208400
P        2.06418103       3.96271931       7.08826168       0.00000000 NULL      -0.10847900       0.09289700       0.04208500
P        6.71948281       1.12119625       6.72948545       0.00000000 NULL      -0.06619100      -0.00935300       0.01889200
P        0.52828616       5.55100398       7.60515354       0.00000000 NULL       0.06619200      -0.00935500       0.01889100
P        6.88587705       6.03614713       5.55749950       0.00000000 NULL       0.03336300      -0.05844900       0.00550600
P        0.36189192       1.60633940       4.68183141       0.00000000 NULL      -0.03336400      -0.05844900       0.00550600
P        1.46717464       3.61046648       4.92036817       0.00000000 NULL       0.02358300       0.04500600       0.05095400
P        5.78059433       8.04027422       5.79603626       0.00000000 NULL      -0.02358300       0.04500600       0.05095400
P        7.88958064       3.81894258       2.66624358       0.00000000 NULL       0.01461200       0.10774700      -0.09738100
P       -0.64181167       8.24875031       3.54191167       0.00000000 NULL      -0.01461200       0.10774700      -0.09738200
22
Lattice="7.249894396903868 0.0 0.0 0.0 8.849876811064934 1.7387899007568783 0.0 0.7620411974577675 7.870906848675675" Properties=species:S:1:pos:R:3:initial_magmoms:R:1:castep_labels:S:1:forces:R:3 n_minim_iter=6 energy=-117.493680929165 stress="-0.0004436649597972584 0.0 0.0 0.0 0.00016413120652038345 -0.00026344562492897853 0.0 -0.00026344562492897853 -0.0010373713976496157" free_energy=-117.493680929165 pbc="T T T"
P        3.67607474       5.55658093       6.81923347       0.00000000 NULL       0.10959100      -0.02792100       0.02109400
P        3.57381966       1.13164252       5.94983852       0.00000000 NULL      -0.10959100      -0.02792200       0.02109400
P        5.06252088       3.71459831       4.84083540       0.00000000 NULL      -0.04157700       0.09759400       0.02626000
P        2.18737352       8.13953672       5.71023035       0.00000000 NULL       0.04157700       0.09759400       0.02626000
P        5.63374156       6.21314328       3.33997949       0.00000000 NULL       0.00108000       0.08346100      -0.02947100
P        1.61615283       1.78820488       2.47058454       0.00000000 NULL      -0.00108000       0.08346100      -0.02947100
P        3.26353365       2.51899626       4.11006197       0.00000000 NULL      -0.04919500      -0.13218800       0.01251000
P        3.98636074       6.94393466       4.97945692       0.00000000 NULL       0.04919500      -0.13218700       0.01251000
P        6.13392750       2.52051855       3.26060502       0.00000000 NULL       0.11319300       0.01394900      -0.07648100
P        1.11596690       6.94545695       4.12999997       0.00000000 NULL      -0.11319300       0.01394900      -0.07648000
P        2.22013779       7.02590984       7.68161289       0.00000000 NULL      -0.09859800       0.06719800       0.02895000
P        5.02975661       2.60097143       6.81221794       0.00000000 NULL       0.09859800       0.06719800       0.02895000
P        5.21125456       8.39147042       7.90331534       0.00000000 NULL       0.02309700       0.01749800       0.13251400
P        2.03863983       3.96653201       7.03392038       0.00000000 NULL      -0.02309700       0.01749600       0.13251400
P        6.72427798       1.12909632       6.68458903       0.00000000 NULL       0.06814900      -0.01161100       0.08962500
P        0.52561642       5.55403472       7.55398398       0.00000000 NULL      -0.06815000      -0.01161100       0.08962600
P        6.89822718       6.02405358       5.50556622       0.00000000 NULL       0.00659900       0.03539300      -0.11072000
P        0.35166721       1.59911517       4.63617127       0.00000000 NULL      -0.00659900       0.03539300      -0.11072000
P        1.46401120       3.60650952       4.88027296       0.00000000 NULL       0.02412800      -0.02529800      -0.04835800
P        5.78588320       8.03144793       5.74966791       0.00000000 NULL      -0.02412800      -0.02529700      -0.04835800
P        7.90257234       3.83323025       2.62712537       0.00000000 NULL      -0.02086200      -0.11807400      -0.04592400
P       -0.65267794       8.25816866       3.49652032       0.00000000 NULL       0.02086200      -0.11807400      -0.04592400
22
Lattice="7.24938621129628 0.0 0.0 0.0 8.836287141551102 1.7638264859284938 0.0 0.7808872348584168 7.883056891416743" Properties=species:S:1:pos:R:3:initial_magmoms:R:1:castep_labels:S:1:forces:R:3 n_minim_iter=7 energy=-117.496079801135 stress="-0.0004944794161990421 -0.0 -0.0 -0.0 -0.0005746030215530787 0.0007159405765346319 -0.0 0.0007159405765346319 -0.00016915656773306824" free_energy=-117.496079801135 pbc="T T T"
P        3.67361179       5.56357517       6.84686989       0.00000000 NULL       0.11998700      -0.04373700       0.04077400
P        3.57577442       1.14543160       5.96495665       0.00000000 NULL      -0.11998800      -0.04373600       0.04077400
P        5.06230189       3.71862130       4.85597722       0.00000000 NULL      -0.03203800       0.09033500      -0.01912100
P        2.18708432       8.13676487       5.73789047       0.00000000 NULL       0.03203800       0.09033500      -0.01912100
P        5.63621694       6.20737683       3.35894967       0.00000000 NULL      -0.01236400       0.08878400      -0.00927100
P        1.61316927       1.78923326       2.47703643       0.00000000 NULL       0.01236400       0.08878400      -0.00927100
P        3.26323681       2.52222004       4.12213746       0.00000000 NULL      -0.04440100      -0.10870000       0.02177400
P        3.98614940       6.94036361       5.00405071       0.00000000 NULL       0.04440100      -0.10870100       0.02177400
P        6.13383795       2.52401569       3.26629256       0.00000000 NULL       0.07609400       0.04175700      -0.03997200
P        1.11554826       6.94215926       4.14820581       0.00000000 NULL      -0.07609400       0.04175600      -0.03997200
P        2.21782270       7.03310790       7.71341077       0.00000000 NULL      -0.07484900       0.06771100       0.01168600
P        5.03156351       2.61496433       6.83149752       0.00000000 NULL       0.07484900       0.06771100       0.01168600
P        5.21481511       8.39592909       7.93701351       0.00000000 NULL       0.01849500      -0.01887000       0.10291900
P        2.03457110       3.97778552       7.05510026       0.00000000 NULL      -0.01849600      -0.01886800       0.10292000
P        6.72490700       1.14512208       6.69853517       0.00000000 NULL       0.09197400      -0.02871300       0.07104800
P        0.52447922       5.56326565       7.58044841       0.00000000 NULL      -0.09197400      -0.02871400       0.07104700
P        6.89935346       6.02554743       5.52590595       0.00000000 NULL      -0.00664000       0.01241200      -0.08097300
P        0.35003276       1.60740386       4.64399271       0.00000000 NULL       0.00663900       0.01241200      -0.08097300
P        1.46370145       3.61139616       4.89531571       0.00000000 NULL       0.03122000      -0.01658500      -0.05380200
P        5.78568476       8.02953974       5.77722895       0.00000000 NULL      -0.03122000      -0.01658600      -0.05380200
P        7.90322069       3.83331620       2.63752577       0.00000000 NULL      -0.01436700      -0.08439300      -0.04506300
P       -0.65383448       8.25145978       3.51943901       0.00000000 NULL       0.01436700      -0.08439300      -0.04506300
22
Lattice="7.252358266003658 0.0 0.0 0.0 8.84104674179518 1.7105800944751546 0.0 0.7517135621698062 7.791397629363977" Properties=species:S:1:pos:R:3:initial_magmoms:R:1:castep_labels:S:1:forces:R:3 n_minim_iter=8 energy=-117.516276743648 stress="-0.0007233093026786423 -0.0 -0.0 -0.0 -0.0001026625978675016 0.0005634714093963568 -0.0 0.0005634714093963568 -0.0015092401383303086" free_energy=-117.516276743648 pbc="T T T"
P        3.66722284       5.54658700       6.78383812       0.00000000 NULL       0.03156200       0.00109000       0.06306100
P        3.58513543       1.12606363       5.92854807       0.00000000 NULL      -0.03156100       0.00108900       0.06306100
P        5.06307841       3.70384812       4.78129548       0.00000000 NULL      -0.06875100      -0.01650700       0.00203200
P        2.18927986       8.12437149       5.63658552       0.00000000 NULL       0.06875100      -0.01650700       0.00203200
P        5.65868943       6.19642038       3.28828084       0.00000000 NULL      -0.09313900      -0.01282200      -0.17620800
P        1.59366884       1.77589701       2.43299079       0.00000000 NULL       0.09313900      -0.01282200      -0.17620800
P        3.26092460       2.48527820       4.07042794       0.00000000 NULL       0.07363300      -0.07403500       0.07023600
P        3.99143367       6.90580157       4.92571799       0.00000000 NULL      -0.07363400      -0.07403500       0.07023600
P        6.14504223       2.51945706       3.18195078       0.00000000 NULL      -0.07927900       0.06870200      -0.01771100
P        1.10731604       6.93998043       4.03724083       0.00000000 NULL       0.07927900       0.06870200      -0.01771100
P        2.19761722       7.02996398       7.62664445       0.00000000 NULL      -0.02229200       0.01388500      -0.06965000
P        5.05474105       2.60944061       6.77135440       0.00000000 NULL       0.02229200       0.01388400      -0.06965000
P        5.24703453       8.38299908       7.83566034       0.00000000 NULL      -0.10196400      -0.00021900       0.10857900
P        2.00532374       3.96247571       6.98037030       0.00000000 NULL       0.10196400      -0.00022100       0.10857900
P        6.74214161       1.12640894       6.64016925       0.00000000 NULL       0.11684900       0.06095100       0.03310600
P        0.51021666       5.54693231       7.49545930       0.00000000 NULL      -0.11685000       0.06095200       0.03310700
P        6.91394798       6.00993501       5.41848286       0.00000000 NULL      -0.05378400       0.02032400      -0.01460200
P        0.33841029       1.58941164       4.56319281       0.00000000 NULL       0.05378400       0.02032400      -0.01460200
P        1.46524905       3.59355276       4.81862893       0.00000000 NULL       0.03792300      -0.03607800       0.03626800
P        5.78710921       8.01407613       5.67391897       0.00000000 NULL      -0.03792300      -0.03607800       0.03626900
P        7.91391810       3.83010009       2.57030546       0.00000000 NULL      -0.01016800      -0.02528900      -0.03511200
P       -0.66155983       8.25062346       3.42559551       0.00000000 NULL       0.01016800      -0.02528900      -0.03511300
22
Lattice="7.2215347285075415 0.0 0.0 0.0 8.82356885197022 1.6120160000691948 0.0 0.6889220395251063 7.65489857581214" Properties=species:S:1:pos:R:3:initial_magmoms:R:1:castep_labels:S:1:forces:R:3 n_minim_iter=9 energy=-117.559262198301 stress="-0.0007733017152652657 0.0 -0.0 0.0 0.0005411798817604814 0.0004384384559931427 -0.0 0.0004384384559931427 -0.0031035664651605497" free_energy=-117.559262198301 pbc="T T T"
P        3.63423174       5.49804836       6.70107141       0.00000000 NULL       0.00778200      -0.02923900       0.16242500
P        3.58730298       1.08626393       5.89506341       0.00000000 NULL      -0.00778200      -0.02923900       0.16242500
P        5.02527098       3.64668800       4.66560099       0.00000000 NULL      -0.00969200       0.11880600      -0.05937700
P        2.19626375       8.05847242       5.47160899       0.00000000 NULL       0.00969200       0.11880700      -0.05937700
P        5.65183141       6.14473062       3.13115279       0.00000000 NULL      -0.12813000       0.08216400      -0.19488700
P        1.56970332       1.73294620       2.32514479       0.00000000 NULL       0.12813000       0.08216400      -0.19488600
P        3.26230422       2.39451193       4.01026062       0.00000000 NULL      -0.02874000      -0.11251600      -0.05053400
P        3.95923051       6.80629635       4.81626862       0.00000000 NULL       0.02874000      -0.11251600      -0.05053400
P        6.11559675       2.51551246       3.04189939       0.00000000 NULL      -0.05598900      -0.02408900       0.04451000
P        1.10593798       6.92729689       3.84790739       0.00000000 NULL       0.05598900      -0.02408800       0.04451000
P        2.14914863       7.00331554       7.46799599       0.00000000 NULL      -0.05916300      -0.03595300       0.08869600
P        5.07238610       2.59153111       6.66198799       0.00000000 NULL       0.05916300      -0.03595300       0.08869600
P        5.25504067       8.32453471       7.68598416       0.00000000 NULL      -0.04007100       0.09175900       0.09146100
P        1.96649406       3.91275028       6.87997616       0.00000000 NULL       0.04007100       0.09175800       0.09146100
P        6.76474981       1.10204466       6.55710615       0.00000000 NULL      -0.01604400       0.01764800      -0.14150200
P        0.45678492       5.51382909       7.36311415       0.00000000 NULL       0.01604400       0.01764900      -0.14150100
P        6.89828775       5.96488751       5.23876492       0.00000000 NULL      -0.07475700       0.02242600      -0.08028600
P        0.32324698       1.55310308       4.43275692       0.00000000 NULL       0.07475700       0.02242600      -0.08028600
P        1.46824665       3.54117351       4.70615751       0.00000000 NULL       0.05732900      -0.02538000       0.10244100
P        5.75328808       7.95295793       5.51216551       0.00000000 NULL      -0.05732900      -0.02538000       0.10244100
P        7.89104625       3.81049072       2.45563607       0.00000000 NULL       0.09400000      -0.10562700       0.03705100
P       -0.66951152       8.22227515       3.26164407       0.00000000 NULL      -0.09400000      -0.10562700       0.03705100
22
Lattice="7.187559231586744 0.0 0.0 0.0 8.812705349027786 1.5064893032831774 0.0 0.6247860045649885 7.496483211883834" Properties=species:S:1:pos:R:3:initial_magmoms:R:1:castep_labels:S:1:forces:R:3 n_minim_iter=10 energy=-117.614813783418 stress="-0.00022667267111377447 -0.0 -0.0 -0.0 0.0020909645937717673 0.0007697684272290678 -0.0 0.0007697684272290678 -0.005684057573847078" free_energy=-117.614813783418 pbc="T T T"
P        3.59206425       5.44830158       6.63232411       0.00000000 NULL      -0.01489300       0.09166800       0.15512700
P        3.59549498       1.04194890       5.87907945       0.00000000 NULL       0.01489300       0.09166900       0.15512700
P        4.98814331       3.60200863       4.52448161       0.00000000 NULL      -0.07422000       0.02749800       0.00346600
P        2.19941592       8.00836131       5.27772626       0.00000000 NULL       0.07422000       0.02749700       0.00346600