6
Lattice="2.7742200000000006 1.3632614825766364e-15 6.2946392169843455e-16 0.10043309233269145 6.654972203312685 -2.0269113847875193e-15 0.8688624178983259 1.7111891696974566 7.402822284498938" Properties=species:S:1:pos:R:3:initial_magmoms:R:1:castep_labels:S:1 n_minim_iter=1 pbc="T T T"
P        2.25881136       5.32105114       5.86299009       0.00000000 NULL
P        2.23939196       2.43564846       1.50422980       0.00000000 NULL
P        2.42106228       3.16658885       6.64794687       0.00000000 NULL
P        2.90230467       3.21322313       3.48039766       0.00000000 NULL
P        1.44778465       4.37591351       2.49025834       0.00000000 NULL
P        1.52184051       3.68558461       4.89502222       0.00000000 NULL
6
Lattice="2.778692480329312 0.0008249292185256123 0.0010794856770002088 0.10257389805424795 6.659582036397364 0.0006832274676628951 0.873652528503442 1.7133417088138883 7.418337067586039" Properties=species:S:1:pos:R:3:initial_magmoms:R:1:castep_labels:S:1 n_minim_iter=2 pbc="T T T"
P        2.26640575       5.32609265       5.87642464       0.00000000 NULL
P        2.24426189       2.43815267       1.50840076       0.00000000 NULL
P        2.42860874       3.17004977       6.66283936       0.00000000 NULL
P        2.90920746       3.21619268       3.48883778       0.00000000 NULL
P        1.45251536       4.37991545       2.49593532       0.00000000 NULL
P        1.52709983       3.68909501       4.90598504       0.00000000 NULL
6
Lattice="2.955900731020112 0.03444961816958387 0.0461241648778865 0.18965024488978352 6.836282884678224 0.028122177503542012 1.0700917250057662 1.7977030856588807 8.03921749285569" Properties=species:S:1:pos:R:3:initial_magmoms:R:1:castep_labels:S:1 n_minim_iter=3 pbc="T T T"
P        2.57418883       5.52194512       6.41542554       0.00000000 NULL
P        2.43922124       2.53610907       1.67687011       0.00000000 NULL
P        2.73433084       3.30566829       7.26010389       0.00000000 NULL
P        3.18627885       3.33208688       3.82800014       0.00000000 NULL
P        1.64363551       4.53503641       2.72339148       0.00000000 NULL
P        1.74054050       3.82551048       5.34546188       0.00000000 NULL
6
Lattice="2.9731717241210163 0.05873965789993073 0.07208723379699122 0.24854395860664677 6.759870401457887 0.017247033376232537 1.159764121178954 1.772293736169717 8.173554712186341" Properties=species:S:1:pos:R:3:initial_magmoms:R:1:castep_labels:S:1 n_minim_iter=4 pbc="T T T"
P        2.69178130       5.46504280       6.53278594       0.00000000 NULL
P        2.48631023       2.52917610       1.72443378       0.00000000 NULL
P        2.84188447       3.28294105       7.39115075       0.00000000 NULL
P        3.26253377       3.30692612       3.90676217       0.00000000 NULL
P        1.71817256       4.49377007       2.76394074       0.00000000 NULL
P        1.82435510       3.78851126       5.44486649       0.00000000 NULL
6
Lattice="2.983518455639271 0.1013233818220327 0.11116165071508943 0.3510710304528043 6.598905303595338 0.00019747548675193887 1.2935385362073315 1.7233062982182166 8.30642510831142" Properties=species:S:1:pos:R:3:initial_magmoms:R:1:castep_labels:S:1 n_minim_iter=5 pbc="T T T"
P        2.86889848       5.34522317       6.65536149       0.00000000 NULL
P        2.54933407       2.50739185       1.78372330       0.00000000 NULL
P        2.99742166       3.23388061       7.52291212       0.00000000 NULL
P        3.36877387       3.25282528       3.99017185       0.00000000 NULL
P        1.83223125       4.40337797       2.80011102       0.00000000 NULL
P        1.94726165       3.70892950       5.55163624       0.00000000 NULL
6
Lattice="3.0257514264004124 0.2010973053122146 0.1970731329990818 0.591943879503901 6.309386441585755 -0.010634349566688567 1.5975570112856192 1.6636733268994766 8.541033595012607" Properties=species:S:1:pos:R:3:initial_magmoms:R:1:castep_labels:S:1 n_minim_iter=6 pbc="T T T"
P        3.29209521       5.16540772       6.89862018       0.00000000 NULL
P        2.71046128       2.48940872       1.91448369       0.00000000 NULL
P        3.36537584       3.18919830       7.76192446       0.00000000 NULL
P        3.63418263       3.18473746       4.14779021       0.00000000 NULL
P        2.10182475       4.26587032       2.87414726       0.00000000 NULL
P        2.22355552       3.58715870       5.76669425       0.00000000 NULL
6
Lattice="3.0659166523879944 0.2268053360568617 0.202502118621567 0.6550679820832622 6.446334912360024 0.04057274526530611 1.6404804906419275 1.7634418856683813 8.52060306003141" Properties=species:S:1:pos:R:3:initial_magmoms:R:1:castep_labels:S:1 n_minim_iter=7 pbc="T T T"
P        3.39639895       5.34475352       6.91577156       0.00000000 NULL
P        2.76856934       2.56093209       1.93766130       0.00000000 NULL
P        3.44775581       3.32785352       7.74858981       0.00000000 NULL
P        3.71837444       3.28985306       4.13691208       0.00000000 NULL
P        2.17205734       4.41059510       2.89796884       0.00000000 NULL
P        2.26392458       3.71073371       5.80347095       0.00000000 NULL
6
Lattice="3.0442724905383667 0.23304301777303574 0.21745892195954244 0.669247754534161 6.376489556319379 0.022503675559015113 1.677460474801046 1.7266762217401246 8.407782487386605" Properties=species:S:1:pos:R:3:initial_magmoms:R:1:castep_labels:S:1 n_minim_iter=8 pbc="T T T"
P        3.42413104       5.27451981       6.82235473       0.00000000 NULL
P        2.76465049       2.53643039       1.92669629       0.00000000 NULL
P        3.47419629       3.28328547       7.64647040       0.00000000 NULL
P        3.72273319       3.24967376       4.08149190       0.00000000 NULL
P        2.18444207       4.36351673       2.85467078       0.00000000 NULL
P        2.28118433       3.66275010       5.73672591       0.00000000 NULL
6
Lattice="3.062093980446445 0.23833490402328397 0.22940470046812758 0.6825874403701588 6.399604634325909 0.01802044594732283 1.7181826657591583 1.7287598089839016 8.412100096310287" Properties=species:S:1:pos:R:3:initial_magmoms:R:1:castep_labels:S:1 n_minim_iter=9 pbc="T T T"
P        3.47622058       5.29373876       6.82896936       0.00000000 NULL
P        2.79021840       2.54577127       1.93854920       0.00000000 NULL
P        3.52644308       3.29343879       7.65518672       0.00000000 NULL
P        3.76403255       3.25971169       4.08593348       0.00000000 NULL
P        2.21334807       4.38548502       2.85718527       0.00000000 NULL
P        2.31272493       3.67451454       5.74745335       0.00000000 NULL
6
Lattice="3.0682102135168723 0.24223662136568713 0.2379951035373286 0.692168545206679 6.399483561648788 0.013578470615773433 1.745427790077732 1.7246272624371801 8.382051493782178" Properties=species:S:1:pos:R:3:initial_magmoms:R:1:castep_labels:S:1 n_minim_iter=10 pbc="T T T"
P        3.50838240       5.29242211       6.80648441       0.00000000 NULL
P        2.80331185       2.54599901       1.94126860       0.00000000 NULL
P        3.55851030       3.29210905       7.63047494       0.00000000 NULL
P        3.78721862       3.25785634       4.07083753       0.00000000 NULL
P        2.23102999       4.39046034       2.84752129       0.00000000 NULL
P        2.33099830       3.67315815       5.73451676       0.00000000 NULL
6
Lattice="3.1137078959864715 0.26403125585074794 0.2898484768933916 0.7460979955112079 6.416975401024495 -0.010820681312314092 1.9114878994758153 1.7065187875181143 8.202987838773339" Properties=species:S:1:pos:R:3:initial_magmoms:R:1:castep_labels:S:1 n_minim_iter=11 pbc="T T T"
P        3.70527608       5.30057051       6.67488947       0.00000000 NULL
P        2.88809657       2.55164963       1.95838749       0.00000000 NULL
P        3.75714270       3.29312806       7.48662258       0.00000000 NULL
P        3.93426134       3.25467399       3.98181197       0.00000000 NULL
P        2.34019486       4.43444782       2.79182758       0.00000000 NULL
P        2.44369994       3.67549844       5.65529415       0.00000000 NULL
6
Lattice="3.2096294313211176 0.2674626324542194 0.3232397037611741 0.7578019744062147 6.447369838475187 0.012796634072144366 2.0327485312800277 1.7403034497398906 8.093747271639957" Properties=species:S:1:pos:R:3:initial_magmoms:R:1:castep_labels:S:1 n_minim_iter=12 pbc="T T T"
P        3.86174110       5.34895626       6.61861036       0.00000000 NULL
P        2.98546184       2.54491551       2.00160335       0.00000000 NULL
P        3.93122475       3.32913772       7.41398390       0.00000000 NULL
P        4.10945886       3.25639014       3.90399024       0.00000000 NULL
P        2.43480522       4.51530887       2.78426665       0.00000000 NULL
P        2.51517710       3.71582732       5.63341016       0.00000000 NULL
6
Lattice="3.1367941081800295 0.2720741940695198 0.325334239164105 0.7662276715858294 6.225892622830538 -0.0030777687430873285 2.018370743172131 1.6670138846726978 7.996483718804115" Properties=species:S:1:pos:R:3:initial_magmoms:R:1:castep_labels:S:1 n_minim_iter=13 pbc="T T T"
P        3.81206837       5.15967204       6.53266642       0.00000000 NULL
P        2.92870949       2.46804686       1.98698656       0.00000000 NULL
P        3.87555130       3.21063164       7.32472060       0.00000000 NULL
P        4.04808800       3.14839373       3.84410597       0.00000000 NULL
P        2.40819256       4.35999402       2.74279840       0.00000000 NULL
P        2.48511930       3.58612158       5.56571848       0.00000000 NULL
6
Lattice="3.184900251228006 0.27813615577958756 0.3339810252794643 0.7825110360574634 6.3429467922680445 0.006023029864003475 2.0602496871397302 1.7087293697030594 8.11157158412459" Properties=species:S:1:pos:R:3:initial_magmoms:R:1:castep_labels:S:1 n_minim_iter=14 pbc="T T T"
P        3.88207287       5.27205440       6.63341057       0.00000000 NULL
P        2.97578872       2.51203052       2.01957153       0.00000000 NULL
P        3.94509272       3.27515755       7.43943813       0.00000000 NULL
P        4.11930197       3.21025679       3.90647525       0.00000000 NULL
P        2.45279544       4.45389678       2.78945350       0.00000000 NULL
P        2.53053650       3.65997694       5.64794085       0.00000000 NULL
