26
Lattice="5.13499 4.799697408448672e-16 6.633419155232257e-16 0.7213637722741741 7.900847338871345 -3.078861193745031e-15 1.2933228817499134 3.338928249178453 14.64774117029585" Properties=species:S:1:pos:R:3:initial_magmoms:R:1:castep_labels:S:1 n_minim_iter=1 pbc="T T T"
P        3.18692367       2.73445066      10.81761172       0.00000000 NULL
P        3.96275298       8.50532493       3.83012945       0.00000000 NULL
P        3.37119378       3.66444581       1.92472051       0.00000000 NULL
P        3.77848287       7.57532978      12.72302066       0.00000000 NULL
P        2.13802208       5.17320955       2.45150309       0.00000000 NULL
P        5.01165457       6.06656604      12.19623808       0.00000000 NULL
P        1.24209029       6.89645269       1.19939074       0.00000000 NULL
P        5.90758636       4.34332290      13.44835043       0.00000000 NULL
P        3.14301692       8.91790901      10.03204458       0.00000000 NULL
P        4.00665973       2.32186658       4.61569659       0.00000000 NULL
P        5.45338088       4.54918001       1.71576023       0.00000000 NULL
P        1.69629577       6.69059558      12.93198094       0.00000000 NULL
P        5.45192308       1.47808500       5.78703251       0.00000000 NULL
P        1.69775357       9.76169059       8.86070866       0.00000000 NULL
P        4.12395662      10.84614437      13.49934947       0.00000000 NULL
P        3.02572003       0.39363122       1.14839170       0.00000000 NULL
P        5.33641599       2.87039811       7.27435976       0.00000000 NULL
P        1.81326066       8.36937748       7.37338141       0.00000000 NULL
P        3.82495140       7.56456573       8.32418387       0.00000000 NULL
P        3.32472525       3.67520986       6.32355730       0.00000000 NULL
P        2.02203435       3.85679600       9.63614982       0.00000000 NULL
P        5.12764230       7.38297959       5.01159135       0.00000000 NULL
P        1.04102754       3.33780651       4.12485957       0.00000000 NULL
P        6.10864911       7.90196908      10.52288160       0.00000000 NULL
P        4.54360079       6.54393977       6.75711140       0.00000000 NULL
P        2.60607586       4.69583582       7.89062977       0.00000000 NULL
26
Lattice="5.14141639223786 -0.007671626372251981 0.005024454436908383 0.7104627613157852 7.9179455884779015 0.004374892785529858 1.3042855707192462 3.3514794994385815 14.679480037912036" Properties=species:S:1:pos:R:3:initial_magmoms:R:1:castep_labels:S:1 n_minim_iter=2 pbc="T T T"
P        3.19773805       2.74109283      10.84358087       0.00000000 NULL
P        3.95842667       8.52066063       3.84529852       0.00000000 NULL
P        3.37197378       3.66858196       1.93340688       0.00000000 NULL
P        3.78419094       7.59317150      12.75547251       0.00000000 NULL
P        2.13540830       5.18332983       2.46099631       0.00000000 NULL
P        5.02075642       6.07842363      12.22788307       0.00000000 NULL
P        1.23456440       6.91097564       1.20615413       0.00000000 NULL
P        5.92160033       4.35077782      13.48272526       0.00000000 NULL
P        3.14352271       8.93802308      10.05929509       0.00000000 NULL
P        4.01264202       2.32373038       4.62958429       0.00000000 NULL
P        5.45493376       4.55231005       1.72650614       0.00000000 NULL
P        1.70123097       6.70944341      12.96237324       0.00000000 NULL
P        5.46242816       1.47587328       5.80424312       0.00000000 NULL
P        1.69373656       9.78588019       8.88463627       0.00000000 NULL
P        4.12617077      10.87131692      13.53522505       0.00000000 NULL
P        3.02999395       0.39043655       1.15365434       0.00000000 NULL
P        5.34572000       2.87282143       7.29516550       0.00000000 NULL
P        1.81044472       8.38893203       7.39371389       0.00000000 NULL
P        3.82652168       7.58025484       8.34791458       0.00000000 NULL
P        3.32964305       3.68149862       6.34096480       0.00000000 NULL
P        2.02796411       3.86721917       9.65899797       0.00000000 NULL
P        5.12820062       7.39453429       5.02988141       0.00000000 NULL
P        1.04128348       3.34583706       4.13557221       0.00000000 NULL
P        6.11488124       7.91591640      10.55330718       0.00000000 NULL
P        4.54616805       6.55511765       6.77794663       0.00000000 NULL
P        2.60999667       4.70663581       7.91093275       0.00000000 NULL
26
Lattice="5.223088265097013 -0.11299013233263033 0.07249898855302271 0.5598898668687536 8.140389342262871 0.06416149143979452 1.448848009705675 3.518479420236743 15.085824595219698" Properties=species:S:1:pos:R:3:initial_magmoms:R:1:castep_labels:S:1 n_minim_iter=3 pbc="T T T"
P        3.33890671       2.82792170      11.17776878       0.00000000 NULL
P        3.89291943       8.71795693       4.04471629       0.00000000 NULL
P        3.37778523       3.71963945       2.04785451       0.00000000 NULL
P        3.85404091       7.82623918      13.17463056       0.00000000 NULL
P        2.09605956       5.31420114       2.58583056       0.00000000 NULL
P        5.13576658       6.23167749      12.63665452       0.00000000 NULL
P        1.12938217       7.09954434       1.29622904       0.00000000 NULL
P        6.10244397       4.44633429      13.92625603       0.00000000 NULL
P        3.14359784       9.20018375      10.41250810       0.00000000 NULL
P        4.08822830       2.34569488       4.80997697       0.00000000 NULL
P        5.46881506       4.58826583       1.86896400       0.00000000 NULL
P        1.76301108       6.95761280      13.35352107       0.00000000 NULL
P        5.59792227       1.44309999       6.02751908       0.00000000 NULL
P        1.63390387      10.10277864       9.19496600       0.00000000 NULL
P        4.14740810      11.19997199      13.99985282       0.00000000 NULL
P        3.08441804       0.34590664       1.22263226       0.00000000 NULL
P        5.46433492       2.90166055       7.56478544       0.00000000 NULL
P        1.76749123       8.64421808       7.65769963       0.00000000 NULL
P        3.84069220       7.78389529       8.65600376       0.00000000 NULL
P        3.39113394       3.76198334       6.56648132       0.00000000 NULL
P        2.10399622       4.00422979       9.95302601       0.00000000 NULL
P        5.12782992       7.54164884       5.26945906       0.00000000 NULL
P        1.04222779       3.45088193       4.27412425       0.00000000 NULL
P        6.18959835       8.09499670      10.94836082       0.00000000 NULL
P        4.57367237       6.69829990       7.04928703       0.00000000 NULL
P        2.65815377       4.84757873       8.17319804       0.00000000 NULL
26
Lattice="5.201232575358383 -0.20489676573513035 0.11344838494200424 0.4154093162273134 8.173271208139852 0.12587620811258693 1.5003924219042806 3.618434409806348 15.092603789343471" Properties=species:S:1:pos:R:3:initial_magmoms:R:1:castep_labels:S:1 n_minim_iter=4 pbc="T T T"
P        3.36570197       2.86477279      11.20449379       0.00000000 NULL
P        3.75133234       8.72203606       4.12743459       0.00000000 NULL
P        3.31445748       3.69309503       2.09599238       0.00000000 NULL
P        3.80257683       7.89371382      13.23593600       0.00000000 NULL
P        2.01453651       5.32602119       2.63663173       0.00000000 NULL
P        5.10249780       6.26078767      12.69529666       0.00000000 NULL
P        1.01195175       7.12444859       1.35265911       0.00000000 NULL
P        6.10508256       4.46236026      13.97926928       0.00000000 NULL
P        3.05091205       9.26283034      10.48398985       0.00000000 NULL
P        4.06612226       2.32397851       4.84793853       0.00000000 NULL
P        5.37635764       4.53015571       1.94018688       0.00000000 NULL
P        1.74067668       7.05665314      13.39174150       0.00000000 NULL
P        5.59613745       1.39372980       6.06856457       0.00000000 NULL
P        1.52089687      10.19307905       9.26336381       0.00000000 NULL
P        4.04479407      11.28651427      14.08761696       0.00000000 NULL
P        3.07224024       0.30029458       1.24431142       0.00000000 NULL
P        5.44492613       2.87912249       7.61251310       0.00000000 NULL
P        1.67210818       8.70768637       7.71941528       0.00000000 NULL
P        3.75410245       7.82040708       8.72436347       0.00000000 NULL
P        3.36293186       3.76640177       6.60756492       0.00000000 NULL
P        2.10043819       4.05856302       9.98019426       0.00000000 NULL
P        5.01659613       7.52824583       5.35173412       0.00000000 NULL
P        1.00926262       3.48070470       4.29839174       0.00000000 NULL
P        6.10777170       8.10610415      11.03353664       0.00000000 NULL
P        4.49140066       6.70008545       7.12033578       0.00000000 NULL
P        2.62563365       4.88672340       8.21159260       0.00000000 NULL
26
Lattice="5.118158979272508 -0.48144554543736734 0.24792019384156563 -0.02176699235896061 8.23178024236568 0.29278175278373403 1.6832342065915946 3.864337290766398 15.092327555349879" Properties=species:S:1:pos:R:3:initial_magmoms:R:1:castep_labels:S:1 n_minim_iter=5 pbc="T T T"
P        3.45934860       2.93497338      11.27461213       0.00000000 NULL
P        3.32027760       8.67969861       4.35841737       0.00000000 NULL
P        3.11528885       3.58979058       2.23711905       0.00000000 NULL
P        3.66433735       8.02488141      13.39591045       0.00000000 NULL
P        1.76945399       5.32863519       2.77972430       0.00000000 NULL
P        5.01017221       6.28603680      12.85330520       0.00000000 NULL
P        0.65959579       7.15994272       1.50589542       0.00000000 NULL
P        6.12003040       4.45472927      14.12713408       0.00000000 NULL
P        2.78419918       9.37848912      10.67215545       0.00000000 NULL
P        3.99542701       2.23618287       4.96087405       0.00000000 NULL
P        5.08216498       4.32901282       2.15050210       0.00000000 NULL
P        1.69746122       7.28565916      13.48252740       0.00000000 NULL
P        5.58399734       1.22333284       6.19457464       0.00000000 NULL
P        1.19562885      10.39133914       9.43845487       0.00000000 NULL
P        3.75286146      11.45718906      14.32218063       0.00000000 NULL
P        3.02676473       0.15748293       1.31084887       0.00000000 NULL
P        5.38115753       2.78032228       7.75196667       0.00000000 NULL
P        1.39846866       8.83434971       7.88106283       0.00000000 NULL
P        3.49706502       7.87182076       8.90958130       0.00000000 NULL
P        3.28256117       3.74285123       6.72344820       0.00000000 NULL
P        2.10390339       4.17620602      10.05075112       0.00000000 NULL
P        4.67572280       7.43846597       5.58227838       0.00000000 NULL
P        0.91536751       3.54275924       4.36125755       0.00000000 NULL
P        5.86425868       8.07191274      11.27177195       0.00000000 NULL
P        4.24397667       6.65244831       7.32463999       0.00000000 NULL
P        2.53564953       4.96222368       8.30838951       0.00000000 NULL
26
Lattice="5.147164333583364 -0.555523345681691 0.3451901211709871 -0.13167061030719165 8.24149604555582 0.2877140537222119 1.9198378898948878 3.819454995407561 15.463388776568765" Properties=species:S:1:pos:R:3:initial_magmoms:R:1:castep_labels:S:1 n_minim_iter=6 pbc="T T T"
P        3.64812117       2.87697543      11.59531664       0.00000000 NULL
P        3.28721045       8.62845226       4.50097632       0.00000000 NULL
P        3.11285089       3.54525164       2.33699462       0.00000000 NULL
P        3.82248073       7.96017606      13.75929833       0.00000000 NULL
P        1.76203450       5.30772642       2.87496993       0.00000000 NULL
P        5.17329712       6.19770128      13.22132302       0.00000000 NULL
P        0.59810052       7.15360957       1.54096533       0.00000000 NULL
P        6.33723110       4.35181812      14.55532762       0.00000000 NULL
P        2.86597243       9.32316708      10.95529564       0.00000000 NULL
P        4.06935918       2.18226062       5.14099731       0.00000000 NULL
P        5.07568827       4.26292288       2.27403917       0.00000000 NULL
P        1.85964334       7.24250482      13.82225378       0.00000000 NULL
P        5.70324707       1.13579153       6.43181230       0.00000000 NULL
P        1.23208454      10.36963617       9.66448065       0.00000000 NULL
P        3.88098389      11.39681828      14.71409131       0.00000000 NULL
P        3.05434772       0.10860941       1.38220164       0.00000000 NULL
P        5.49608304       2.70546450       8.01630410       0.00000000 NULL
P        1.43924857       8.79996320       8.07998885       0.00000000 NULL
P        3.56079287       7.82293938       9.16252651       0.00000000 NULL
P        3.37453874       3.68248831       6.93376644       0.00000000 NULL
P        2.23832008       4.12743486      10.33236872       0.00000000 NULL
P        4.69701153       7.37799284       5.76392423       0.00000000 NULL
P        0.95088753       3.52533893       4.47436532       0.00000000 NULL
P        5.98444408       7.98008876      11.62192764       0.00000000 NULL
P        4.30621851       6.57697449       7.57789083       0.00000000 NULL
P        2.62911310       4.92845320       8.51840212       0.00000000 NULL
26
Lattice="5.081648655092276 -0.5753505391849365 0.3507060971580929 -0.17138096339586856 8.12828829107384 0.3185057005000493 1.906179067962404 3.8234457286052383 15.28808444522016" Properties=species:S:1:pos:R:3:initial_magmoms:R:1:castep_labels:S:1 n_minim_iter=7 pbc="T T T"
P        3.60903943       2.86989077      11.47009649       0.00000000 NULL
P        3.20740733       8.50649271       4.48719976       0.00000000 NULL
P        3.05517895       3.48855840       2.32886286       0.00000000 NULL
P        3.76126781       7.88782508      13.62843338       0.00000000 NULL
P        1.71947206       5.23637635       2.86748214       0.00000000 NULL
P        5.09697470       6.14000713      13.08981411       0.00000000 NULL
P        0.56021924       7.05579870       1.55243045       0.00000000 NULL
P        6.25622752       4.32058478      14.40486579       0.00000000 NULL
P        2.80253803       9.22276313      10.86237839       0.00000000 NULL
P        4.01390873       2.15362035       5.09491785       0.00000000 NULL
P        4.99032405       4.18691421       2.27185151       0.00000000 NULL
P        1.82612271       7.18946927      13.68544474       0.00000000 NULL
P        5.63383342       1.11680901       6.36844526       0.00000000 NULL
P        1.18261334      10.25957447       9.58885098       0.00000000 NULL
P        3.80319369      11.28177380      14.59028569       0.00000000 NULL
P        3.01325307       0.09460969       1.36701055       0.00000000 NULL
P        5.42155214       2.67506766       7.93790396       0.00000000 NULL
P        1.39489462       8.70131582       8.01939229       0.00000000 NULL
P        3.48925626       7.73637770       9.08657195       0.00000000 NULL
P        3.32719050       3.64000578       6.87072429       0.00000000 NULL
P        2.20784735       4.10013588      10.22958434       0.00000000 NULL
P        4.60859941       7.27624760       5.72771191       0.00000000 NULL
P        0.92976912       3.48978765       4.43553834       0.00000000 NULL
P        5.88667764       7.88659583      11.52175790       0.00000000 NULL
P        4.23163967       6.49099689       7.52551985       0.00000000 NULL
P        2.58480709       4.88538659       8.43177639       0.00000000 NULL
26
Lattice="5.102763063061044 -0.5853466461831764 0.3673261028194358 -0.18379511539897503 8.144526495586836 0.3328034097877552 1.9524064226599949 3.8505624528931253 15.362973336573567" Properties=species:S:1:pos:R:3:initial_magmoms:R:1:castep_labels:S:1 n_minim_iter=8 pbc="T T T"
P        3.65287952       2.88828376      11.53417309       0.00000000 NULL
P        3.21849485       8.52145854       4.52892976       0.00000000 NULL
P        3.06576173       3.49294549       2.35319503       0.00000000 NULL
P        3.80561264       7.91679681      13.70990782       0.00000000 NULL
P        1.72832430       5.24770412       2.89549087       0.00000000 NULL
P        5.14305007       6.16203818      13.16761198       0.00000000 NULL
P        0.55780188       7.07006301       1.57180343       0.00000000 NULL
P        6.31357249       4.33967929      14.49129942       0.00000000 NULL
P        2.83161142       9.24953891      10.93100582       0.00000000 NULL
P        4.03976295       2.16020340       5.13209703       0.00000000 NULL
P        5.00927842       4.19054867       2.30114151       0.00000000 NULL
P        1.86209595       7.21919364      13.76196133       0.00000000 NULL
P        5.67211678       1.11861795       6.41388408       0.00000000 NULL
P        1.19925759      10.29112435       9.64921877       0.00000000 NULL
P        3.84420452      11.31934524      14.68422773       0.00000000 NULL
P        3.02716985       0.09039707       1.37887512       0.00000000 NULL
P        5.45865028       2.68492409       7.99107117       0.00000000 NULL
P        1.41272409       8.72481821       8.07203168       0.00000000 NULL
P        3.51516908       7.76037549       9.14698569       0.00000000 NULL
P        3.35620529       3.64936681       6.91611716       0.00000000 NULL
P        2.23932665       4.11798747      10.28991125       0.00000000 NULL
P        4.63204772       7.29175483       5.77319160       0.00000000 NULL
P        0.94182435       3.50114241       4.46314929       0.00000000 NULL
P        5.92955002       7.90859989      11.59995356       0.00000000 NULL
P        4.26092935       6.50414422       7.58518746       0.00000000 NULL
P        2.61044502       4.90559808       8.47791539       0.00000000 NULL
26
Lattice="5.103161236442819 -0.5966475504723731 0.37937574456429646 -0.20112708522314737 8.131694045836996 0.34741162863856967 1.9795305439624002 3.8669086221771107 15.371456269533361" Properties=species:S:1:pos:R:3:initial_magmoms:R:1:castep_labels:S:1 n_minim_iter=9 pbc="T T T"
P        3.67329583       2.89712171      11.54702974       0.00000000 NULL
P        3.20826886       8.50483340       4.55121391       0.00000000 NULL
P        3.05995799       3.48345800       2.36631713       0.00000000 NULL
P        3.82160671       7.91849712      13.73192651       0.00000000 NULL
P        1.72492092       5.23967039       2.91114349       0.00000000 NULL
P        5.15664377       6.16228473      13.18710015       0.00000000 NULL
P        0.54773117       7.05886697       1.58546703       0.00000000 NULL
P        6.33383352       4.34308815      14.51277661       0.00000000 NULL
P        2.83673443       9.24434742      10.95284013       0.00000000 NULL
P        4.04483026       2.15760769       5.14540351       0.00000000 NULL
P        5.00376321       4.17647522       2.31850151       0.00000000 NULL
P        1.87780148       7.22547990      13.77974213       0.00000000 NULL
P        5.68273610       1.11448205       6.42886322       0.00000000 NULL
P        1.19882860      10.28747306       9.66938042       0.00000000 NULL
P        3.85390660      11.31786656      14.71559140       0.00000000 NULL
P        3.02765809       0.08408856       1.38265225       0.00000000 NULL
P        5.46701348       2.68365036       8.00727490       0.00000000 NULL
P        1.41455122       8.71830476       8.09096874       0.00000000 NULL
P        3.51619975       7.75679689       9.16747405       0.00000000 NULL
P        3.36536494       3.64515823       6.93076959       0.00000000 NULL
P        2.25324492       4.12230590      10.30559117       0.00000000 NULL
P        4.62831978       7.27964922       5.79265247       0.00000000 NULL
P        0.94525211       3.50046413       4.47179375       0.00000000 NULL
P        5.93631258       7.90149099      11.62644989       0.00000000 NULL
P        4.26425540       6.49317396       7.61137656       0.00000000 NULL
P        2.61730930       4.90878116       8.48686708       0.00000000 NULL
26
Lattice="5.122103858260331 -0.6998806777266455 0.4913867585419778 -0.35730356416843206 8.038967376805003 0.46554091643442785 2.2366915632368345 3.997682732409791 15.453017543490857" Properties=species:S:1:pos:R:3:initial_magmoms:R:1:castep_labels:S:1 n_minim_iter=10 pbc="T T T"
P        3.87324698       2.96589367      11.66810734       0.00000000 NULL
P        3.12824488       8.37087576       4.74183788       0.00000000 NULL
P        3.01480827       3.40513230       2.48021000       0.00000000 NULL
P        3.98668358       7.93163713      13.92973522       0.00000000 NULL
P        1.70279591       5.17672621       3.04814763       0.00000000 NULL
P        5.29869595       6.16004322      13.36179759       0.00000000 NULL
P        0.46074063       6.97527063       1.69772291       0.00000000 NULL
P        6.54075122       4.36149880      14.71222231       0.00000000 NULL
P        2.89862840       9.20359808      11.14280833       0.00000000 NULL
P        4.10286346       2.13317135       5.26713689       0.00000000 NULL
P        4.97063451       4.05907527       2.46995411       0.00000000 NULL
P        2.03085735       7.27769416      13.93999111       0.00000000 NULL
P        5.79765887       1.07041418       6.56918499       0.00000000 NULL
P        1.20383299      10.26635525       9.84076023       0.00000000 NULL
P        3.96137782      11.31201326      14.99489411       0.00000000 NULL
P        3.04011403       0.02475617       1.41505111       0.00000000 NULL
P        5.55950870       2.66827937       8.15584701       0.00000000 NULL
P        1.44198316       8.66849006       8.25409821       0.00000000 NULL
P        3.53762689       7.73284716       9.34611796       0.00000000 NULL
P        3.46386497       3.60392228       7.06382726       0.00000000 NULL
P        2.39119604       4.15499039      10.45106310       0.00000000 NULL
P        4.61029581       7.18177904       5.95888212       0.00000000 NULL
P        0.98345147       3.49606792       4.54854891       0.00000000 NULL
P        6.01804039       7.84070152      11.86139631       0.00000000 NULL
P        4.31399153       6.39866593       7.84752167       0.00000000 NULL
P        2.68750033       4.93810350       8.56242355       0.00000000 NULL
26
Lattice="5.165267698479422 -0.6831692292443499 0.5053088086746003 -0.3255271763125025 8.198519684860354 0.33284944083137796 2.2981424514653135 3.8186983860572634 15.145913972939027" Properties=species:S:1:pos:R:3:initial_magmoms:R:1:castep_labels:S:1 n_minim_iter=11 pbc="T T T"
P        3.93991807       2.86483084      11.44030212       0.00000000 NULL
P        3.19796490       8.46921800       4.54377010       0.00000000 NULL
P        3.02635943       3.46067154       2.38352386       0.00000000 NULL
P        4.11152354       7.87337730      13.60054836       0.00000000 NULL
P        1.76182744       5.23899344       2.93837813       0.00000000 NULL
P        5.37605553       6.09505540      13.04569409       0.00000000 NULL
P        0.50954697       7.09852305       1.55467795       0.00000000 NULL
P        6.62833601       4.23552579      14.42939427       0.00000000 NULL
P        2.99779987       9.20327409      10.82717031       0.00000000 NULL
P        4.14008310       2.13077475       5.15690192       0.00000000 NULL
P        5.05035098       4.15268249       2.35635973       0.00000000 NULL
P        2.08753199       7.18136635      13.62771249       0.00000000 NULL
P        5.85999989       1.02553461       6.46259089       0.00000000 NULL
P        1.27788308      10.30851424       9.52148133       0.00000000 NULL
P        4.07945216      11.31835298      14.62107227       0.00000000 NULL
P        3.05843081       0.01569586       1.36299995       0.00000000 NULL
P        5.60900781       2.64082499       7.98628603       0.00000000 NULL
P        1.52887516       8.69322385       7.99778619       0.00000000 NULL
P        3.59157531       7.77660717       9.07418742       0.00000000 NULL
P        3.54630767       3.55744167       6.90988481       0.00000000 NULL
P        2.44443247       4.06012049      10.25942454       0.00000000 NULL
P        4.69345050       7.27392835       5.72464769       0.00000000 NULL
P        1.03629125       3.49091954       4.43369237       0.00000000 NULL
P        6.10159172       7.84312930      11.55037986       0.00000000 NULL
P        4.41289556       6.40211522       7.67408126       0.00000000 NULL
P        2.72498742       4.93193362       8.30999096       0.00000000 NULL
26
Lattice="5.0502882631522565 -0.71840683538026 0.48553463469735536 -0.39589711780579895 8.049355822343301 0.44597965826810143 2.1898640798472484 3.963765326242792 14.901390809260766" Properties=species:S:1:pos:R:3:initial_magmoms:R:1:castep_labels:S:1 n_minim_iter=12 pbc="T T T"
P        3.80682414       2.95334415      11.25431682       0.00000000 NULL
P        3.03743108       8.34137016       4.57858828       0.00000000 NULL
P        2.91627100       3.39985749       2.38568396       0.00000000 NULL
P        3.92798423       7.89485682      13.44722115       0.00000000 NULL
P        1.66961104       5.16459639       2.95934752       0.00000000 NULL
P        5.17464418       6.13011792      12.87355759       0.00000000 NULL
P        0.43062322       6.98070727       1.62612888       0.00000000 NULL
P        6.41363201       4.31400704      14.20677622       0.00000000 NULL
P        2.82791362       9.16595703      10.74780889       0.00000000 NULL
P        4.01634160       2.12875729       5.08509622       0.00000000 NULL
P        4.89123104       4.05810521       2.36721755       0.00000000 NULL
P        1.95302419       7.23660910      13.46568755       0.00000000 NULL
P        5.70457565       1.04653745       6.34942088       0.00000000 NULL
P        1.13967957      10.24817686       9.48348422       0.00000000 NULL
P        3.86151415      11.29174440      14.50316115       0.00000000 NULL
P        2.98274107       0.00296991       1.32974395       0.00000000 NULL
P        5.43918876       2.66027644       7.86654710       0.00000000 NULL
P        1.40506646       8.63443788       7.96635800       0.00000000 NULL
P        3.41697820       7.73918508       9.00663342       0.00000000 NULL
P        3.42727702       3.55552923       6.82627168       0.00000000 NULL
P        2.33596962       4.11830082      10.11858916       0.00000000 NULL
P        4.50828561       7.17641350       5.71431594       0.00000000 NULL
P        0.97618474       3.48240990       4.39842545       0.00000000 NULL
P        5.86807049       7.81230442      11.43447965       0.00000000 NULL
P        4.24368146       6.34960204       7.61940972       0.00000000 NULL
P        2.60057377       4.94511227       8.21349538       0.00000000 NULL
26
Lattice="5.129478824394436 -0.7257904879746154 0.509974469302679 -0.3961331279957122 8.156961195664364 0.44600893553973964 2.2747238069718043 4.001507543450727 15.103389102603646" Properties=species:S:1:pos:R:3:initial_magmoms:R:1:castep_labels:S:1 n_minim_iter=13 pbc="T T T"
P        3.90495457       2.98370244      11.41464183       0.00000000 NULL
P        3.10311493       8.44897581       4.64473067       0.00000000 NULL
P        2.96878766       3.44450713       2.42472787       0.00000000 NULL
P        4.03928184       7.98817112      13.63464464       0.00000000 NULL
P        1.70955577       5.23145933       3.00296996       0.00000000 NULL
P        5.29851373       6.20121892      13.05640255       0.00000000 NULL
P        0.44632264       7.07369801       1.64454176       0.00000000 NULL
P        6.56174687       4.35898024      14.41483075       0.00000000 NULL
P        2.91363041       9.27743937      10.89516978       0.00000000 NULL
P        4.09443909       2.15523888       5.16420273       0.00000000 NULL
P        4.97736847       4.11368554       2.41131971       0.00000000 NULL
P        2.03070103       7.31899271      13.64805280       0.00000000 NULL
P        5.81397638       1.05655067       6.45274170       0.00000000 NULL
P        1.19409312      10.37612758       9.60663081       0.00000000 NULL
P        3.97522728      11.42977696      14.70333461       0.00000000 NULL
P        3.03284222       0.00290129       1.35603790       0.00000000 NULL
P        5.54868587       2.69204267       7.98757443       0.00000000 NULL
P        1.45938363       8.74063558       8.07179808       0.00000000 NULL
P        3.50121161       7.83718594       9.13273254       0.00000000 NULL
P        3.50685789       3.59549231       6.92663997       0.00000000 NULL
P        2.40675006       4.16334612      10.26022151       0.00000000 NULL
P        4.60131945       7.26933213       5.79915100       0.00000000 NULL
P        1.00966528       3.52457310       4.45887886       0.00000000 NULL
P        5.99840422       7.90810515      11.60049365       0.00000000 NULL
P        4.34001359       6.42678976       7.73386105       0.00000000 NULL
P        2.66805591       5.00588849       8.32551146       0.00000000 NULL
26
Lattice="5.120917569638757 -0.7287545788599694 0.5145698800795655 -0.4018964515094277 8.145320434448557 0.4490363678448703 2.283748758173024 4.000433388704608 15.084121849534204" Properties=species:S:1:pos:R:3:initial_magmoms:R:1:castep_labels:S:1 n_minim_iter=14 pbc="T T T"
P        3.90782059       2.98203328      11.40215447       0.00000000 NULL
P        3.09494929       8.43496597       4.64557363       0.00000000 NULL
P        2.96113674       3.43829771       2.42549965       0.00000000 NULL
P        4.04163314       7.97870154      13.62222844       0.00000000 NULL
P        1.70626988       5.22302698       3.00387522       0.00000000 NULL