16
Lattice="7.586310000000002 2.5932547411764788e-15 8.137770593712652e-16 -0.2723411195712723 7.7541288809698425 2.776835900850443e-16 -3.5209795834968354 -4.001774843198123 5.69579438128213" Properties=species:S:1:pos:R:3:initial_magmoms:R:1:castep_labels:S:1 n_minim_iter=1 pbc="T T T"
P        3.24912101       1.26155711       3.75482258       0.00000000 NULL
P       -0.05149041      -3.64381638       5.69158177       0.00000000 NULL
P       -1.53751664      -0.54554672       5.12612837       0.00000000 NULL
P        5.35123984       4.24837391       2.74071943       0.00000000 NULL
P        0.78123603       1.01168880       2.19467900       0.00000000 NULL
P       -1.16056433      -1.73491369       3.40882586       0.00000000 NULL
P        2.56612181       5.67297117       2.68914743       0.00000000 NULL
P        0.39080061      -0.99641736       4.56679737       0.00000000 NULL
P        2.72140747      -0.11709836       2.32812235       0.00000000 NULL
P        4.47643773      -0.38251240       3.89832072       0.00000000 NULL
P        1.33779859       0.74118019       4.11148696       0.00000000 NULL
P        1.58466486      -0.11135739       0.60998256       0.00000000 NULL
P        3.91122633      -2.18823557       4.80314151       0.00000000 NULL
P        4.38832208       2.03485693       0.61020526       0.00000000 NULL
P        2.25887354       3.38909185       4.96599566       0.00000000 NULL
P        5.94388497      -0.01653724       2.00780625       0.00000000 NULL
16
Lattice="7.612954117148061 0.0018701840166514133 0.007105805327168379 -0.2713860624747209 7.779385216418795 5.115622718985289e-07 -3.5289972154933698 -4.0155241015772845 5.707297112065007" Properties=species:S:1:pos:R:3:initial_magmoms:R:1:castep_labels:S:1 n_minim_iter=2 pbc="T T T"
P        3.26464857       1.26707943       3.76785648       0.00000000 NULL
P       -0.04706746      -3.65571228       5.70616412       0.00000000 NULL
P       -1.53819985      -0.54738115       5.13858259       0.00000000 NULL
P        5.37359448       4.26356679       2.75304312       0.00000000 NULL
P        0.78591411       1.01552689       2.20095655       0.00000000 NULL
P       -1.16189353      -1.74086075       3.41629277       0.00000000 NULL
P        2.57908706       5.69185332       2.69882001       0.00000000 NULL
P        0.39647179      -0.99955005       4.57910954       0.00000000 NULL
P        2.73310577      -0.11673507       2.33661135       0.00000000 NULL
P        4.49577425      -0.38249669       3.91254690       0.00000000 NULL
P        1.34636309       0.74418416       4.12390219       0.00000000 NULL
P        1.59051244      -0.11148533       0.61284059       0.00000000 NULL
P        3.92876173      -2.19446753       4.81935607       0.00000000 NULL
P        4.40494034       2.04271890       0.61620020       0.00000000 NULL
P        2.27224250       3.40093116       4.98137379       0.00000000 NULL
P        5.96673247      -0.01503425       2.01858983       0.00000000 NULL
16
Lattice="8.058713205315373 0.032307350322808175 0.12990746389489705 -0.256277903016578 8.194353557875832 0.0010529778649649658 -3.659740401328816 -4.240361414869149 5.891587208614284" Properties=species:S:1:pos:R:3:initial_magmoms:R:1:castep_labels:S:1 n_minim_iter=3 pbc="T T T"
P        3.52649769       1.35875229       3.98413495       0.00000000 NULL
P        0.03042967      -3.85028808       5.94384789       0.00000000 NULL
P       -1.54673919      -0.57650913       5.34111809       0.00000000 NULL
P        5.74850983       4.51343591       2.95991393       0.00000000 NULL
P        0.86479658       1.07915893       2.30414663       0.00000000 NULL
P       -1.18227739      -1.83807362       3.53669384       0.00000000 NULL
P        2.79676362       6.00217358       2.86021433       0.00000000 NULL
P        0.49399778      -1.05045300       4.78064789       0.00000000 NULL
P        2.92995131      -0.11057225       2.47755915       0.00000000 NULL
P        4.82138055      -0.38177601       4.14888877       0.00000000 NULL
P        1.49164669       0.79428354       4.32838623       0.00000000 NULL
P        1.68846157      -0.11374754       0.66070968       0.00000000 NULL
P        4.22468173      -2.29643658       5.08727085       0.00000000 NULL
P        4.68315647       2.17188648       0.71854026       0.00000000 NULL
P        2.49808797       3.59624635       5.23545893       0.00000000 NULL
P        6.35011704       0.00972215       2.20012487       0.00000000 NULL
16
Lattice="8.199556999828214 0.0066318748024118525 0.19011239453061854 -0.28757750756050027 8.264276690477933 0.008603346077685871 -3.666363614363462 -4.2569215978136885 5.883245060311305" Properties=species:S:1:pos:R:3:initial_magmoms:R:1:castep_labels:S:1 n_minim_iter=4 pbc="T T T"
P        3.61527743       1.36890287       4.02881582       0.00000000 NULL
P        0.09025914      -3.87609287       5.96276732       0.00000000 NULL
P       -1.53242596      -0.56881089       5.35487562       0.00000000 NULL
P        5.85545173       4.53693428       3.02047171       0.00000000 NULL
P        0.88821774       1.09137229       2.31870436       0.00000000 NULL
P       -1.17152368      -1.84619089       3.53517785       0.00000000 NULL
P        2.84740824       6.04534268       2.90108503       0.00000000 NULL
P        0.54356299      -1.05713117       4.80279533       0.00000000 NULL
P        2.99907631      -0.11939839       2.50688347       0.00000000 NULL
P        4.93811777      -0.39572407       4.19926217       0.00000000 NULL
P        1.54448442       0.80279096       4.36123477       0.00000000 NULL
P        1.72072907      -0.12130883       0.67396249       0.00000000 NULL
P        4.33956970      -2.32497607       5.13314252       0.00000000 NULL
P        4.76256999       2.17628872       0.75958163       0.00000000 NULL
P        2.56798613       3.62612161       5.28124183       0.00000000 NULL
P        6.47843979      -0.00912179       2.25704434       0.00000000 NULL
16
Lattice="8.292082096864773 -0.03794986530679713 0.24283696716102074 -0.336467013401957 8.27910833898221 0.015414609198911808 -3.6462042176406824 -4.236665057930583 5.817429520931685" Properties=species:S:1:pos:R:3:initial_magmoms:R:1:castep_labels:S:1 n_minim_iter=5 pbc="T T T"
P        3.67657007       1.36156734       4.02972309       0.00000000 NULL
P        0.15459650      -3.87621704       5.92134618       0.00000000 NULL
P       -1.51208765      -0.55428945       5.31470766       0.00000000 NULL
P        5.91540533       4.51670935       3.04613519       0.00000000 NULL
P        0.90118205       1.09458781       2.30854048       0.00000000 NULL
P       -1.15266149      -1.83908335       3.49741502       0.00000000 NULL
P        2.86535436       6.04145976       2.91057017       0.00000000 NULL
P        0.58851268      -1.05905005       4.77566566       0.00000000 NULL
P        3.04901922      -0.13498073       2.50805418       0.00000000 NULL
P        5.02401737      -0.41850967       4.20302259       0.00000000 NULL
P        1.58287295       0.80246020       4.34830867       0.00000000 NULL
P        1.74260192      -0.13228776       0.67934945       0.00000000 NULL
P        4.42890765      -2.34831907       5.12187938       0.00000000 NULL
P        4.80763970       2.15503046       0.78889156       0.00000000 NULL
P        2.61061354       3.62573563       5.27137548       0.00000000 NULL
P        6.56750590      -0.04383917       2.28720485       0.00000000 NULL
16
Lattice="8.38289801043194 -0.09908328485641778 0.30384079970904465 -0.4022129849873413 8.288147504568716 0.01537373929340467 -3.6103044864710543 -4.210245364919624 5.699838749943984" Properties=species:S:1:pos:R:3:initial_magmoms:R:1:castep_labels:S:1 n_minim_iter=6 pbc="T T T"
P        3.73934959       1.34407327       3.99967390       0.00000000 NULL
P        0.23449981      -3.87849156       5.83226233       0.00000000 NULL
P       -1.48444880      -0.54036244       5.22779466       0.00000000 NULL
P        5.96814623       4.47950803       3.04998965       0.00000000 NULL
P        0.91178944       1.09509060       2.27770877       0.00000000 NULL
P       -1.12637241      -1.83067256       3.42736822       0.00000000 NULL
P        2.87398498       6.02468120       2.89501579       0.00000000 NULL
P        0.64075625      -1.06650053       4.70891322       0.00000000 NULL
P        3.10161009      -0.15919916       2.49054537       0.00000000 NULL
P        5.11478807      -0.45336932       4.17628733       0.00000000 NULL
P        1.62375814       0.79611689       4.29999282       0.00000000 NULL
P        1.76443621      -0.14788394       0.68096549       0.00000000 NULL
P        4.52487989      -2.38354978       5.07125496       0.00000000 NULL
P        4.84739364       2.12243525       0.81561517       0.00000000 NULL
P        2.65130942       3.61421782       5.21771338       0.00000000 NULL
P        6.65844161      -0.09448452       2.30639025       0.00000000 NULL
16
Lattice="8.449273272401987 -0.14391820594794016 0.35227216751358054 -0.45042251895953 8.310442437900091 0.009646715736528397 -3.581098135861347 -4.203041509529282 5.592606835342692" Properties=species:S:1:pos:R:3:initial_magmoms:R:1:castep_labels:S:1 n_minim_iter=7 pbc="T T T"
P        3.78745157       1.33098422       3.96386553       0.00000000 NULL
P        0.29615383      -3.89209079       5.74787928       0.00000000 NULL
P       -1.46140180      -0.53503826       5.14362221       0.00000000 NULL
P        6.00780732       4.45912977       3.04178588       0.00000000 NULL
P        0.91939318       1.09706460       2.24569144       0.00000000 NULL
P       -1.10539797      -1.83024675       3.36320980       0.00000000 NULL
P        2.88188104       6.02167086       2.87055980       0.00000000 NULL
P        0.68080236      -1.07802810       4.64299522       0.00000000 NULL
P        3.14200242      -0.17933138       2.46999440       0.00000000 NULL
P        5.18326369      -0.48151707       4.14395457       0.00000000 NULL
P        1.65624531       0.79050140       4.24883132       0.00000000 NULL
P        1.78052052      -0.16029771       0.68071788       0.00000000 NULL
P        4.59636500      -2.41807539       5.01834474       0.00000000 NULL
P        4.87668439       2.10263887       0.83361041       0.00000000 NULL
P        2.68384801       3.60941061       5.15844087       0.00000000 NULL
P        6.72616355      -0.13369318       2.31519313       0.00000000 NULL
16
Lattice="8.639121896462914 -0.2589747405946525 0.492115217601388 -0.5748396315049172 8.402922567184957 -0.01584404580097968 -3.503524918371847 -4.210273566419088 5.285870165426211" Properties=species:S:1:pos:R:3:initial_magmoms:R:1:castep_labels:S:1 n_minim_iter=8 pbc="T T T"
P        3.92798101       1.29802556       3.85770020       0.00000000 NULL
P        0.46693523      -3.95226316       5.50744959       0.00000000 NULL
P       -1.39487446      -0.53073960       4.89831962       0.00000000 NULL
P        6.12795540       4.42385973       3.01191615       0.00000000 NULL
P        0.94140381       1.10741637       2.15078811       0.00000000 NULL
P       -1.04779849      -1.84146472       3.18091745       0.00000000 NULL
P        2.91528699       6.03584280       2.79174624       0.00000000 NULL
P        0.79311504      -1.11925516       4.45140328       0.00000000 NULL
P        3.25983516      -0.23677517       2.41157981       0.00000000 NULL
P        5.37843244      -0.55858504       4.05063001       0.00000000 NULL
P        1.75287622       0.77458162       4.09820639       0.00000000 NULL
P        1.82664911      -0.19432694       0.68030665       0.00000000 NULL
P        4.79712557      -2.52463675       4.86741990       0.00000000 NULL
P        4.96451889       2.06099831       0.88339705       0.00000000 NULL
P        2.78406654       3.60670174       4.98231861       0.00000000 NULL
P        6.92003155      -0.23849984       2.33826121       0.00000000 NULL
16
Lattice="8.796828543464605 -0.33144570039726595 0.6174056120446724 -0.6545752562349003 8.529623473701383 -0.0638561945505298 -3.4444238660520097 -4.272647132980185 5.050839821767249" Properties=species:S:1:pos:R:3:initial_magmoms:R:1:castep_labels:S:1 n_minim_iter=9 pbc="T T T"
P        4.05349628       1.27375402       3.77634580       0.00000000 NULL
P        0.60456060      -4.04681697       5.33097900       0.00000000 NULL
P       -1.33360156      -0.55279279       4.70353272       0.00000000 NULL
P        6.24101663       4.43281752       2.98302699       0.00000000 NULL
P        0.96057788       1.12301914       2.07158844       0.00000000 NULL
P       -1.00010055      -1.87826304       3.04119719       0.00000000 NULL
P        2.96499741       6.08346000       2.71365825       0.00000000 NULL
P        0.88492270      -1.17292645       4.30180305       0.00000000 NULL
P        3.36507194      -0.28964758       2.37412657       0.00000000 NULL
P        5.54128130      -0.62114498       3.98820783       0.00000000 NULL
P        1.84355951       0.75555342       3.98049670       0.00000000 NULL
P        1.86643841      -0.22177718       0.68361762       0.00000000 NULL
P        4.96140057      -2.63422638       4.76219614       0.00000000 NULL
P        5.04572363       2.05073916       0.92587415       0.00000000 NULL
P        2.88475425       3.61707355       4.83780994       0.00000000 NULL
P        7.08353981      -0.31612918       2.36492844       0.00000000 NULL
16
Lattice="8.884434101373737 -0.3938580815028649 0.7508498243000927 -0.7215132330092024 8.597186929749842 -0.1301565901388759 -3.3519713153135586 -4.322574247242504 4.762062549942674" Properties=species:S:1:pos:R:3:initial_magmoms:R:1:castep_labels:S:1 n_minim_iter=10 pbc="T T T"
P        4.15706046       1.23534066       3.65714020       0.00000000 NULL
P        0.74623875      -4.12722574       5.10265154       0.00000000 NULL
P       -1.25203374      -0.58295240       4.45672256       0.00000000 NULL
P        6.30898498       4.41694123       2.92215315       0.00000000 NULL
P        0.96948284       1.13485161       1.96549242       0.00000000 NULL
P       -0.93896057      -1.91407349       2.86663644       0.00000000 NULL
P        3.00482936       6.08573566       2.59645722       0.00000000 NULL
P        0.97261920      -1.22699056       4.10552181       0.00000000 NULL
P        3.45280252      -0.35139429       2.32036874       0.00000000 NULL
P        5.66194171      -0.68123751       3.89304108       0.00000000 NULL
P        1.92908269       0.72177587       3.82125173       0.00000000 NULL
P        1.89400340      -0.25041044       0.68210160       0.00000000 NULL
P        5.08727166      -2.73557783       4.61244074       0.00000000 NULL
P        5.08868175       2.02877252       0.96431105       0.00000000 NULL
P        2.97680810       3.59383853       4.63786889       0.00000000 NULL
P        7.19725657      -0.39442034       2.37455861       0.00000000 NULL
16
Lattice="9.016682671998073 -0.37668704043164175 0.8103954576568994 -0.7087099410660659 8.760089656059485 -0.1489252444338365 -3.3777018052884835 -4.42714950516504 4.764673790439267" Properties=species:S:1:pos:R:3:initial_magmoms:R:1:castep_labels:S:1 n_minim_iter=11 pbc="T T T"
P        4.25396471       1.26735579       3.69717595       0.00000000 NULL
P        0.78849982      -4.21819498       5.12882319       0.00000000 NULL
P       -1.23710763      -0.60442798       4.47323188       0.00000000 NULL
P        6.42765140       4.52125326       2.96763613       0.00000000 NULL
P        0.98594356       1.17035035       1.97076579       0.00000000 NULL
P       -0.93418989      -1.96550914       2.86457015       0.00000000 NULL
P        3.08884302       6.20228502       2.61630067       0.00000000 NULL
P        1.00774361      -1.25871484       4.12512184       0.00000000 NULL
P        3.52575910      -0.36649950       2.35547052       0.00000000 NULL
P        5.76414402      -0.68079570       3.94511802       0.00000000 NULL
P        1.98824944       0.73381590       3.85283694       0.00000000 NULL
P        1.92522455      -0.25805986       0.69331554       0.00000000 NULL
P        5.17755055      -2.79171014       4.65629353       0.00000000 NULL
P        5.17471951       2.08043073       1.00176739       0.00000000 NULL
P        3.06542801       3.66287536       4.67367381       0.00000000 NULL
P        7.32441045      -0.39243394       2.42587322       0.00000000 NULL
16
Lattice="8.942979260174598 -0.37233027677039177 0.8078204536827595 -0.7016109197203113 8.68629794048519 -0.15261100047657467 -3.347725871286382 -4.393944912280382 4.700543170540363" Properties=species:S:1:pos:R:3:initial_magmoms:R:1:castep_labels:S:1 n_minim_iter=12 pbc="T T T"
P        4.22334705       1.25618678       3.65128066       0.00000000 NULL
P        0.78648650      -4.18608967       5.06260745       0.00000000 NULL
P       -1.22332465      -0.60205905       4.41487129       0.00000000 NULL
P        6.37481936       4.48663357       2.93216395       0.00000000 NULL
P        0.97550361       1.16387711       1.94308327       0.00000000 NULL
P       -0.92467312      -1.95251425       2.82329831       0.00000000 NULL
P        3.06840165       6.14830690       2.58130397       0.00000000 NULL
P        1.00009686      -1.25080857       4.07084187       0.00000000 NULL
P        3.50089825      -0.36871290       2.32913264       0.00000000 NULL
P        5.71722024      -0.67517329       3.89854662       0.00000000 NULL
P        1.97428328       0.72525427       3.80432783       0.00000000 NULL
P        1.91040096      -0.25784574       0.68543243       0.00000000 NULL
P        5.13355799      -2.77308357       4.59587836       0.00000000 NULL
P        5.13156955       2.06292637       0.99301972       0.00000000 NULL
P        3.04518085       3.63038046       4.61464072       0.00000000 NULL
P        7.26804927      -0.39242274       2.39904821       0.00000000 NULL
16
Lattice="8.944155061358893 -0.3622509207414924 0.8205209018717877 -0.6913508055575174 8.695077445779976 -0.15791907503824695 -3.3440529583578886 -4.4069048041655074 4.682352716757403" Properties=species:S:1:pos:R:3:initial_magmoms:R:1:castep_labels:S:1 n_minim_iter=13 pbc="T T T"
P        4.23440527       1.26153796       3.64690104       0.00000000 NULL
P        0.79335098      -4.19409964       5.04875304       0.00000000 NULL
P       -1.21457210      -0.60659679       4.40186988       0.00000000 NULL
P        6.38331506       4.50075103       2.93221369       0.00000000 NULL
P        0.97611298       1.17011317       1.93613642       0.00000000 NULL
P       -0.92066760      -1.95990840       2.81033449       0.00000000 NULL
P        3.08277571       6.15562581       2.57546778       0.00000000 NULL
P        1.00448141      -1.25431980       4.05924934       0.00000000 NULL
P        3.50764754      -0.37133758       2.32985392       0.00000000 NULL
P        5.72161846      -0.67007189       3.89686532       0.00000000 NULL
P        1.98262914       0.72564141       3.79737206       0.00000000 NULL
P        1.91165123      -0.25864343       0.68549759       0.00000000 NULL
P        5.13583230      -2.77645642       4.58763557       0.00000000 NULL
P        5.13533850       2.07043535       0.99917425       0.00000000 NULL
P        3.05936153       3.63532008       4.60563045       0.00000000 NULL
P        7.27518557      -0.38834008       2.40271425       0.00000000 NULL
16
Lattice="8.93145272030175 -0.2784795567909978 0.9072760356746794 -0.6052703102453763 8.733430262892398 -0.1940018597601866 -3.317211193343115 -4.491347173052286 4.552951964241907" Properties=species:S:1:pos:R:3:initial_magmoms:R:1:castep_labels:S:1 n_minim_iter=14 pbc="T T T"
P        4.30469114       1.30208083       3.61370429       0.00000000 NULL
P        0.83364819      -4.23809032       4.94858692       0.00000000 NULL
P       -1.15062366      -0.63873657       4.30901514       0.00000000 NULL
P        6.43386907       4.59763106       2.93017125       0.00000000 NULL
P        0.98069719       1.21238303       1.88661296       0.00000000 NULL
P       -0.89351766      -2.00811982       2.71838937       0.00000000 NULL
P        3.18516993       6.19442830       2.53318341       0.00000000 NULL
P        1.03080403      -1.27417591       3.97576099       0.00000000 NULL
P        3.54632170      -0.38427566       2.33382790       0.00000000 NULL
P        5.73767793      -0.62506070       3.88192257       0.00000000 NULL
P        2.03711184       0.72861413       3.74601206       0.00000000 NULL
P        1.91571351      -0.26129601       0.68529037       0.00000000 NULL
P        5.13560118      -2.78721506       4.52626277       0.00000000 NULL
P        5.15245486       2.12406482       1.04097170       0.00000000 NULL
P        3.15688245       3.66474793       4.53984082       0.00000000 NULL
P        7.30845591      -0.34896900       2.42635742       0.00000000 NULL
16
Lattice="8.925139762053135 -0.05892121772778721 1.037197185541684 -0.3806284308461631 8.774496325091041 -0.21524560730224992 -3.3325534460786965 -4.630689059979728 4.501788082776499" Properties=species:S:1:pos:R:3:initial_magmoms:R:1:castep_labels:S:1 n_minim_iter=15 pbc="T T T"
P        4.43404345       1.42094498       3.67393433       0.00000000 NULL
P        0.84756648      -4.26856112       4.93919649       0.00000000 NULL
P       -1.06101384      -0.68387295       4.31466043       0.00000000 NULL
P        6.56743301       4.81184285       3.02270923       0.00000000 NULL
P        1.01900660       1.28366977       1.88370419       0.00000000 NULL
P       -0.87411190      -2.07504279       2.66862286       0.00000000 NULL
P        3.40360323       6.27939185       2.56445883       0.00000000 NULL
P        1.06262014      -1.27417453       3.97487804       0.00000000 NULL
P        3.60262883      -0.35006208       2.40650614       0.00000000 NULL
P        5.76085351      -0.48858786       3.96643982       0.00000000 NULL
P        2.12282077       0.76406963       3.78402153       0.00000000 NULL
P        1.92333635      -0.24156773       0.69936585       0.00000000 NULL
P        5.12257817      -2.73450477       4.56156895       0.00000000 NULL
P        5.20757557       2.25215999       1.13013771       0.00000000 NULL
P        3.34199200       3.75290308       4.59003467       0.00000000 NULL
P        7.36982141      -0.20255899       2.52282157       0.00000000 NULL
16
Lattice="8.762591424647761 -0.05399930014398571 1.0232374726123559 -0.3697623075952393 8.608198945606205 -0.21121698803751737 -3.2701883019043416 -4.54465024607888 4.372527680085224" Properties=species:S:1:pos:R:3:initial_magmoms:R:1:castep_labels:S:1 n_minim_iter=16 pbc="T T T"
P        4.36100636       1.40084596       3.57952168       0.00000000 NULL
P        0.83917724      -4.18638449       4.80331163       0.00000000 NULL
P       -1.03686921      -0.67111497       4.19831327       0.00000000 NULL
P        6.44420550       4.73216853       2.95157865       0.00000000 NULL
P        1.00069235       1.26700597       1.83320470       0.00000000 NULL
P       -0.85464842      -2.03777842       2.58780850       0.00000000 NULL
P        3.34697419       6.15682079       2.49728775       0.00000000 NULL
P        1.04672030      -1.24876993       3.86646562       0.00000000 NULL
P        3.54393274      -0.34538695       2.34936232       0.00000000 NULL
P        5.65235777      -0.47446282       3.86672400       0.00000000 NULL
P        2.08331531       0.74924032       3.68341009       0.00000000 NULL
P        1.89173497      -0.23954712       0.68224508       0.00000000 NULL
P        5.02723508      -2.68738904       4.43726025       0.00000000 NULL
P        5.10851480       2.20847294       1.10954272       0.00000000 NULL
P        3.28557924       3.68605441       4.47148855       0.00000000 NULL
P        7.24207127      -0.20063168       2.46475590       0.00000000 NULL
16
Lattice="8.881571741139567 -0.043950832976357074 1.0490938709464872 -0.3637628326365744 8.734593324797691 -0.21218488545306738 -3.3112973839189204 -4.61475928375905 4.423883710227165" Properties=species:S:1:pos:R:3:initial_magmoms:R:1:castep_labels:S:1 n_minim_iter=17 pbc="T T T"
P        4.43021637       1.43014847       3.63344657       0.00000000 NULL
P        0.85606534      -4.24593155       4.86471468       0.00000000 NULL
P       -1.04313877      -0.68016383       4.25415278       0.00000000 NULL
P        6.53980486       4.81145709       3.00148674       0.00000000 NULL
P        1.01698262       1.29149407       1.85841787       0.00000000 NULL
P       -0.86172426      -2.06946372       2.61774233       0.00000000 NULL
P        3.40329121       6.24936854       2.53524356       0.00000000 NULL
P        1.06690136      -1.26476749       3.91741398       0.00000000 NULL
P        3.59759628      -0.34768458       2.38676797       0.00000000 NULL
P        5.73222434      -0.47259732       3.92570318       0.00000000 NULL
P        2.11824405       0.76392302       3.73591331       0.00000000 NULL
P        1.91823749      -0.24297917       0.69220311       0.00000000 NULL
P        5.09886276      -2.72234126       4.50048874       0.00000000 NULL
P        5.18196897       2.24629038       1.13375719       0.00000000 NULL
P        3.34169342       3.74604344       4.53582122       0.00000000 NULL
P        7.34649189      -0.19499925       2.50737879       0.00000000 NULL
16
Lattice="8.87866396799716 -0.039514024510927406 1.054089368257418 -0.35912349007686006 8.732616792306656 -0.21256386219017162 -3.308537619701257 -4.61602730095069 4.413589100858914" Properties=species:S:1:pos:R:3:initial_magmoms:R:1:castep_labels:S:1 n_minim_iter=18 pbc="T T T"
P        4.43390837       1.43367672       3.63040558       0.00000000 NULL
P        0.85929133      -4.24483894       4.85600427       0.00000000 NULL
P       -1.03893927      -0.68067414       4.24744136       0.00000000 NULL
P        6.53974530       4.81571215       3.00166056       0.00000000 NULL
P        1.01797530       1.29419682       1.85564675       0.00000000 NULL
P       -0.85909836      -2.07045749       2.61055379       0.00000000 NULL
P        3.40697789       6.24763274       2.53231840       0.00000000 NULL
P        1.06938930      -1.26398071       3.91083778       0.00000000 NULL
P        3.59986440      -0.34745913       2.38661911       0.00000000 NULL
P        5.73074994      -0.46908264       3.92327298       0.00000000 NULL
P        2.11972550       0.76425407       3.73124547       0.00000000 NULL
P        1.91861460      -0.24327231       0.69173774       0.00000000 NULL
P        5.09812465      -2.72185923       4.49462765       0.00000000 NULL
P        5.18077126       2.24716658       1.13675260       0.00000000 NULL
P        3.34549782       3.74734598       4.53067268       0.00000000 NULL
P        7.34751780      -0.19278410       2.50858088       0.00000000 NULL
16
Lattice="8.88010013054722 -0.027760513260672727 1.0671881636962977 -0.3471615329565174 8.737356204959063 -0.21349034991056506 -3.3055695837516996 -4.624481201504618 4.394640961499005" Properties=species:S:1:pos:R:3:initial_magmoms:R:1:castep_labels:S:1 n_minim_iter=19 pbc="T T T"
P        4.44732753       1.44450646       3.62780541       0.00000000 NULL
P        0.86740645      -4.24669079       4.84123819       0.00000000 NULL
P       -1.02985443      -0.68271750       4.23697885       0.00000000 NULL
P        6.54644605       4.83197148       3.00596161       0.00000000 NULL
P        1.02155619       1.30230951       1.85141410       0.00000000 NULL
P       -0.85371966      -2.07519760       2.59669828       0.00000000 NULL
P        3.41974254       6.25064750       2.52858847       0.00000000 NULL
P        1.07631108      -1.26325947       3.90007362       0.00000000 NULL
P        3.60883456      -0.34689889       2.38936549       0.00000000 NULL
P        5.73253086      -0.46034308       3.92237718       0.00000000 NULL
P        2.12540908       0.76623843       3.72492449       0.00000000 NULL
P        1.92127692      -0.24398211       0.69138995       0.00000000 NULL
P        5.10090830      -2.72303032       4.48628429       0.00000000 NULL
P        5.18321991       2.25232996       1.14543061       0.00000000 NULL
P        3.35825183       3.75506186       4.52414701       0.00000000 NULL
P        7.35707235      -0.18667482       2.51461300       0.00000000 NULL
16
Lattice="8.880834130971412 0.11721301665183427 1.196175673931196 -0.19900735302273523 8.79191726752857 -0.2188893329826594 -3.2855400159367636 -4.723175144387995 4.217128923609028" Properties=species:S:1:pos:R:3:initial_magmoms:R:1:castep_labels:S:1 n_minim_iter=20 pbc="T T T"
P        4.58584456       1.57783146       3.61124862       0.00000000 NULL
P        0.93777651      -4.26462726       4.70305527       0.00000000 NULL
P       -0.93748533      -0.70713495       4.14787632       0.00000000 NULL
P        6.61362665       5.02406608       3.05671510       0.00000000 NULL
P        1.06234730       1.39306544       1.81403196       0.00000000 NULL
P       -0.80238557      -2.12761537       2.46265362       0.00000000 NULL
P        3.55691504       6.29146593       2.49634385       0.00000000 NULL
P        1.14137848      -1.25148512       3.80127319       0.00000000 NULL
P        3.69906678      -0.33433366       2.42615940       0.00000000 NULL
P        5.73327263      -0.35353093       3.91931181       0.00000000 NULL
P        2.17710695       0.79296073       3.67128900       0.00000000 NULL
P        1.94514682      -0.24576380       0.68747954       0.00000000 NULL
P        5.10790743      -2.72808766       4.40822526       0.00000000 NULL
P        5.20461730       2.31686584       1.23644563       0.00000000 NULL
P        3.48961550       3.84922929       4.47037882       0.00000000 NULL
P        7.44603692      -0.10547474       2.58071935       0.00000000 NULL
16