20
Lattice="5.781383564742978 -0.3852644056618315 -0.4003686927777243 -0.6032259888333593 5.762720103505479 -0.4003686927777253 -2.5462909965061193 -2.6442932310966802 16.216209853138935" Properties=species:S:1:pos:R:3:initial_magmoms:R:1:castep_labels:S:1:forces:R:3 n_minim_iter=1 energy=-99.305441972797 stress="0.000590194266390985 0.0010161198648196432 0.0005307450170946994 0.0010161198648196432 0.0006669510413500067 0.0005511663691183912 0.0005307450170946994 0.0005511663691183912 -0.0010486335609322006" free_energy=-99.305441972797 pbc="T T T"
P        3.20279169       2.70367093       3.09226603       0.00000000 NULL       0.26650900      -0.82134100      -0.25926800
P        1.30769923       1.98042081      11.20037095       0.00000000 NULL      -0.83081500       0.23531400      -0.25926800
P        2.63051592       0.90846269       7.76422485       0.00000000 NULL      -0.75127400      -0.26477700       0.40304100
P       -0.46462723       1.34078723      15.87232977       0.00000000 NULL      -0.23622800      -0.76073500       0.40304000
P        3.09250957       3.24248386      11.24548445       0.00000000 NULL       0.56369300       0.07725400       0.47806500
P        4.39658207       4.53484968       3.13737952       0.00000000 NULL       0.05592100       0.56620700       0.47806500
P        1.70010959       2.01344183       4.66710708       0.00000000 NULL       0.00736300      -0.04170300      -0.08782600
P        0.67468544       0.45275486      12.77521201       0.00000000 NULL      -0.04195200       0.00578400      -0.08782600
P        1.26406316       1.31468848      -0.18571894       0.00000000 NULL      -0.57004900       0.30463100      -0.23277300
P       -0.00710998      -0.00935739       7.92238598       0.00000000 NULL       0.32593200      -0.55814300      -0.23277300
P       -1.54577079       1.00315664      12.62012544       0.00000000 NULL       0.10172700       0.50837500      -0.62624700
P        2.33393706      -0.18465523       4.51202052       0.00000000 NULL       0.50417700       0.12085000      -0.62624800
P        3.51380252       2.90339448       0.86200565       0.00000000 NULL       0.45555200       0.06306000      -0.06172600
P        1.49554037       2.29874916       8.97011057       0.00000000 NULL       0.04581900       0.45760800      -0.06172500
P       -1.94465196       2.95515739      13.66732866       0.00000000 NULL       0.08291000      -0.43679500      -0.01489100
P        4.29960360      -0.50956782       5.55922373       0.00000000 NULL      -0.43961200       0.06636300      -0.01489100
P        2.61104944      -0.74502500      12.50467185       0.00000000 NULL       0.05478200      -0.33199900       0.51775200
P        0.43008936       3.90321186       4.39656693       0.00000000 NULL      -0.33383600       0.04220500       0.51775200
P        0.75864488       1.71132129       6.87930135       0.00000000 NULL       0.21607000       0.53184900      -0.11612800
P        0.40831871      -0.49944332      14.98740627       0.00000000 NULL       0.52331300       0.23599400      -0.11612600
20
Lattice="5.606510752873015 -0.7420690736582914 -0.6265695869392222 -0.9531752435017178 5.574503232337051 -0.6265695869392233 -2.8623877338398778 -2.9725559724920316 17.660726900032518" Properties=species:S:1:pos:R:3:initial_magmoms:R:1:castep_labels:S:1:forces:R:3 n_minim_iter=2 energy=-100.211931898155 stress="-0.002550774464004787 -0.0018342122971370589 -0.003692420481709057 -0.0018342122971370589 -0.0026893419916884506 -0.0038345350589893234 -0.003692420481709057 -0.0038345350589893234 0.004389347887695045" free_energy=-100.211931898155 pbc="T T T"
P        2.83252761       2.15192363       3.07864528       0.00000000 NULL      -0.79518100      -1.53880900      -0.28457700
P        0.61227356       1.42546185      11.90900873       0.00000000 NULL      -1.50769600      -0.85270100      -0.28457700
P        2.09396707       0.37174776       8.29695008       0.00000000 NULL      -0.96210200      -0.29248900       0.17219900
P       -1.13875432       0.62022946      17.12731353       0.00000000 NULL      -0.25596200      -0.97245800       0.17219900
P        2.42079643       2.47627929      11.94505376       0.00000000 NULL       1.22858200       0.13515200       0.98967400
P        3.81432784       3.99882389       3.11469031       0.00000000 NULL       0.08868200       1.23280700       0.98967500
P        1.33399166       1.63328186       4.87758346       0.00000000 NULL       0.51612000       0.17863600      -0.01667400
P        0.15056829      -0.09158380      13.70794691       0.00000000 NULL       0.15902600       0.52249500      -0.01667400
P        1.06081374       1.22628273      -0.32762747       0.00000000 NULL       0.51967700       1.39335000       0.44388200
P       -0.24582882      -0.37993047       8.50273598       0.00000000 NULL       1.37274000       0.57190400       0.44388100
P       -2.00201740       0.65595050      13.52030338       0.00000000 NULL       0.65963700       0.41272800      -1.00037900
P        2.16224918      -0.48955167       4.68993993       0.00000000 NULL       0.38753400       0.67474900      -1.00038000
P        3.21484667       2.51641472       0.68029157       0.00000000 NULL      -0.27779400      -0.46765000      -0.42159600
P        0.96207305       1.82126727       9.51065502       0.00000000 NULL      -0.45683100      -0.29524900      -0.42159600
P       -2.55203246       2.38930744      14.68178913       0.00000000 NULL      -0.05903900       0.47032300      -0.43543900
P        3.91513275      -0.97374381       5.85142568       0.00000000 NULL       0.47221700      -0.04124200      -0.43543900
P        2.11756363      -1.40546941      13.47943699       0.00000000 NULL      -0.50215600      -1.11669900       0.65512600
P       -0.05320783       3.54927863       4.64907354       0.00000000 NULL      -1.09695100      -0.54395300       0.65512600
P        0.38934691       1.39517816       7.29824445       0.00000000 NULL       0.21578200       0.30207500      -0.10221600
P       -0.05170718      -1.04454325      16.12860790       0.00000000 NULL       0.29371400       0.22703100      -0.10221600
20
Lattice="5.564081837844452 -0.9791478690645662 -0.6501330559475081 -1.188483459421435 5.523155286102848 -0.6501330559475091 -2.758988805028921 -2.8651774018837908 18.169227365164353" Properties=species:S:1:pos:R:3:initial_magmoms:R:1:castep_labels:S:1:forces:R:3 n_minim_iter=3 energy=-101.108951067403 stress="0.004816068037643005 -0.0022514777905867397 -0.0006281548178818013 -0.0022514777905867397 0.004645963486830337 -0.0006523273646395033 -0.0006281548178818013 -0.0006523273646395033 0.009057940619843982" free_energy=-101.108951067403 pbc="T T T"
P        2.71666693       1.86585691       3.12772535       0.00000000 NULL      -0.62637200      -0.68511300      -0.07533600
P        0.38248370       1.35257456      12.21233903       0.00000000 NULL      -0.66098000      -0.65178700      -0.07533600
P        1.92286975       0.21401545       8.58881843       0.00000000 NULL      -0.27552900       0.22956400      -0.20721200
P       -1.23821615       0.49698928      17.67343211       0.00000000 NULL       0.23980100      -0.26667200      -0.20721200
P        2.30085684       2.27145003      12.35135953       0.00000000 NULL       0.59495500       0.09550700       1.07656200
P        3.56247259       3.81754859       3.26674584       0.00000000 NULL       0.07298400       0.59813400       1.07656300
P        1.23070916       1.52160840       5.00054656       0.00000000 NULL       0.54905800       0.03206800      -0.09876100
P        0.09457261      -0.14531887      14.08516024       0.00000000 NULL       0.01131800       0.54987700      -0.09876200
P        0.93135228       1.21630416      -0.36192084       0.00000000 NULL       0.71618700       0.80403800       0.95536000
P       -0.19921389      -0.45598704       8.72269284       0.00000000 NULL       0.77642800       0.74602700       0.95536100
P       -2.04100099       0.73946058      13.80563363       0.00000000 NULL       0.39957400      -0.00309100      -0.71677800
P        2.19547183      -0.57904441       4.72101995       0.00000000 NULL      -0.01817500       0.39917200      -0.71677700
P        3.10000058       2.32117324       0.67597168       0.00000000 NULL      -0.69973800      -0.56128300      -0.76833900
P        0.82300541       1.75282232       9.76058537       0.00000000 NULL      -0.53446900      -0.72042700      -0.76834000
P       -2.66981602       2.36149922      15.09014858       0.00000000 NULL      -0.13739200       0.39190900      -0.71767000
P        3.84009099      -1.14618243       6.00553490       0.00000000 NULL       0.39681400      -0.12250000      -0.71767000
P        2.10030674      -1.58543774      13.94086066       0.00000000 NULL      -0.14257900      -0.98149300       0.26848300
P       -0.28409595       3.47155130       4.85624697       0.00000000 NULL      -0.97541100      -0.17952600       0.26848100
P        0.31141122       1.38130207       7.48299774       0.00000000 NULL       0.40542100      -0.07664500       0.28369100
P       -0.01093199      -1.06925791      16.56761142       0.00000000 NULL      -0.09189500       0.40224000       0.28369100
20
Lattice="5.497565899189533 -0.9967775530550287 -0.659229189400196 -1.2035897291099873 5.456021267387708 -0.6592291894001971 -2.7539285636013613 -2.859922400718187 18.0661934620031" Properties=species:S:1:pos:R:3:initial_magmoms:R:1:castep_labels:S:1:forces:R:3 n_minim_iter=4 energy=-101.222269307643 stress="-0.00613980193923307 -0.00181686946504669 -0.0005297765736158918 -0.00181686946504669 -0.006277055816660925 -0.0005501650058932297 -0.0005297765736158918 -0.0005501650058932297 -0.0006533574964601318" free_energy=-101.222269307643 pbc="T T T"
P        2.66645056       1.79688599       3.08799093       0.00000000 NULL      -0.64681400      -0.88333700      -0.07175800
P        0.31798763       1.30241796      12.12108767       0.00000000 NULL      -0.85829100      -0.67969700      -0.07175900
P        1.85733968       0.17307582       8.53504273       0.00000000 NULL       0.59932300       0.14833600      -0.33574400
P       -1.27412284       0.43258802      17.56813946       0.00000000 NULL       0.12560700       0.60449000      -0.33574400
P        2.23630530       2.19148724      12.27144764       0.00000000 NULL       0.82791600       0.14540400       0.93859300
P        3.48247337       3.74739711       3.23835091       0.00000000 NULL       0.11405000       0.83281400       0.93859400
P        1.19434919       1.47858795       4.95672105       0.00000000 NULL       0.50017700       0.12288500      -0.04222600
P        0.05548546      -0.18064937      13.98981778       0.00000000 NULL       0.10391700       0.50445900      -0.04222600
P        0.90296844       1.20498536      -0.36707785       0.00000000 NULL       0.46670100       0.26776200       1.20326600
P       -0.20692307      -0.48215042       8.66601889       0.00000000 NULL       0.24995100       0.47647500       1.20326600
P       -2.05190167       0.71308409      13.69962869       0.00000000 NULL       0.42719600      -0.15160000      -0.93098900
P        2.16699550      -0.59356048       4.66653196       0.00000000 NULL      -0.16761800       0.42117000      -0.93098900
P        3.05008920       2.26793393       0.65024999       0.00000000 NULL      -0.49123300      -0.66038600      -0.56599000
P        0.77421822       1.70356434       9.68334672       0.00000000 NULL      -0.64137300      -0.51581100      -0.56599200
P       -2.68663054       2.29637705      14.98764371       0.00000000 NULL      -0.20821700       0.47249500      -0.47675200
P        3.77311983      -1.16807070       5.95454698       0.00000000 NULL       0.48001700      -0.19023300      -0.47675200
P        2.04571908      -1.62539172      13.86148004       0.00000000 NULL      -0.25716900      -1.00961500       0.30815800
P       -0.32449099       3.41286685       4.82838331       0.00000000 NULL      -0.99918900      -0.29509700       0.30815800
P        0.28343067       1.34891718       7.42620252       0.00000000 NULL       0.31246900       0.07443000      -0.02655800
P       -0.03970746      -1.09581349      16.45929925       0.00000000 NULL       0.06258000       0.31505600      -0.02655900
20
Lattice="5.507806618052303 -0.9974473038762346 -0.7571143164407192 -1.2046455701311667 5.4662294057452545 -0.7571143164407205 -3.0436487130167085 -3.1607933660016236 18.197477847194786" Properties=species:S:1:pos:R:3:initial_magmoms:R:1:castep_labels:S:1:forces:R:3 n_minim_iter=5 energy=-101.398795085452 stress="-0.0013821531148679072 0.005657347852556603 -0.0034889048936854617 0.005657347852556603 -0.0009547588818705938 -0.0036231751208682357 -0.0034889048936854617 -0.0036231751208682357 -0.0038634354010114464" free_energy=-101.398795085452 pbc="T T T"
P        2.61644111       1.70774250       2.98353642       0.00000000 NULL      -0.37698700      -0.59193700       0.13974500
P        0.08593537       1.09864367      12.08227535       0.00000000 NULL      -0.57727500      -0.39905700       0.13974700
P        1.70433640       0.02053560       8.49828999       0.00000000 NULL       0.82966700       0.08153100      -0.41694200
P       -1.56563884       0.12350020      17.59702892       0.00000000 NULL       0.05015600       0.83214800      -0.41694400
P        2.04825354       1.97226330      12.21042799       0.00000000 NULL       0.48830500       0.00123100       0.81214500
P        3.41536434       3.70163958       3.11168906       0.00000000 NULL      -0.01719800       0.48801200       0.81214600
P        1.11602054       1.38758428       4.89304556       0.00000000 NULL       0.56610200       0.13298400      -0.05219800
P       -0.17735667      -0.41279288      13.99178448       0.00000000 NULL       0.11151800       0.57071800      -0.05219600
P        0.89252848       1.21534350      -0.39621487       0.00000000 NULL       0.69195700       0.25367800       1.09311900
P       -0.34103830      -0.64262742       8.70252405       0.00000000 NULL       0.22737400       0.70104100       1.09311800
P       -2.27000552       0.49448541      13.69492983       0.00000000 NULL      -0.02052600      -0.94764300      -0.81321000
P        2.10164570      -0.66932508       4.59619091       0.00000000 NULL      -0.94618900      -0.05627900      -0.81321200
P        3.04030609       2.24285394       0.51685182       0.00000000 NULL      -0.44244000      -0.77800200      -0.38092100
P        0.60466533       1.54240599       9.61559075       0.00000000 NULL      -0.76074500      -0.47149300      -0.38092100
P       -2.93707166       2.03778997      14.98736867       0.00000000 NULL      -0.16163200       0.67921600      -0.16348000
P        3.66903080      -1.27765901       5.88862974       0.00000000 NULL       0.68483300      -0.13587900      -0.16348000
P        1.82446899      -1.88964422      13.88087218       0.00000000 NULL       0.22520800      -0.58533000      -0.08959600
P       -0.43534331       3.33223490       4.78213325       0.00000000 NULL      -0.59341900       0.20294700      -0.08959300
P        0.16847475       1.23243595       7.38941358       0.00000000 NULL       0.19033700      -0.16197700      -0.12866300
P       -0.29662638      -1.36551990      16.48815250       0.00000000 NULL      -0.16904600       0.18408900      -0.12866300
20
Lattice="5.507349693416961 -1.2635578419937032 -0.9297211143580335 -1.4705491997801963 5.455727643190186 -0.929721114358035 -3.38014221166912 -3.5102379039650886 18.90537750054917" Properties=species:S:1:pos:R:3:initial_magmoms:R:1:castep_labels:S:1:forces:R:3 n_minim_iter=6 energy=-102.01274878803 stress="0.002445620177440739 -0.0025189701743175835 -0.001977362140506573 -0.0025189701743175835 0.002255323252172852 -0.0020534727310768585 -0.001977362140506573 -0.0020534727310768585 -0.0023875454656676035" free_energy=-102.01274878803 pbc="T T T"
P        2.41233446       1.35340422       2.90465416       0.00000000 NULL      -0.15018500      -0.78314200       0.33183600
P       -0.42869250       0.70658464      12.35734291       0.00000000 NULL      -0.77691600      -0.17964100       0.33183700
P        1.40205031      -0.35021389       8.67358906       0.00000000 NULL       1.58545300       1.00284700      -0.58548300
P       -2.09296012      -0.36728780      18.12627781       0.00000000 NULL       0.94228400       1.62217900      -0.58548300
P        1.58751930       1.41619684      12.50797479       0.00000000 NULL       0.63978800       0.25843400       0.52909400
P        3.04533278       3.39496554       3.05528604       0.00000000 NULL       0.23409800       0.64908600       0.52909400
P        0.89955479       1.13534602       4.91966706       0.00000000 NULL       0.45250700      -0.06644800      -0.05135000
P       -0.58949074      -0.81334814      14.37235581       0.00000000 NULL      -0.08348200       0.44967700      -0.05135000
P        0.79118951       1.16938881      -0.41000585       0.00000000 NULL       0.34697900      -1.21764700       1.06002400
P       -0.55138163      -0.92035113       9.04268290       0.00000000 NULL      -1.22987700       0.30076700       1.06002500
P       -2.65836386       0.19749432      14.00754487       0.00000000 NULL      -0.31250500      -0.98888600      -0.12734800
P        1.98777281      -0.89389522       4.55485612       0.00000000 NULL      -0.97638600      -0.34961100      -0.12734800
P        2.87565966       1.99297380       0.30027299       0.00000000 NULL      -0.75483400      -0.41672300      -0.38023900
P        0.19293162       1.19372215       9.75296174       0.00000000 NULL      -0.38793200      -0.77002600      -0.38023500
P       -3.46895648       1.67873905      15.38485252       0.00000000 NULL       0.02693300       0.56814400       0.09020400
P        3.49856015      -1.64799596       5.93216377       0.00000000 NULL       0.56672200       0.04836000       0.09020300
P        1.50076657      -2.46988652      14.32196084       0.00000000 NULL       0.38151000      -0.67151500      -0.65823400
P       -0.83470617       3.16158243       4.86927209       0.00000000 NULL      -0.68543700       0.35589000      -0.65823500
P       -0.09840927       0.99210413       7.53067915       0.00000000 NULL       0.47559500      -0.27656100      -0.20850800
P       -0.69495931      -1.81600805      16.98336790       0.00000000 NULL      -0.29431700       0.46481600      -0.20850400
20
Lattice="5.4341668140294965 -1.250716193875744 -0.9633418761291085 -1.4549541904200345 5.383081669833902 -0.96334187612911 -3.4169349263118267 -3.5484467050867514 19.39198198148336" Properties=species:S:1:pos:R:3:initial_magmoms:R:1:castep_labels:S:1:forces:R:3 n_minim_iter=7 energy=-102.171773417738 stress="-0.001233807967905055 -0.001375734109326074 -0.0014511156741584368 -0.001375734109326074 -0.0013377350598781353 -0.0015069531091773927 -0.0014511156741584368 -0.0015069531091773927 0.006174999668805914" free_energy=-102.171773417738 pbc="T T T"
P        2.37059406       1.28139728       2.96707061       0.00000000 NULL      -0.05604100      -0.67873600       0.37027200
P       -0.51746885       0.64305145      12.66306160       0.00000000 NULL      -0.67613800      -0.08162300       0.37027200
P        1.33875997      -0.38990879       8.88325615       0.00000000 NULL       1.87700100       0.93208400      -0.67859100
P       -2.14863399      -0.45113584      18.57924714       0.00000000 NULL       0.86056700       1.91084800      -0.67859000
P        1.52107535       1.32434903      12.84316915       0.00000000 NULL       0.55088300       0.17338500       0.37880200
P        2.97445492       3.34420626       3.14717816       0.00000000 NULL       0.15246600       0.55703400       0.37880200
P        0.86948640       1.08827048       5.03018579       0.00000000 NULL       0.41708800      -0.00524000      -0.06854900
P       -0.65379407      -0.86427652      14.72617678       0.00000000 NULL      -0.02098000       0.41659300      -0.06855000
P        0.76951652       1.14762806      -0.39996644       0.00000000 NULL       0.27442500      -1.50953000       0.95022700
P       -0.59070512      -0.96193451       9.29602455       0.00000000 NULL      -1.51881300       0.21724700       0.95022700
P       -2.68238076       0.13323010      14.32750507       0.00000000 NULL      -0.46285300      -0.89906300      -0.00085400
P        1.94285734      -0.90121645       4.63151408       0.00000000 NULL      -0.88095000      -0.49646100      -0.00085400
P        2.83390949       1.95224449       0.28125755       0.00000000 NULL      -0.66480100      -0.45617400      -0.50928300
P        0.13541097       1.13135987       9.97724854       0.00000000 NULL      -0.43075400      -0.68154700      -0.50928300
P       -3.49638831       1.57893368      15.76407089       0.00000000 NULL       0.09411700       0.62948900       0.14494600
P        3.41825778      -1.66007130       6.06807990       0.00000000 NULL       0.62548800       0.11781200       0.14494500
P        1.42412467      -2.53353001      14.69334522       0.00000000 NULL       0.28301300      -0.70895500      -0.72963700
P       -0.87701486       3.10169713       4.99735423       0.00000000 NULL      -0.71913300       0.25605000      -0.72963700
P       -0.12300925       0.94811968       7.70727627       0.00000000 NULL       0.47059500      -0.15752900       0.14266800
P       -0.75638017      -1.86135522      17.40326726       0.00000000 NULL      -0.17518000       0.46431300       0.14266800
20
Lattice="5.416575721499697 -1.3394283065363572 -0.9800009579679855 -1.5429390467253072 5.362154402213843 -0.9800009579679868 -3.421953740644171 -3.5536586847015563 19.301481865932736" Properties=species:S:1:pos:R:3:initial_magmoms:R:1:castep_labels:S:1:forces:R:3 n_minim_iter=8 energy=-102.503199532693 stress="-0.0007096810767618131 -0.003761020678306689 -0.0005399981224410765 -0.003761020678306689 -0.000993836206905541 -0.0005607786409050731 -0.0005399981224410765 -0.0005607786409050731 -0.0015963024665769671" free_energy=-102.503199532693 pbc="T T T"
P        2.34152995       1.13148193       2.93190270       0.00000000 NULL       0.04982900      -0.37506700       0.37941800
P       -0.66868965       0.60574305      12.58264364       0.00000000 NULL      -0.37667700       0.03563600       0.37941900
P        1.29763484      -0.45862732       8.80403226       0.00000000 NULL       1.25178300       0.93960000      -0.54402900
P       -2.21826056      -0.49743164      18.45477320       0.00000000 NULL       0.89167800       1.28635900      -0.54402900
P        1.45552411       1.20056220      12.79365446       0.00000000 NULL       0.06064700       0.25850700      -0.15219000
P        2.85574015       3.27663501       3.14291353       0.00000000 NULL       0.25603500       0.07036600      -0.15218900
P        0.82932292       1.02441522       4.97193761       0.00000000 NULL       0.30117300      -0.13358900      -0.02320900
P       -0.71859713      -0.90942777      14.62267854       0.00000000 NULL      -0.14486500       0.29591500      -0.02320700
P        0.72086152       1.09200923      -0.36222939       0.00000000 NULL       0.18467400      -1.17825300       0.68206600
P       -0.64695708      -1.01526032       9.28851154       0.00000000 NULL      -1.18438400       0.14006700       0.68206500
P       -2.73769797       0.11358487      14.19471424       0.00000000 NULL      -0.34575400      -0.89606500       0.07269100
P        1.92782364      -0.95462981       4.54397330       0.00000000 NULL      -0.88237500      -0.37933200       0.07269200
P        2.78527443       1.86917121       0.22597933       0.00000000 NULL      -0.58241300      -0.14936000      -0.28678000
P        0.05172337       1.07701763       9.87672026       0.00000000 NULL      -0.12726800      -0.58763700      -0.28678000
P       -3.57702064       1.53115771      15.67030996       0.00000000 NULL       0.31788400       0.62754900       0.60594200
P        3.37606898      -1.73984363       6.01956902       0.00000000 NULL       0.61510200       0.34134600       0.60594300
P        1.41077671      -2.66361925      14.61282659       0.00000000 NULL       0.12137500      -0.75092700      -0.66854600
P       -1.00399811       3.08605405       4.96208566       0.00000000 NULL      -0.75497400       0.09294100      -0.66854600
P       -0.15646027       0.91759082       7.63782735       0.00000000 NULL       0.47833000      -0.11182500      -0.06536600
P       -0.78813396      -1.89854079      17.28856828       0.00000000 NULL      -0.12979900       0.47376800      -0.06536700
20
Lattice="5.424279094583092 -1.401234698631303 -1.0264359644847796 -1.6049921761940784 5.367519211976367 -1.0264359644847807 -3.5303954185085327 -3.66627409085072 19.365483845409248" Properties=species:S:1:pos:R:3:initial_magmoms:R:1:castep_labels:S:1:forces:R:3 n_minim_iter=9 energy=-102.742153673218 stress="-0.004139261027745116 -0.007024013919221683 -0.0009468102528972609 -0.007024013919221683 -0.004669933332972163 -0.0009832481601385976 -0.0009468102528972609 -0.0009832481601385976 -0.001689887856008311" free_energy=-102.742153673218 pbc="T T T"
P        2.32093634       1.00493557       2.90685013       0.00000000 NULL      -0.08041800      -0.41474700       0.22784400
P       -0.84858928       0.52407953      12.58959206       0.00000000 NULL      -0.41141500      -0.09601700       0.22784400
P        1.20143714      -0.53488636       8.75712457       0.00000000 NULL       1.30853600       0.68014700      -0.53869900
P       -2.34505481      -0.65274711      18.43986649       0.00000000 NULL       0.63026700       1.33327800      -0.53869800
P        1.32154448       1.07686972      12.74913160       0.00000000 NULL       0.11195600      -0.14971800       0.29827600
P        2.79141415       3.19438942       3.06638967       0.00000000 NULL      -0.15383800       0.10622400       0.29827700
P        0.79548037       0.94370421       4.93158799       0.00000000 NULL       0.35087900      -0.19262800      -0.03148900
P       -0.85219396      -1.00260059      14.61432991       0.00000000 NULL      -0.20573600       0.34335800      -0.03148900
P        0.69561263       1.06868964      -0.34132472       0.00000000 NULL      -0.22291900      -1.27533400       0.51420700
P       -0.72352779      -1.09767919       9.34141720       0.00000000 NULL      -1.26601000      -0.27090100       0.51420600
P       -2.84683242       0.00460190      14.16154642       0.00000000 NULL      -0.37962500      -0.56867100       0.33589700
P        1.87725880      -1.01149268       4.47880450       0.00000000 NULL      -0.55393600      -0.40082000       0.33589800
P        2.75165822       1.82144039       0.13136172       0.00000000 NULL      -0.17477200      -0.04711000       0.27859300
P       -0.04892532       0.98531593       9.81410364       0.00000000 NULL      -0.04047900      -0.17642500       0.27859500
P       -3.71318279       1.42691912      15.74294009       0.00000000 NULL       0.36865600       0.72598200      -0.06035900
P        3.33126538      -1.82353584       6.06019817       0.00000000 NULL       0.71154800       0.39579800      -0.06035800
P        1.34355063      -2.87996123      14.62011062       0.00000000 NULL       0.08229000      -0.51548400      -0.42740300
P       -1.16342741       3.06701709       4.93736869       0.00000000 NULL      -0.51822300       0.06277400      -0.42740400
P       -0.20017305       0.86232621       7.61600810       0.00000000 NULL       0.30159700       0.15313400      -0.59686900
P       -0.89592995      -2.00061626      17.29875002       0.00000000 NULL       0.14164000       0.30716100      -0.59686800
20
Lattice="5.4263822330593525 -1.4086469293281465 -1.0421390153354193 -1.612478513550647 5.369341053993999 -1.0421390153354204 -3.582060343834847 -3.719927507727637 19.271508117453404" Properties=species:S:1:pos:R:3:initial_magmoms:R:1:castep_labels:S:1:forces:R:3 n_minim_iter=10 energy=-103.002602471801 stress="-0.007651678440416012 -0.004058836972692542 5.837037121065867e-05 -0.004058836972692542 -0.007958300257803273 6.0606289665873585e-05 5.837037121065867e-05 6.0606289665873585e-05 -0.0013205678383953953" free_energy=-103.002602471801 pbc="T T T"
P        2.33817563       0.94709134       2.88445394       0.00000000 NULL      -0.44826000      -0.56046200      -0.08785400
P       -0.93287550       0.51229632      12.52020800       0.00000000 NULL      -0.54314200      -0.46909600      -0.08785400
P        1.15754831      -0.55309023       8.64770776       0.00000000 NULL       0.88392200       0.58102000      -0.32523300
P       -2.38742145      -0.72411854      18.28346182       0.00000000 NULL       0.54723700       0.90522800      -0.32523100
P        1.25086494       1.03160685      12.68167475       0.00000000 NULL       0.45168200      -0.40109600      -0.01438000
P        2.77468401       3.14887838       3.04592069       0.00000000 NULL      -0.41786000       0.43622000      -0.01438000
P        0.82091204       0.89179639       4.86824909       0.00000000 NULL       0.30086100      -0.06502700       0.00538300
P       -0.93085725      -1.00597318      14.50400315       0.00000000 NULL      -0.07633800       0.29819200       0.00538300
P        0.66807056       1.06348588      -0.30769453       0.00000000 NULL       0.01743800      -0.91305000       0.30689700
P       -0.75352065      -1.15222477       9.32805953       0.00000000 NULL      -0.91305700      -0.01704000       0.30689600
P       -2.89856521      -0.06316679      14.05586325       0.00000000 NULL      -0.50673500      -0.38206100       0.33068400
P        1.83732368      -1.03892003       4.42010920       0.00000000 NULL      -0.36265900      -0.52079600       0.33068400