30
Lattice="8.675769999999998 1.3280453586226366e-15 0.0 -4.337885 7.513437217390915 0.0 0.0 0.0 10.317789999999999" Properties=species:S:1:pos:R:3:initial_magmoms:R:1:castep_labels:S:1 n_minim_iter=1 pbc="T T T"
P       -0.12655389       1.77474825       5.15659929       0.00000000 NULL
P       -2.73763099       6.73566197       1.71733596       0.00000000 NULL
P        2.86418487       6.51646421       8.59586262       0.00000000 NULL
P       -0.88055725       4.82414888       4.57219863       0.00000000 NULL
P        0.28022910       5.86394772       1.13293530       0.00000000 NULL
P        0.60032814       4.33877783       8.01146196       0.00000000 NULL
P       -0.87129413       6.04196134       7.82483034       0.00000000 NULL
P        1.33025407       5.24701939       4.38556701       0.00000000 NULL
P       -0.45895995       3.73789370       0.94630367       0.00000000 NULL
P        4.38357160       0.04267031      10.31431084       0.00000000 NULL
P        2.18305277       3.69581769       6.87504751       0.00000000 NULL
P        6.44703062       3.77494921       3.43578417       0.00000000 NULL
P        2.45512405       0.65475248       0.39792724       0.00000000 NULL
P        3.67735525       5.05986118       7.27645391       0.00000000 NULL
P        6.88117569       1.79882356       3.83719057       0.00000000 NULL
P        4.76580998       6.45923060       9.35725740       0.00000000 NULL
P        7.54883779       0.15650940       5.91799407       0.00000000 NULL
P        0.69900722       0.89769721       2.47873073       0.00000000 NULL
P        5.04484053       2.40633004       5.75094733       0.00000000 NULL
P        3.89940768       1.94131214       2.31168400       0.00000000 NULL
P        4.06940679       3.16579504       9.19021066       0.00000000 NULL
P        1.03186745       4.23536663       9.97055303       0.00000000 NULL
P       -1.18588363       4.50213047       6.53128970       0.00000000 NULL
P        0.15401617       6.28937733       3.09202636       0.00000000 NULL
P        2.95505055       4.24406419       5.09456048       0.00000000 NULL
P        6.53582713       2.83225627       1.65529715       0.00000000 NULL
P        3.52277732       0.43711675       8.53382381       0.00000000 NULL
P        2.61631379       3.48041045       1.82707322       0.00000000 NULL
P        6.04385197       3.50743778       8.70559989       0.00000000 NULL
P        4.35348923       0.52558898       5.26633655       0.00000000 NULL
30
Lattice="8.697693210410502 -3.5467611228911883e-16 0.0 -4.34884660520525 7.532423274538924 0.0 0.0 0.0 10.354345513116435" Properties=species:S:1:pos:R:3:initial_magmoms:R:1:castep_labels:S:1 n_minim_iter=2 pbc="T T T"
P       -0.12672556       1.77926064       5.17485195       0.00000000 NULL
P       -2.74459891       6.75254051       1.72340345       0.00000000 NULL
P        2.87132447       6.53304540       8.62630046       0.00000000 NULL
P       -0.88252140       4.83655679       4.58819938       0.00000000 NULL
P        0.28099514       5.87843083       1.13675087       0.00000000 NULL
P        0.60152625       4.34985893       8.03964788       0.00000000 NULL
P       -0.87344280       6.05715138       7.85258734       0.00000000 NULL
P        1.33352176       5.26027123       4.40113884       0.00000000 NULL
P       -0.46007897       3.74742393       0.94969033       0.00000000 NULL
P        4.39490414       0.04293137      10.35098582       0.00000000 NULL
P        2.18857419       3.70485895       6.89953732       0.00000000 NULL
P        6.46306148       3.78463295       3.44808881       0.00000000 NULL
P        2.46120355       0.65657867       0.39941028       0.00000000 NULL
P        3.68685864       5.07266914       7.30230729       0.00000000 NULL
P        6.89847762       1.80317546       3.85085878       0.00000000 NULL
P        4.77792273       6.47553617       9.39047350       0.00000000 NULL
P        7.56786406       0.15685272       5.93902500       0.00000000 NULL
P        0.70075301       0.90003438       2.48757650       0.00000000 NULL
P        5.05762178       2.41237745       5.77123389       0.00000000 NULL
P        3.90921586       1.94620560       2.31978539       0.00000000 NULL
P        4.07970216       3.17384022       9.22268240       0.00000000 NULL
P        1.03475585       4.24605818      10.00603860       0.00000000 NULL
P       -1.18903029       4.51326933       6.55459010       0.00000000 NULL
P        0.15427443       6.30551904       3.10314159       0.00000000 NULL
P        2.96277485       4.25470961       5.11244776       0.00000000 NULL
P        6.55214579       2.83923018       1.66099925       0.00000000 NULL
P        3.53161917       0.43848348       8.56389626       0.00000000 NULL
P        2.62296416       3.48924001       1.83355019       0.00000000 NULL
P        6.05913501       3.51624966       8.73644720       0.00000000 NULL
P        4.36444063       0.52693359       5.28499869       0.00000000 NULL
30
Lattice="8.96488379586841 -1.2154371492192074e-16 0.0 -4.482441897934204 7.7638171091975074 0.0 0.0 0.0 10.804918255977263" Properties=species:S:1:pos:R:3:initial_magmoms:R:1:castep_labels:S:1 n_minim_iter=3 pbc="T T T"
P       -0.12880831       1.83421417       5.39978495       0.00000000 NULL
P       -2.82956168       6.95826129       1.79814553       0.00000000 NULL
P        2.95836998       6.73515876       9.00142437       0.00000000 NULL
P       -0.90618057       4.98799296       4.78524495       0.00000000 NULL
P        0.29037700       6.05459602       1.18360553       0.00000000 NULL
P        0.61580357       4.48504524       8.38688437       0.00000000 NULL
P       -0.89955614       6.24214616       8.19473493       0.00000000 NULL
P        1.37319332       5.42178250       4.59309552       0.00000000 NULL
P       -0.47363719       3.86370556       0.99145610       0.00000000 NULL
P        4.53313756       0.04624168      10.80314669       0.00000000 NULL
P        2.25591958       3.81488398       7.20150727       0.00000000 NULL
P        6.65826854       3.90269145       3.59986785       0.00000000 NULL
P        2.53523024       0.67894059       0.41782964       0.00000000 NULL
P        3.80280657       5.22877302       7.62110847       0.00000000 NULL
P        7.10928887       1.85610350       4.01946905       0.00000000 NULL
P        4.92549891       6.67427193       9.79989978       0.00000000 NULL
P        7.79978148       0.16107396       6.19826036       0.00000000 NULL
P        0.72204529       0.92847122       2.59662095       0.00000000 NULL
P        5.21340189       2.48592700       6.02110951       0.00000000 NULL
P        4.02861688       2.00591513       2.41947009       0.00000000 NULL
P        4.20530691       3.27197498       9.62274893       0.00000000 NULL
P        1.07017347       4.37636096      10.44355804       0.00000000 NULL
P       -1.22748886       4.64883922       6.84191862       0.00000000 NULL
P        0.15731539       6.50243404       3.24027920       0.00000000 NULL
P        3.05709970       4.38436418       5.33285921       0.00000000 NULL
P        6.75086280       2.92410901       1.73121979       0.00000000 NULL
P        3.63936318       0.45534391       8.93449862       0.00000000 NULL
P        2.70412699       3.59680568       1.91340843       0.00000000 NULL
P        6.24530349       3.62357159       9.11668727       0.00000000 NULL
P        4.49789520       0.54343983       5.51504785       0.00000000 NULL
30
Lattice="9.003143293071096 2.0072728832440523e-15 0.0 -4.501571646535549 7.7969508057110515 0.0 0.0 0.0 10.920575852489435" Properties=species:S:1:pos:R:3:initial_magmoms:R:1:castep_labels:S:1 n_minim_iter=4 pbc="T T T"
P       -0.12952326       1.84143066       5.45711245       0.00000000 NULL
P       -2.84208429       6.98840590       1.81692050       0.00000000 NULL
P        2.97160754       6.76406505       9.09730440       0.00000000 NULL
P       -0.90663267       5.01191985       4.83447301       0.00000000 NULL
P        0.29219460       6.07615780       1.19428106       0.00000000 NULL
P        0.61443807       4.50582396       8.47466496       0.00000000 NULL
P       -0.90255305       6.26713177       8.28269945       0.00000000 NULL
P        1.37720020       5.44501879       4.64250750       0.00000000 NULL
P       -0.47464716       3.88175105       1.00231555       0.00000000 NULL
P        4.55382176       0.04799511      10.92012494       0.00000000 NULL
P        2.26622574       3.82922792       7.27993299       0.00000000 NULL
P        6.68466742       3.91972778       3.63974104       0.00000000 NULL
P        2.54532391       0.68303624       0.42401314       0.00000000 NULL
P        3.82043643       5.25111752       7.70439704       0.00000000 NULL
P        7.13895460       1.86279704       4.06420509       0.00000000 NULL
P        4.94572165       6.70295657       9.90469407       0.00000000 NULL
P        7.83364149       0.16235193       6.26450212       0.00000000 NULL
P        0.72535179       0.93164230       2.62431017       0.00000000 NULL
P        5.23575206       2.49442026       6.08344390       0.00000000 NULL
P        4.04392693       2.01544638       2.44325195       0.00000000 NULL
P        4.22503594       3.28708416       9.72363585       0.00000000 NULL
P        1.07719985       4.39512073      10.55695057       0.00000000 NULL
P       -1.23388537       4.66650800       6.91675862       0.00000000 NULL
P        0.15668551       6.53227288       3.27656667       0.00000000 NULL
P        3.07225771       4.40206390       5.38926323       0.00000000 NULL
P        6.77774196       2.93526562       1.74907128       0.00000000 NULL
P        3.65471526       0.45962128       9.02945519       0.00000000 NULL
P        2.71742011       3.61119336       1.93435790       0.00000000 NULL
P        6.27024678       3.63799927       9.21474180       0.00000000 NULL
P        4.51704804       0.54775817       5.57454985       0.00000000 NULL
30
Lattice="8.99648564331326 1.4950936273237343e-15 0.0 -4.498242821656631 7.7911851118912665 0.0 0.0 0.0 10.959279245483248" Properties=species:S:1:pos:R:3:initial_magmoms:R:1:castep_labels:S:1 n_minim_iter=5 pbc="T T T"
P       -0.13008912       1.83918169       5.47589851       0.00000000 NULL
P       -2.84042020       6.98425475       1.82280543       0.00000000 NULL
P        2.97050932       6.75893379       9.12899159       0.00000000 NULL
P       -0.90203485       5.01125351       4.84954265       0.00000000 NULL
P        0.29264744       6.06674345       1.19644957       0.00000000 NULL
P        0.60938740       4.50437326       8.50263573       0.00000000 NULL
P       -0.90082002       6.26048695       8.31225586       0.00000000 NULL
P        1.37390793       5.44107466       4.65916278       0.00000000 NULL
P       -0.47308791       3.88080861       1.00606969       0.00000000 NULL
P        4.55158234       0.04966849      10.96021018       0.00000000 NULL
P        2.26546582       3.82456493       7.30711709       0.00000000 NULL
P        6.67768029       3.91695169       3.65402401       0.00000000 NULL
P        2.54277154       0.68372381       0.42768458       0.00000000 NULL
P        3.81897924       5.24721845       7.73387075       0.00000000 NULL
P        7.13297767       1.86024285       4.08077767       0.00000000 NULL
P        4.94081979       6.69830278       9.93944959       0.00000000 NULL
P        7.82873329       0.16315827       6.28635651       0.00000000 NULL
P        0.72517538       0.92972407       2.63326342       0.00000000 NULL
P        5.23192438       2.48985266       6.10229812       0.00000000 NULL
P        4.03855628       2.01527936       2.44920504       0.00000000 NULL
P        4.22424780       3.28605309       9.75539120       0.00000000 NULL
P        1.07897935       4.39204843      10.59599842       0.00000000 NULL
P       -1.23410698       4.66073737       6.94290534       0.00000000 NULL
P        0.15512763       6.52958442       3.28981225       0.00000000 NULL
P        3.07213414       4.39761445       5.40795139       0.00000000 NULL
P        6.77062158       2.93183168       1.75485831       0.00000000 NULL
P        3.65197274       0.46173898       9.06104447       0.00000000 NULL
P        2.71769886       3.60712300       1.94191007       0.00000000 NULL
P        6.26325354       3.63402735       9.24809624       0.00000000 NULL
P        4.51377605       0.55003476       5.59500316       0.00000000 NULL
30
Lattice="8.97620427454926 2.477004301746504e-16 0.0 -4.48810213727463 7.7736209313181215 0.0 0.0 0.0 10.980172447245572" Properties=species:S:1:pos:R:3:initial_magmoms:R:1:castep_labels:S:1 n_minim_iter=6 pbc="T T T"
P       -0.13134346       1.83308922       5.48508428       0.00000000 NULL
P       -2.83492858       6.97082309       1.82502680       0.00000000 NULL
P        2.96627203       6.74332955       9.14514176       0.00000000 NULL
P       -0.89122525       5.00679364       4.85442562       0.00000000 NULL
P        0.29352096       6.04204781       1.19436814       0.00000000 NULL
P        0.59770427       4.49840041       8.51448310       0.00000000 NULL
P       -0.89632817       6.24189527       8.32853639       0.00000000 NULL
P        1.36570181       5.42891626       4.66847890       0.00000000 NULL
P       -0.46937365       3.87643033       1.00842142       0.00000000 NULL
P        4.54370341       0.05333912      10.98402384       0.00000000 NULL
P        2.26244346       3.81198879       7.32396635       0.00000000 NULL
P        6.65815953       3.90829303       3.66390887       0.00000000 NULL
P        2.53554466       0.68489061       0.43358231       0.00000000 NULL
P        3.81346247       5.23532954       7.75369727       0.00000000 NULL
P        7.11529928       1.85340078       4.09363979       0.00000000 NULL
P        4.92685079       6.68391572       9.95753792       0.00000000 NULL
P        7.81311755       0.16488512       6.29748044       0.00000000 NULL
P        0.72433806       0.92482009       2.63742296       0.00000000 NULL
P        5.22029474       2.47823259       6.10767317       0.00000000 NULL
P        4.02416714       2.01359677       2.44761568       0.00000000 NULL
P        4.21984452       3.28179157       9.76773065       0.00000000 NULL
P        1.08227736       4.38261057      10.61953372       0.00000000 NULL
P       -1.23378873       4.64503596       6.95947623       0.00000000 NULL
P        0.15151137       6.51959534       3.29941875       0.00000000 NULL
P        3.06992643       4.38488461       5.41762927       0.00000000 NULL
P        6.75056038       2.92254435       1.75757179       0.00000000 NULL
P        3.64381959       0.46619197       9.07768675       0.00000000 NULL
P        2.71672220       3.59597654       1.94721015       0.00000000 NULL
P        6.24394807       3.62288222       9.26732511       0.00000000 NULL
P        4.50363614       0.55476217       5.60726763       0.00000000 NULL
30
Lattice="9.002876697173372 1.5879371199577396e-15 0.0 -4.501438348586687 7.796719926891075 0.0 0.0 0.0 10.9327422236099" Properties=species:S:1:pos:R:3:initial_magmoms:R:1:castep_labels:S:1 n_minim_iter=7 pbc="T T T"
P       -0.13424555       1.83507926       5.45876194       0.00000000 NULL
P       -2.84509033       6.99544035       1.81451453       0.00000000 NULL
P        2.97933586       6.76292025       9.10300935       0.00000000 NULL
P       -0.87613641       5.03566594       4.82515205       0.00000000 NULL
P        0.29764448       6.03764334       1.18090464       0.00000000 NULL
P        0.57849192       4.52013057       8.46939946       0.00000000 NULL
P       -0.89390666       6.25188357       8.29365293       0.00000000 NULL
P        1.35980497       5.44492401       4.64940552       0.00000000 NULL
P       -0.46589832       3.89663226       1.00515812       0.00000000 NULL
P        4.56214205       0.06112818      10.94223225       0.00000000 NULL
P        2.27330587       3.81522493       7.29798485       0.00000000 NULL
P        6.66886712       3.92036682       3.65373744       0.00000000 NULL
P        2.53999031       0.69306510       0.44262210       0.00000000 NULL
P        3.83165517       5.25049123       7.73111691       0.00000000 NULL
P        7.13266955       1.85316359       4.08686950       0.00000000 NULL
P        4.93612934       6.70522894       9.91288611       0.00000000 NULL
P        7.84027228       0.16929205       6.26863871       0.00000000 NULL
P        0.72791342       0.92219893       2.62439130       0.00000000 NULL
P        5.23683364       2.47433177       6.06834879       0.00000000 NULL
P        4.02585570       2.02432307       2.42410138       0.00000000 NULL
P        4.24162570       3.29806508       9.71259620       0.00000000 NULL
P        1.09764886       4.39666441      10.57943054       0.00000000 NULL
P       -1.24263971       4.64779592       6.93518313       0.00000000 NULL
P        0.14499084       6.54897952       3.29093573       0.00000000 NULL
P        3.08864420       4.39173723       5.39336661       0.00000000 NULL
P        6.76047225       2.92600696       1.74911920       0.00000000 NULL
P        3.65519858       0.47897573       9.03761402       0.00000000 NULL
P        2.73475327       3.60174424       1.94174316       0.00000000 NULL
P        6.25326372       3.62748200       9.23023798       0.00000000 NULL
P        4.51629804       0.56749369       5.58599057       0.00000000 NULL
30
Lattice="8.990358555981937 1.2410609891500486e-15 0.0 -4.495179277990969 7.785878898611131 0.0 0.0 0.0 10.55554151279751" Properties=species:S:1:pos:R:3:initial_magmoms:R:1:castep_labels:S:1 n_minim_iter=8 pbc="T T T"
P       -0.13936897       1.82466836       5.26334408       0.00000000 NULL
P       -2.84528565       6.99424178       1.74483024       0.00000000 NULL
P        2.98465461       6.75284766       8.78185792       0.00000000 NULL
P       -0.83212096       5.06209955       4.63753272       0.00000000 NULL
P        0.30478800       5.97546701       1.11901889       0.00000000 NULL
P        0.52733295       4.53419123       8.15604656       0.00000000 NULL
P       -0.88041794       6.22625384       8.01221212       0.00000000 NULL
P        1.33712368       5.43521628       4.49369828       0.00000000 NULL
P       -0.45670575       3.91028768       0.97518444       0.00000000 NULL
P        4.56661257       0.07896303      10.58083745       0.00000000 NULL
P        2.28025698       3.79159489       7.06232361       0.00000000 NULL
P        6.63866828       3.91532098       3.54380977       0.00000000 NULL
P        2.53252395       0.70964298       0.45583583       0.00000000 NULL
P        3.84348614       5.23782733       7.49286350       0.00000000 NULL
P        7.10952773       1.83840859       3.97434967       0.00000000 NULL
P        4.91625614       6.69943571       9.56689461       0.00000000 NULL
P        7.83893272       0.17855833       6.04838077       0.00000000 NULL
P        0.73034896       0.90788485       2.52986693       0.00000000 NULL
P        5.23598530       2.44511768       5.82609553       0.00000000 NULL
P        3.99472065       2.02882377       2.30758170       0.00000000 NULL
P        4.25483188       3.31193745       9.34460937       0.00000000 NULL
P        1.12860725       4.39281404      10.22680400       0.00000000 NULL
P       -1.25519436       4.61206932       6.70829016       0.00000000 NULL
P        0.12658709       6.56687443       3.18977632       0.00000000 NULL
P        3.10583713       4.37131695       5.20458363       0.00000000 NULL
P        6.72793224       2.91048656       1.68606979       0.00000000 NULL
P        3.65176846       0.50407538       8.72309746       0.00000000 NULL
P        2.75376781       3.58804026       1.88082548       0.00000000 NULL
P        6.22562938       3.60702589       8.91785315       0.00000000 NULL
P        4.50614064       0.59081275       5.39933932       0.00000000 NULL
30
Lattice="9.213179670138773 1.8758204684067273e-16 -5.081859107983151e-57 -4.606589835069387 7.978847643970505 -4.942606499295755e-41 -5.487670642941822e-57 1.119908237392123e-40 10.777488601631013" Properties=species:S:1:pos:R:3:initial_magmoms:R:1:castep_labels:S:1 n_minim_iter=9 pbc="T T T"
P       -0.14100022       1.87016378       5.37295678       0.00000000 NULL
P       -2.91648039       7.16587552       1.78046057       0.00000000 NULL
P        3.05748059       6.92165598       8.96545298       0.00000000 NULL
P       -0.84925088       5.19024044       4.73195878       0.00000000 NULL
P        0.31291567       6.11920026       1.13946258       0.00000000 NULL
P        0.53633520       4.64825459       8.32445498       0.00000000 NULL
P       -0.90187033       6.38082382       8.18207816       0.00000000 NULL
P        1.37030085       5.56947835       4.58958195       0.00000000 NULL
P       -0.46843053       4.00739312       0.99708575       0.00000000 NULL
P        4.68231076       0.08267611      10.80638869       0.00000000 NULL
P        2.33703407       3.88250952       7.21389249       0.00000000 NULL
P        6.80042467       4.01366201       3.62139628       0.00000000 NULL
P        2.59535282       0.73068354       0.46836034       0.00000000 NULL
P        3.94170393       5.36586440       7.65335275       0.00000000 NULL
P        7.28271275       1.88229971       4.06085655       0.00000000 NULL
P        5.03819486       6.86566791       9.76854907       0.00000000 NULL
P        8.03333522       0.18280895       6.17605287       0.00000000 NULL
P        0.74823942       0.93037078       2.58355667       0.00000000 NULL
P        5.36784108       2.50537403       5.94529048       0.00000000 NULL
P        4.09238685       2.07747389       2.35279428       0.00000000 NULL
P        4.35954157       3.39599972       9.53778668       0.00000000 NULL
P        1.16189984       4.50122592      10.44291156       0.00000000 NULL
P       -1.28936377       4.72199991       6.85041536       0.00000000 NULL
P        0.12746392       6.73446946       3.25791916       0.00000000 NULL
P        3.18553635       4.47847153       5.31208786       0.00000000 NULL
P        6.89229177       2.98085647       1.71959166       0.00000000 NULL
P        3.74194138       0.51951964       8.90458406       0.00000000 NULL
P        2.82272286       3.67881431       1.92077769       0.00000000 NULL
P        6.38117505       3.69489078       9.10577009       0.00000000 NULL
P        4.61587159       0.60514255       5.51327389       0.00000000 NULL
30
Lattice="9.104752000440634 1.0409678048233835e-15 -3.616212771029198e-43 -4.552376000220318 7.884946527538768 -2.2534601346320726e-41 -4.230210775890764e-43 1.413065178286116e-40 10.649899112495193" Properties=species:S:1:pos:R:3:initial_magmoms:R:1:castep_labels:S:1 n_minim_iter=10 pbc="T T T"
P       -0.14011746       1.84752603       5.30885099       0.00000000 NULL
P       -2.88231280       7.08252879       1.75888462       0.00000000 NULL
P        3.02243025       6.83983823       8.85881736       0.00000000 NULL
P       -0.83742141       5.13026820       4.67473241       0.00000000 NULL
P        0.30927729       6.04504064       1.12476604       0.00000000 NULL
P        0.52814411       4.59458421       8.22469878       0.00000000 NULL
P       -0.89083527       6.30520546       8.08556765       0.00000000 NULL
P        1.35350973       5.50382976       4.53560127       0.00000000 NULL
P       -0.46267448       3.96085783       0.98563490       0.00000000 NULL
P        4.62705720       0.08233046      10.67951266       0.00000000 NULL
P        2.31014767       3.83663222       7.12954629       0.00000000 NULL
P        6.71992313       3.96598385       3.57957992       0.00000000 NULL
P        2.56557428       0.72297214       0.46459311       0.00000000 NULL
P        3.89570110       5.30160795       7.56452585       0.00000000 NULL
P        7.19585261       1.86036643       4.01455948       0.00000000 NULL
P        4.97784152       6.78504477       9.65245623       0.00000000 NULL
P        7.93947638       0.18148693       6.10248986       0.00000000 NULL
P        0.73981010       0.91841482       2.55252349       0.00000000 NULL
P        5.30548452       2.47431973       5.87283446       0.00000000 NULL
P        4.04245748       2.05310229       2.32286809       0.00000000 NULL
P        4.30918599       3.35752451       9.42280083       0.00000000 NULL
P        1.14962618       4.44820261      10.31997477       0.00000000 NULL
P       -1.27493263       4.66523974       6.77000840       0.00000000 NULL
P        0.12530644       6.65645070       3.22004203       0.00000000 NULL
P        3.14839558       4.42538396       5.24920944       0.00000000 NULL
P        6.81067314       2.94566399       1.69924307       0.00000000 NULL
P        3.69805927       0.51389857       8.79917581       0.00000000 NULL
P        2.79068074       3.63502455       1.89837689       0.00000000 NULL
P        6.30505923       3.65063383       8.99830963       0.00000000 NULL
P        4.56138802       0.59928814       5.44834326       0.00000000 NULL
30
Lattice="9.103934462171505 1.4324962225846223e-16 -4.68565350704266e-43 -4.551967231085753 7.884238518629136 -1.9661895170745698e-41 -5.486747498775116e-43 3.6417818421096753e-41 10.634834275712398" Properties=species:S:1:pos:R:3:initial_magmoms:R:1:castep_labels:S:1 n_minim_iter=11 pbc="T T T"
P       -0.14004900       1.84710833       5.30077728       0.00000000 NULL
P       -2.88229999       7.08197034       1.75583252       0.00000000 NULL
P        3.02234899       6.83939836       8.84572204       0.00000000 NULL
P       -0.83557762       5.13100258       4.66674929       0.00000000 NULL
P        0.30940016       6.04236867       1.12180453       0.00000000 NULL
P        0.52617745       4.59510578       8.21169405       0.00000000 NULL
P       -0.89050616       6.30443222       8.07466655       0.00000000 NULL
P        1.35308431       5.50322336       4.52972179       0.00000000 NULL
P       -0.46257816       3.96082145       0.98477703       0.00000000 NULL
P        4.62716190       0.08306217      10.66570326       0.00000000 NULL
P        2.31032022       3.83546768       7.12075850       0.00000000 NULL
P        6.71841956       3.96570867       3.57581374       0.00000000 NULL
P        2.56578255       0.72426921       0.46562159       0.00000000 NULL
P        3.89631149       5.30007104       7.55551111       0.00000000 NULL
P        7.19380765       1.85989827       4.01056635       0.00000000 NULL
P        4.97687193       6.78455855       9.63870835       0.00000000 NULL
P        7.93913132       0.18186171       6.09376359       0.00000000 NULL
P        0.73989843       0.91781825       2.54881883       0.00000000 NULL
P        5.30598811       2.47323804       5.86259688       0.00000000 NULL
P        4.04086015       2.05249900       2.31765212       0.00000000 NULL
P        4.30905343       3.35850148       9.40754164       0.00000000 NULL
P        1.15155112       4.44763085      10.30598113       0.00000000 NULL
P       -1.27598149       4.66315057       6.76103637       0.00000000 NULL
P        0.12443036       6.65769562       3.21609161       0.00000000 NULL
P        3.14892585       4.42448202       5.24131595       0.00000000 NULL
P        6.80921813       2.94494772       1.69637119       0.00000000 NULL
P        3.69775770       0.51480877       8.78626071       0.00000000 NULL
P        2.79120856       3.63491892       1.89599455       0.00000000 NULL
P        6.30429507       3.64952154       8.98588406       0.00000000 NULL
P        4.56039806       0.59979806       5.44093931       0.00000000 NULL
30
Lattice="9.110698567673422 -6.215479943866093e-16 -4.838192815146865e-43 -4.55534928383671 7.890096405827674 6.45991700801303e-41 -5.680275597811212e-43 7.441395882723413e-41 10.61295388509134" Properties=species:S:1:pos:R:3:initial_magmoms:R:1:castep_labels:S:1 n_minim_iter=12 pbc="T T T"
P       -0.13995945       1.84804018       5.28877782       0.00000000 NULL
P       -2.88491982       7.08728475       1.75112652       0.00000000 NULL
P        3.02487926       6.84486788       8.82642911       0.00000000 NULL
P       -0.83287900       5.13704312       4.65454449       0.00000000 NULL
P        0.30990005       6.04286922       1.11689320       0.00000000 NULL
P        0.52297894       4.60028047       8.19219579       0.00000000 NULL
P       -0.89074733       6.30876845       8.05908202       0.00000000 NULL
P        1.35357812       5.50712200       4.52143072       0.00000000 NULL
P       -0.46283080       3.96430237       0.98377943       0.00000000 NULL
P        4.63164559       0.08453087      10.64622985       0.00000000 NULL
P        2.31273237       3.83670822       7.10857856       0.00000000 NULL
P        6.72166988       3.96885731       3.57092726       0.00000000 NULL
P        2.56853121       0.72746444       0.46787458       0.00000000 NULL
P        3.90108636       5.30195091       7.54317717       0.00000000 NULL
P        7.19643028       1.86068106       4.00552587       0.00000000 NULL
P        4.97962686       6.78982361       9.61873879       0.00000000 NULL
P        7.94569558       0.18270123       6.08108749       0.00000000 NULL
P        0.74072539       0.91757156       2.54343620       0.00000000 NULL
P        5.31184650       2.47352019       5.84687171       0.00000000 NULL
P        4.04155735       2.05314230       2.30922042       0.00000000 NULL
P        4.31264399       3.36343392       9.38452301       0.00000000 NULL
P        1.15630989       4.45056696      10.28591980       0.00000000 NULL
P       -1.27920019       4.66341919       6.74826851       0.00000000 NULL
P        0.12289029       6.66620666       3.21061721       0.00000000 NULL
P        3.15282633       4.42680333       5.22960343       0.00000000 NULL