16
Lattice="5.8152883334262935 -0.3077558238381962 -8.432084871925915e-07 -0.5311042232671438 8.11199263907168 9.951119353088517e-07 -2.6420910809733518 -3.9021192035921493 7.008556780285742" Properties=species:S:1:pos:R:3:initial_magmoms:R:1:castep_labels:S:1:forces:R:3 n_minim_iter=1 energy=-83.529425609505 stress="-0.0001465976856169599 -0.0002685803147048609 -0.0 -0.0002685803147048609 0.0006973557815186895 -0.0 -0.0 -0.0 0.0004815870554211807" free_energy=-83.529425609505 pbc="T T T"
P       -2.07441359       4.38313019       6.25996395       0.00000000 NULL       0.16828600       0.18173400       0.08105600
P        1.54331111       3.72886103       6.25996337       0.00000000 NULL      -0.16828400      -0.18173000       0.08105500
P        4.63647949       3.17174235       0.05169539       0.00000000 NULL      -0.12131900      -0.31490200       0.11522500
P        0.64770464       4.63249445       0.05169611       0.00000000 NULL       0.12131900       0.31490100       0.11522700
P        3.71272955       3.80478350       1.95142687       0.00000000 NULL       0.16585400       0.58669700       0.44321600
P        1.57145511       3.99945288       1.95142719       0.00000000 NULL      -0.16585500      -0.58669600       0.44321600
P        1.20885096       1.81530708       5.32568071       0.00000000 NULL      -0.07134100      -0.25934300      -0.39955800
P       -1.20884948      -1.81530829       5.32568063       0.00000000 NULL       0.07134100       0.25934000      -0.39955700
P        2.63645962      -1.28375422       4.87713333       0.00000000 NULL       0.04965000      -0.28173200      -0.53226700
P        3.17883007       0.97599728       4.87713351       0.00000000 NULL      -0.04965300       0.28173200      -0.53226700
P       -1.33551429       2.59259622       3.33071905       0.00000000 NULL      -0.09293500      -0.00916700       0.61381600
P        0.80441099       5.51939566       3.33071909       0.00000000 NULL       0.09293600       0.00916800       0.61381500
P        1.44156211       0.96183481       1.39029062       0.00000000 NULL      -0.08211300      -0.12123300      -0.15556300
P        3.84262239       6.84240169       1.39029095       0.00000000 NULL       0.08211100       0.12123300      -0.15556200
P       -0.71044305       1.02309069       1.96700020       0.00000000 NULL       0.01350800       0.60100700      -0.16592700
P        0.71044360      -1.02309114       1.96699977       0.00000000 NULL      -0.01350700      -0.60100800      -0.16592500
16
Lattice="5.842568056564831 -0.24625989704100562 -8.400158331541368e-07 -0.45839722583194176 7.911983506402173 9.622911001078218e-07 -2.6920844575270824 -3.8328625873637843 6.891519024623467" Properties=species:S:1:pos:R:3:initial_magmoms:R:1:castep_labels:S:1:forces:R:3 n_minim_iter=2 energy=-83.863540972864 stress="0.00011079591216114929 0.004921717418148549 0.0 0.004921717418148549 -0.009435116814086625 -0.0 0.0 -0.0 -0.009992022821876464" free_energy=-83.863540972864 pbc="T T T"
P       -2.02626019       4.27742280       6.16388621       0.00000000 NULL      -0.12259300      -0.14041200      -0.17637200
P        1.56786468       3.63455931       6.16388563       0.00000000 NULL       0.12259500       0.14041600      -0.17637000
P        4.67676257       3.10586355       0.06285726       0.00000000 NULL       0.23738100      -0.08911300       0.15154300
P        0.70740829       4.55986004       0.06285798       0.00000000 NULL      -0.23738000       0.08911200       0.15154200
P        3.78564021       3.80876164       1.96509419       0.00000000 NULL      -0.25813000       0.56090300       0.34135700
P        1.59853117       3.85696153       1.96509450       0.00000000 NULL       0.25813000      -0.56090200       0.34135700
P        1.22413628       1.75596605       5.19504727       0.00000000 NULL      -0.18660900      -0.28475000      -0.32129900
P       -1.22413484      -1.75596723       5.19504722       0.00000000 NULL       0.18660900       0.28474800      -0.32129600
P        2.64320229      -1.25749208       4.74014054       0.00000000 NULL       0.03600900      -0.03613700      -0.43183200
P        3.19936709       1.01123111       4.74014072       0.00000000 NULL      -0.03601000       0.03613500      -0.43183000
P       -1.32824347       2.51678754       3.33915724       0.00000000 NULL      -0.00829600       0.28277300       0.72190300
P        0.86984717       5.39519521       3.33915726       0.00000000 NULL       0.00829600      -0.28277200       0.72190200
P        1.44910170       0.93947681       1.35083903       0.00000000 NULL       0.04802800      -0.05826900       0.23160100
P        3.93506951       6.72624649       1.35083934       0.00000000 NULL      -0.04802700       0.05827100       0.23160300
P       -0.70257406       1.05414649       1.91683644       0.00000000 NULL       0.02369800       0.47625900      -0.51690500
P        0.70257459      -1.05414693       1.91683601       0.00000000 NULL      -0.02369900      -0.47626300      -0.51690400
16
Lattice="5.856355415168697 -0.2677598883891247 -8.44373908104695e-07 -0.48794531318996265 7.944150723017652 9.700512267707173e-07 -2.6842040852237448 -3.838196206474282 6.9485473487118465" Properties=species:S:1:pos:R:3:initial_magmoms:R:1:castep_labels:S:1:forces:R:3 n_minim_iter=3 energy=-84.026315193359 stress="0.0067095735722522525 0.003707229168177991 -0.0 0.003707229168177991 0.0010922720340120764 0.0 -0.0 0.0 0.0026675993664716856" free_energy=-84.026315193359 pbc="T T T"
P       -2.03840518       4.30918957       6.21797873       0.00000000 NULL      -0.24100400       0.03476200      -0.24719000
P        1.55046160       3.63495974       6.21797815       0.00000000 NULL       0.24100500      -0.03475900      -0.24719200
P        4.67099031       3.08578071       0.06974569       0.00000000 NULL       0.33092800       0.00700000       0.30069500
P        0.69741981       4.59061011       0.06974641       0.00000000 NULL      -0.33092800      -0.00700000       0.30069600
P        3.78737176       3.84117881       2.00466095       0.00000000 NULL      -0.22055300       0.30697400       0.26292400
P        1.58103890       3.83521157       2.00466126       0.00000000 NULL       0.22055200      -0.30697300       0.26292500
P        1.21591845       1.74452866       5.21696055       0.00000000 NULL      -0.05433900      -0.09470500      -0.21050700
P       -1.21591700      -1.74452985       5.21696049       0.00000000 NULL       0.05434100       0.09470100      -0.21050600
P        2.65613571      -1.28538462       4.75127021       0.00000000 NULL       0.17613200       0.15462100      -0.14068200
P        3.20022103       1.01762365       4.75127040       0.00000000 NULL      -0.17613700      -0.15462100      -0.14068000
P       -1.34488374       2.53207605       3.40029273       0.00000000 NULL       0.08785100       0.34799100       0.31994500
P        0.85693938       5.41207390       3.40029275       0.00000000 NULL      -0.08784900      -0.34799000       0.31994500
P        1.44504898       0.93186230       1.35556909       0.00000000 NULL      -0.03839900      -0.19744500       0.25672700
P        3.92336150       6.74452822       1.35556940       0.00000000 NULL       0.03839800       0.19744500       0.25672900
P       -0.70692848       1.09196995       1.92205652       0.00000000 NULL      -0.16936900       0.52654800      -0.54191500
P        0.70692902      -1.09197038       1.92205608       0.00000000 NULL       0.16936900      -0.52654900      -0.54191400
16
Lattice="5.727671964596375 -0.3589134810198713 -8.368409262125767e-07 -0.6039819475361254 7.932149203321736 9.848159058998961e-07 -2.561844047239493 -3.786618646654284 6.916350413869064" Properties=species:S:1:pos:R:3:initial_magmoms:R:1:castep_labels:S:1:forces:R:3 n_minim_iter=4 energy=-84.127386610308 stress="-0.012752491419233358 -0.0028804767696133477 -3.197651857343223e-08 -0.0028804767696133477 -0.006821390824677428 -0.0 -3.197651857343223e-08 -0.0 -0.0034348856486395157" free_energy=-84.127386610308 pbc="T T T"
P       -2.05703149       4.33819396       6.18925161       0.00000000 NULL       0.03884100       0.10352100      -0.46844400
P        1.45305126       3.59395383       6.18925104       0.00000000 NULL      -0.03884200      -0.10352400      -0.46844300
P        4.51511068       2.99100055       0.07847355       0.00000000 NULL      -0.01173800      -0.17528100       0.43703100
P        0.60857936       4.58223515       0.07847428       0.00000000 NULL       0.01173900       0.17528000       0.43703100
P        3.64337080       3.80325624       2.01912112       0.00000000 NULL       0.01134900       0.11940500       0.24615200
P        1.48031978       3.76997902       2.01912142       0.00000000 NULL      -0.01135000      -0.11940300       0.24615400
P        1.15604478       1.70779200       5.17162731       0.00000000 NULL      -0.32959000      -0.05843700      -0.20323900
P       -1.15604334      -1.70779318       5.17162724       0.00000000 NULL       0.32959100       0.05843800      -0.20323900
P        2.62085653      -1.33454984       4.70263944       0.00000000 NULL       0.20770500       0.32215700       0.09009700
P        3.10681674       0.97563529       4.70263963       0.00000000 NULL      -0.20770500      -0.32215400       0.09009500
P       -1.35797058       2.55145580       3.41786974       0.00000000 NULL       0.38977900       0.53767800      -0.08093900
P        0.75398959       5.38069263       3.41786977       0.00000000 NULL      -0.38978000      -0.53768200      -0.08094300
P        1.39353751       0.89925569       1.34624803       0.00000000 NULL       0.50756000       0.01266600       0.41434100
P        3.73015288       6.67397973       1.34624836       0.00000000 NULL      -0.50755800      -0.01266300       0.41434000
P       -0.70991045       1.13412123       1.89774804       0.00000000 NULL      -0.61114000       0.80706600      -0.43499800
P        0.70991098      -1.13412166       1.89774758       0.00000000 NULL       0.61113900      -0.80706900      -0.43499700
16
Lattice="5.828417662340439 -0.4929235111465367 -8.66063161749189e-07 -0.792106961037444 8.08354730418014 1.0281576261075484e-06 -2.5181544311504087 -3.795312647872494 6.615680551969439" Properties=species:S:1:pos:R:3:initial_magmoms:R:1:castep_labels:S:1:forces:R:3 n_minim_iter=5 energy=-84.40297178484 stress="-0.003833165744459737 -0.011901328250384742 0.0 -0.011901328250384742 -0.0010031702766544175 -0.0 0.0 -0.0 -0.019511142648352707" free_energy=-84.40297178484 pbc="T T T"
P       -2.18732083       4.47987144       5.89872867       0.00000000 NULL      -0.06266900       0.12363900      -0.99221300
P        1.39521552       3.60367453       5.89872807       0.00000000 NULL       0.06266900      -0.12364100      -0.99221100
P        4.52991749       2.91251128       0.11315629       0.00000000 NULL      -0.03959000      -0.41298800       0.44628500
P        0.50639325       4.67811248       0.11315705       0.00000000 NULL       0.03959000       0.41298900       0.44628500
P        3.61687088       3.85204166       1.98459317       0.00000000 NULL      -0.29840000      -0.18203300       0.20404400
P        1.41944037       3.73858168       1.98459346       0.00000000 NULL       0.29840200       0.18203100       0.20404400
P        1.11832650       1.68643661       4.90091763       0.00000000 NULL      -0.00703000      -0.16644500      -0.13663600
P       -1.11832513      -1.68643772       4.90091756       0.00000000 NULL       0.00702800       0.16644800      -0.13663700
P        2.71434334      -1.41923283       4.45627387       0.00000000 NULL       0.83567800       0.34784000       0.47681100
P        3.11407557       0.92630831       4.45627408       0.00000000 NULL      -0.83567300      -0.34784100       0.47680900
P       -1.42743933       2.66098294       3.32570575       0.00000000 NULL       0.67531300       0.80802400      -0.23561900
P        0.63533330       5.42256360       3.32570578       0.00000000 NULL      -0.67531600      -0.80802400      -0.23562000
P        1.40466316       0.86345073       1.30212024       0.00000000 NULL       0.05266800      -0.07148600       1.07297100
P        3.63164790       6.72717277       1.30212060       0.00000000 NULL      -0.05266600       0.07148500       1.07296900
P       -0.78002913       1.27190553       1.76237062       0.00000000 NULL      -0.30101900       0.70384000      -0.83563900
P        0.78002962      -1.27190593       1.76237011       0.00000000 NULL       0.30101700      -0.70383800      -0.83564200
16
Lattice="5.791575461366321 -0.48557302707924577 -8.601077243370036e-07 -0.7781583079117662 8.089790300934656 1.0269279581563246e-06 -2.5067076715254384 -3.8021093765989944 6.512799472186749" Properties=species:S:1:pos:R:3:initial_magmoms:R:1:castep_labels:S:1:forces:R:3 n_minim_iter=6 energy=-84.831953916776 stress="-0.008155983300541974 -0.012886708668979122 -3.303809880883546e-08 -0.012886708668979122 0.0002598446471314908 3.303809880883546e-08 -3.303809880883546e-08 3.303809880883546e-08 -0.01734483668414457" free_energy=-84.831953916776 pbc="T T T"
P       -2.17048240       4.50809284       5.77239005       0.00000000 NULL       0.06618600       0.17775100      -0.80042400
P        1.39232570       3.58169615       5.77238945       0.00000000 NULL      -0.06618600      -0.17775200      -0.80042700
P        4.51792821       2.88077275       0.16218302       0.00000000 NULL      -0.27993300      -0.21481800       0.36737200
P        0.49548899       4.72344449       0.16218379       0.00000000 NULL       0.27993300       0.21481800       0.36737300
P        3.59482810       3.93904482       2.02111966       0.00000000 NULL      -0.27886700      -0.46888200       0.05401000
P        1.41858962       3.66517200       2.02111993       0.00000000 NULL       0.27886600       0.46888200       0.05401000
P        1.09262400       1.65635590       4.76714200       0.00000000 NULL      -0.27113400       0.01503800       0.08526200
P       -1.09262267      -1.65635698       4.76714193       0.00000000 NULL       0.27113700      -0.01503800       0.08526300
P        2.73082379      -1.41792065       4.33931076       0.00000000 NULL       0.64015700       0.45730200       0.61006400
P        3.06075288       0.93234664       4.33931098       0.00000000 NULL      -0.64016300      -0.45730200       0.61006700
P       -1.39797782       2.71231726       3.34218806       0.00000000 NULL       0.75385000       0.81603600      -0.25186600
P        0.61982044       5.37747228       3.34218809       0.00000000 NULL      -0.75384700      -0.81603500      -0.25186600
P        1.40535423       0.83847917       1.30866255       0.00000000 NULL      -0.19866800      -0.14747900       0.71613900
P        3.60806329       6.76573781       1.30866292       0.00000000 NULL       0.19866700       0.14747800       0.71613900
P       -0.81666369       1.40618124       1.66162704       0.00000000 NULL       0.06382100       0.25139000      -0.78055800
P        0.81666416      -1.40618161       1.66162649       0.00000000 NULL      -0.06381700      -0.25138900      -0.78055700
16
Lattice="5.856308212884107 -0.4970188657861111 -8.704047346245125e-07 -0.8050032514041084 7.99594093266145 1.0200004317632037e-06 -2.525651576645214 -3.7494617722043464 6.504834380581092" Properties=species:S:1:pos:R:3:initial_magmoms:R:1:castep_labels:S:1:forces:R:3 n_minim_iter=7 energy=-84.933363064474 stress="-0.0028117803787563247 -0.014962320654584886 -0.0 -0.014962320654584886 -0.0046114986307234105 0.0 -0.0 0.0 -0.015153481322624222" free_energy=-84.933363064474 pbc="T T T"
P       -2.20439466       4.46978414       5.75747078       0.00000000 NULL      -0.04591800       0.00142800      -0.77950100
P        1.39939301       3.52615548       5.75747017       0.00000000 NULL       0.04591800      -0.00142800      -0.77950000
P        4.55919470       2.83111838       0.17689872       0.00000000 NULL      -0.29227200      -0.15773000       0.31357200
P        0.49211031       4.66780364       0.17689949       0.00000000 NULL       0.29227200       0.15773100       0.31357300
P        3.61860168       3.89455453       2.03521935       0.00000000 NULL      -0.31490200      -0.52082800       0.03653600
P        1.43270385       3.60436708       2.03521962       0.00000000 NULL       0.31490200       0.52082700       0.03653600
P        1.08160152       1.63054965       4.75130623       0.00000000 NULL      -0.04339300      -0.20630300      -0.00867700
P       -1.08160020      -1.63055073       4.75130616       0.00000000 NULL       0.04339300       0.20630200      -0.00867600
P        2.76984497      -1.40122374       4.32444898       0.00000000 NULL       0.80967400       0.25796900       0.61456700
P        3.08646445       0.90420389       4.32444920       0.00000000 NULL      -0.80967800      -0.25797200       0.61457000
P       -1.40823963       2.70650480       3.36363423       0.00000000 NULL       0.69306100       0.61755100      -0.36229800
P        0.60323732       5.28943537       3.36363424       0.00000000 NULL      -0.69305900      -0.61754900      -0.36229700
P        1.40626677       0.81061898       1.30712354       0.00000000 NULL      -0.11828400      -0.04017400       0.68759000
P        3.64503856       6.68830279       1.30712389       0.00000000 NULL       0.11828400       0.04017400       0.68758800
P       -0.82178232       1.41403175       1.62993432       0.00000000 NULL       0.08404800       0.38111300      -0.50179100
P        0.82178278      -1.41403212       1.62993378       0.00000000 NULL      -0.08404600      -0.38111100      -0.50179100
16
Lattice="5.841764349730383 -0.4484084378545874 -8.628625296369441e-07 -0.7310447384280133 8.087046721047578 1.0200681374461305e-06 -2.5553589131736083 -3.8193198708703546 6.421250194617985" Properties=species:S:1:pos:R:3:initial_magmoms:R:1:castep_labels:S:1:forces:R:3 n_minim_iter=8 energy=-85.029909523282 stress="-0.002444765906524827 -0.011614239706456477 -3.31948282600555e-08 -0.011614239706456477 0.002219671776093391 0.0 -3.31948282600555e-08 0.0 -0.017504130863951164" free_energy=-85.029909523282 pbc="T T T"
P       -2.16074255       4.51132672       5.67631309       0.00000000 NULL      -0.00763300      -0.01634700      -1.06821400
P        1.42969939       3.57571871       5.67631248       0.00000000 NULL       0.00763200       0.01634800      -1.06821400
P        4.57274283       2.90971302       0.18943094       0.00000000 NULL      -0.14027900      -0.06203400       0.13982500
P        0.53797684       4.72892522       0.18943171       0.00000000 NULL       0.14027900       0.06203400       0.13982600
P        3.63947665       3.98691731       2.02524053       0.00000000 NULL      -0.24048900      -0.48019200       0.05977200
P        1.47124353       3.65172051       2.02524079       0.00000000 NULL       0.24048800       0.48019400       0.05977300
P        1.07461129       1.65548032       4.68016876       0.00000000 NULL      -0.00784500      -0.07223700       0.06644100
P       -1.07460999      -1.65548139       4.68016868       0.00000000 NULL       0.00784900       0.07223400       0.06644300
P        2.76025189      -1.38551986       4.26016822       0.00000000 NULL       0.56077100       0.08762000       0.46447300
P        3.08151365       0.93711045       4.26016843       0.00000000 NULL      -0.56077400      -0.08761800       0.46447400
P       -1.36831708       2.74892055       3.34613868       0.00000000 NULL       0.55519000       0.37900900      -0.23935100
P        0.63727328       5.33812541       3.34613869       0.00000000 NULL      -0.55518900      -0.37901200      -0.23935300
P        1.39631054       0.81964496       1.28779073       0.00000000 NULL       0.00342700      -0.03442300       0.90174500
P        3.71440943       6.81899303       1.28779109       0.00000000 NULL      -0.00342800       0.03442400       0.90174400
P       -0.79570675       1.44576870       1.58079922       0.00000000 NULL      -0.09194200       0.36167200      -0.32469100
P        0.79570720      -1.44576906       1.58079867       0.00000000 NULL       0.09194500      -0.36167400      -0.32469100
16
Lattice="5.842723156157703 -0.360799072321675 -8.530458266123248e-07 -0.6101487551138054 8.063871527285968 1.0006329788808556e-06 -2.616286319510219 -3.8515369473868724 6.338755056598634" Properties=species:S:1:pos:R:3:initial_magmoms:R:1:castep_labels:S:1:forces:R:3 n_minim_iter=9 energy=-85.19722216041 stress="-0.0012232265353877211 -0.007680985280554987 -0.0 -0.007680985280554987 0.000922373563633028 0.0 -0.0 0.0 -0.01340694768281944" free_energy=-85.19722216041 pbc="T T T"
P       -2.09824868       4.46207029       5.53552079       0.00000000 NULL       0.05971300       0.09334700      -0.43956500
P        1.48810146       3.60179998       5.53552020       0.00000000 NULL      -0.05971200      -0.09334400      -0.43956600
P        4.61134037       3.02387606       0.20182406       0.00000000 NULL      -0.07581500      -0.24682600      -0.04818700
P        0.62123409       4.67919635       0.20182480       0.00000000 NULL       0.07581500       0.24682600      -0.04818600
P        3.68514789       4.02601834       2.03599340       0.00000000 NULL      -0.08657900      -0.07054700       0.11390600
P        1.54742708       3.67705366       2.03599366       0.00000000 NULL       0.08657800       0.07054700       0.11390600
P        1.04808280       1.65697892       4.60665472       0.00000000 NULL       0.21389100      -0.02042300       0.18866600
P       -1.04808152      -1.65697997       4.60665463       0.00000000 NULL      -0.21389100       0.02042000       0.18866700
P        2.74228634      -1.35597438       4.18063353       0.00000000 NULL       0.64360700       0.27477100       0.37800900
P        3.10043798       0.99517436       4.18063375       0.00000000 NULL      -0.64360800      -0.27477200       0.37800900
P       -1.29337599       2.73766713       3.36688162       0.00000000 NULL       0.51279800       0.35919000      -0.23474400
P        0.68322817       5.32620363       3.36688164       0.00000000 NULL      -0.51279700      -0.35919000      -0.23474400
P        1.40237162       0.81233892       1.28237116       0.00000000 NULL      -0.07710700      -0.24882400       0.39228200
P        3.83020314       6.89073325       1.28237151       0.00000000 NULL       0.07710600       0.24882400       0.39228400
P       -0.75699313       1.49509495       1.54009353       0.00000000 NULL      -0.06163400      -0.08061800      -0.35036900
P        0.75699356      -1.49509531       1.54009298       0.00000000 NULL       0.06163500       0.08061800      -0.35036900
16
Lattice="5.843099312700944 -0.3406382592412218 -8.5080840523104e-07 -0.5818966898649165 8.066956169024252 9.970566058773387e-07 -2.630600430928009 -3.8631596743699195 6.335001313023978" Properties=species:S:1:pos:R:3:initial_magmoms:R:1:castep_labels:S:1:forces:R:3 n_minim_iter=10 energy=-85.269981370211 stress="0.0016616050294260192 -0.006032095735569096 -0.0 -0.006032095735569096 0.003187276454396485 0.0 -0.0 0.0 -0.009495241402570456" free_energy=-85.269981370211 pbc="T T T"
P       -2.07780828       4.45637066       5.50760735       0.00000000 NULL      -0.03652100       0.04702100      -0.28026000
P        1.49591313       3.61058426       5.50760676       0.00000000 NULL       0.03652100      -0.04702400      -0.28026000
P        4.62099366       3.05808246       0.19134308       0.00000000 NULL      -0.10924500      -0.26709900       0.09229800
P        0.64020902       4.66823541       0.19134381       0.00000000 NULL       0.10924500       0.26710000       0.09229900
P        3.70235943       4.05352959       2.05905931       0.00000000 NULL      -0.10114200      -0.12839800       0.05281100
P        1.55884377       3.67278785       2.05905956       0.00000000 NULL       0.10114100       0.12839900       0.05281200
P        1.05407277       1.65923400       4.61267998       0.00000000 NULL       0.02144100      -0.03782000       0.21961700
P       -1.05407148      -1.65923505       4.61267990       0.00000000 NULL      -0.02143800       0.03782000       0.21961700
P        2.76201066      -1.34002070       4.17179122       0.00000000 NULL       0.21674800       0.12857700       0.21420500
P        3.08108982       0.99938149       4.17179145       0.00000000 NULL      -0.21675000      -0.12857400       0.21420500
P       -1.25000012       2.73844899       3.38368687       0.00000000 NULL       0.21279100       0.18367700      -0.26098600
P        0.66810437       5.32850641       3.38368690       0.00000000 NULL      -0.21279100      -0.18368000      -0.26098800
P        1.41020172       0.78430992       1.27396009       0.00000000 NULL      -0.11211400      -0.20366600       0.32914100
P        3.85100126       6.94200770       1.27396045       0.00000000 NULL       0.11211200       0.20366700       0.32914100
P       -0.75649261       1.49921975       1.53637255       0.00000000 NULL       0.06664000      -0.08425200      -0.36682500
P        0.75649303      -1.49922010       1.53637200       0.00000000 NULL      -0.06663800       0.08425100      -0.36682600
16
Lattice="5.748744543989335 -0.25609998233077536 -8.280930360379229e-07 -0.45503201651815883 8.073027731370303 9.801134810995052e-07 -2.646855376461539 -3.9084645995416403 6.383811544906392" Properties=species:S:1:pos:R:3:initial_magmoms:R:1:castep_labels:S:1:forces:R:3 n_minim_iter=11 energy=-85.368310304925 stress="0.0033169515783016777 -0.003136765226305183 0.0 -0.003136765226305183 0.004251281259302095 -0.0 0.0 -0.0 -0.0030642169561304437" free_energy=-85.368310304925 pbc="T T T"
P       -1.98882084       4.42265028       5.52450106       0.00000000 NULL       0.23795900       0.10105300      -0.16713100
P        1.53379036       3.65037619       5.52450049       0.00000000 NULL      -0.23795800      -0.10105200      -0.16713100
P        4.57830181       3.12323138       0.19803060       0.00000000 NULL      -0.00050700       0.07927200       0.10752100
P        0.71541077       4.69369632       0.19803131       0.00000000 NULL       0.00050700      -0.07927200       0.10752100
P        3.71094897       4.13482917       2.11681471       0.00000000 NULL      -0.09302100      -0.16401100      -0.10918400
P        1.58276414       3.68209810       2.11681495       0.00000000 NULL       0.09302200       0.16401100      -0.10918400
P        1.03254975       1.66626590       4.69329145       0.00000000 NULL       0.10865900       0.08181500       0.22048700
P       -1.03254845      -1.66626696       4.69329135       0.00000000 NULL      -0.10866200      -0.08181500       0.22048700
P        2.68021458      -1.28907830       4.18186858       0.00000000 NULL       0.32708700       0.06135200       0.28697100
P        3.06853113       1.03297737       4.18186879       0.00000000 NULL      -0.32708400      -0.06135300       0.28696900
P       -1.16263035       2.71353935       3.40217566       0.00000000 NULL       0.21204600       0.06398300      -0.23203200
P        0.70759928       5.35948761       3.40217570       0.00000000 NULL      -0.21204800      -0.06398300      -0.23203200
P        1.42966929       0.73403238       1.27206001       0.00000000 NULL      -0.12611600      -0.10395800       0.13744000
P        3.86404359       7.08289508       1.27206039       0.00000000 NULL       0.12611800       0.10395700       0.13744100
P       -0.73333125       1.48677121       1.52293969       0.00000000 NULL       0.24339800      -0.01066600      -0.24407200
P        0.73333167      -1.48677155       1.52293915       0.00000000 NULL      -0.24340100       0.01066700      -0.24407300
16
Lattice="5.638894097302655 -0.2179381862688783 -8.084910184752684e-07 -0.39140259359859525 8.079894200473706 9.72049584746086e-07 -2.62374485312587 -3.9309787414822015 6.4662078635491085" Properties=species:S:1:pos:R:3:initial_magmoms:R:1:castep_labels:S:1:forces:R:3 n_minim_iter=12 energy=-85.46330393461 stress="0.002298853466712986 -0.0027534211337182 -3.400670808747021e-08 -0.0027534211337182 0.004612567864860196 -0.0 -3.400670808747021e-08 -0.0 0.0021811902567303388" free_energy=-85.46330393461 pbc="T T T"
P       -1.86810241       4.41539616       5.57598467       0.00000000 NULL      -0.07643400      -0.11509200       0.02272600
P        1.47670137       3.66449678       5.57598412       0.00000000 NULL       0.07643200       0.11508900       0.02272600
P        4.50130571       3.17298517       0.22618797       0.00000000 NULL      -0.10426100       0.19959800       0.02567000
P        0.74618586       4.68897079       0.22618866       0.00000000 NULL       0.10426100      -0.19959700       0.02567100
P        3.67473333       4.18302052       2.16712726       0.00000000 NULL       0.03612100      -0.23323900      -0.10627200
P        1.57275878       3.67893500       2.16712749       0.00000000 NULL      -0.03612100       0.23324000      -0.10627100
P        1.00259597       1.67305910       4.81721283       0.00000000 NULL      -0.03629000      -0.02724500       0.10031200
P       -1.00259463      -1.67306020       4.81721272       0.00000000 NULL       0.03629200       0.02724700       0.10031300
P        2.62042773      -1.27210691       4.22708091       0.00000000 NULL       0.29673400       0.13121500       0.25795400
P        3.01846754       1.05416776       4.22708111       0.00000000 NULL      -0.29673300      -0.13121300       0.25795400
P       -1.09158969       2.67958592       3.41686687       0.00000000 NULL       0.21977300       0.00378500      -0.22151900
P        0.70018805       5.40030751       3.41686693       0.00000000 NULL      -0.21977400      -0.00378800      -0.22152100