15
Lattice="5.71977 0.0 0.0 0.0 8.112659999999998 -9.913162457640268e-16 0.0 -4.056329999999999 7.025769652265866" Properties=species:S:1:pos:R:3:initial_magmoms:R:1:castep_labels:S:1 n_minim_iter=1 pbc="T T T"
P        2.52307692       1.73487409       2.30278945       0.00000000 NULL
P        2.52307692       5.25094920       0.35104961       0.00000000 NULL
P        2.52307692       5.18316793       4.37192990       0.00000000 NULL
P        4.43364768       5.71218881       0.91302546       0.00000000 NULL
P        4.43364768       4.46586276       4.49038719       0.00000000 NULL
P        4.43364768       1.99093965       1.62235631       0.00000000 NULL
P        4.38096574       2.70201552       6.06506872       0.00000000 NULL
P        4.38096574      -2.54718094       6.33324867       0.00000000 NULL
P        4.38096574      -0.15483336       1.65322121       0.00000000 NULL
P        2.41816718       0.02153952       1.19433798       0.00000000 NULL
P        2.41816718       3.01123362       6.44725373       0.00000000 NULL
P        2.41816718      -3.03277192       6.40994689       0.00000000 NULL
P        4.65268399      -0.30568665       5.93644374       0.00000000 NULL
P        4.65268399      -0.93193735       3.79281468       0.00000000 NULL
P        4.65268399       1.23762522       4.32228019       0.00000000 NULL
15
Lattice="5.740245500944234 0.0 0.0 0.0 8.141931645973372 5.741125361874317e-16 0.0 -4.070965822986688 7.05111964128939" Properties=species:S:1:pos:R:3:initial_magmoms:R:1:castep_labels:S:1 n_minim_iter=2 pbc="T T T"
P        2.53186033       1.74140928       2.31135891       0.00000000 NULL
P        2.53186033       5.26953188       0.35242452       0.00000000 NULL
P        2.53186033       5.20195753       4.38733552       0.00000000 NULL
P        4.44983730       5.73265881       0.91652371       0.00000000 NULL
P        4.44983730       4.48186983       4.50636561       0.00000000 NULL
P        4.44983730       1.99837005       1.62822963       0.00000000 NULL
P        4.39698446       2.71174507       6.08671063       0.00000000 NULL
P        4.39698446      -2.55615233       6.35620374       0.00000000 NULL
P        4.39698446      -0.15559151       1.65932421       0.00000000 NULL
P        2.42640493       0.02134472       1.19896243       0.00000000 NULL
P        2.42640493       3.02196195       6.47012279       0.00000000 NULL
P        2.42640493      -3.04330545       6.43315336       0.00000000 NULL
P        4.66935296      -0.30681349       5.95787957       0.00000000 NULL
P        4.66935296      -0.93530208       3.80647088       0.00000000 NULL
P        4.66935296       1.24211680       4.33788814       0.00000000 NULL
15
Lattice="6.083476453370624 0.0 0.0 0.0 8.632225836257746 1.1809783239973387e-15 0.0 -4.3161129181288755 7.475726865403579" Properties=species:S:1:pos:R:3:initial_magmoms:R:1:castep_labels:S:1 n_minim_iter=3 pbc="T T T"
P        2.67897045       1.85112543       2.45507994       0.00000000 NULL
P        2.67897045       5.58050196       0.37558094       0.00000000 NULL
P        2.67897045       5.51671266       4.64506525       0.00000000 NULL
P        4.72142195       6.07542076       0.97520342       0.00000000 NULL
P        4.72142195       4.74996495       4.77386626       0.00000000 NULL
P        4.72142195       2.12295434       1.72665644       0.00000000 NULL
P        4.66574006       2.87473880       6.44901104       0.00000000 NULL
P        4.66574006      -2.70626343       6.74081743       0.00000000 NULL
P        4.66574006      -0.16847407       1.76162452       0.00000000 NULL
P        2.56419295       0.01783672       1.27671153       0.00000000 NULL
P        2.56419295       3.20153037       6.85281740       0.00000000 NULL
P        2.56419295      -3.21936579       6.82192405       0.00000000 NULL
P        4.94877109      -0.32573261       6.31683936       0.00000000 NULL
P        4.94877109      -0.99156370       4.03521373       0.00000000 NULL
P        4.94877109       1.31729760       4.59939990       0.00000000 NULL
15
Lattice="6.137829085863181 0.0 0.0 0.0 8.6849578409953 6.130696719675259e-16 0.0 -4.342478920497652 7.521394121098783" Properties=species:S:1:pos:R:3:initial_magmoms:R:1:castep_labels:S:1 n_minim_iter=4 pbc="T T T"
P        2.70205296       1.86512282       2.47148130       0.00000000 NULL
P        2.70205296       5.61203128       0.37950235       0.00000000 NULL
P        2.70205296       5.55028397       4.67040973       0.00000000 NULL
P        4.76498867       6.11204180       0.98122063       0.00000000 NULL
P        4.76498867       4.77917538       4.80257241       0.00000000 NULL
P        4.76498867       2.13622088       1.73760034       0.00000000 NULL
P        4.70958319       2.89284551       6.48638506       0.00000000 NULL
P        4.70958319      -2.72131764       6.78347854       0.00000000 NULL
P        4.70958319      -0.17152656       1.77292389       0.00000000 NULL
P        2.58460140       0.01570419       1.28785436       0.00000000 NULL
P        2.58460140       3.21931268       6.89106642       0.00000000 NULL
P        2.58460140      -3.23501556       6.86386672       0.00000000 NULL
P        4.99279912      -0.32811965       6.35339047       0.00000000 NULL
P        4.99279912      -0.99565837       4.06053818       0.00000000 NULL
P        4.99279912       1.32377932       4.62885884       0.00000000 NULL
15
Lattice="6.149969237136688 0.0 0.0 0.0 8.682646367082347 -8.617343998886664e-16 0.0 -4.341323183541174 7.5193923259699815" Properties=species:S:1:pos:R:3:initial_magmoms:R:1:castep_labels:S:1 n_minim_iter=5 pbc="T T T"
P        2.70693408       1.86736361       2.47196142       0.00000000 NULL
P        2.70693408       5.60818361       0.38120287       0.00000000 NULL
P        2.70693408       5.54842363       4.66622729       0.00000000 NULL
P        4.77535852       6.11015191       0.98052396       0.00000000 NULL
P        4.77535852       4.77841219       4.80128405       0.00000000 NULL
P        4.77535852       2.13540675       1.73758357       0.00000000 NULL
P        4.72074574       2.89283143       6.48265487       0.00000000 NULL
P        4.72074574      -2.71923590       6.78332965       0.00000000 NULL
P        4.72074574      -0.17359423       1.77279938       0.00000000 NULL
P        2.58762231       0.01349395       1.29109607       0.00000000 NULL
P        2.58762231       3.21645465       6.88552964       0.00000000 NULL
P        2.58762231      -3.22994730       6.86215819       0.00000000 NULL
P        5.00243662      -0.32854101       6.34900713       0.00000000 NULL
P        5.00243662      -0.99280734       4.06036315       0.00000000 NULL
P        5.00243662       1.32134966       4.62941363       0.00000000 NULL
15
Lattice="6.151084698094386 0.0 0.0 0.0 8.668600136617323 -2.2709622068916294e-15 0.0 -4.334300068308662 7.507227933559862" Properties=species:S:1:pos:R:3:initial_magmoms:R:1:castep_labels:S:1 n_minim_iter=6 pbc="T T T"
P        2.70675798       1.86930664       2.46988821       0.00000000 NULL
P        2.70675798       5.59496132       0.38392219       0.00000000 NULL
P        2.70675798       5.53863355       4.65341679       0.00000000 NULL
P        4.77774572       6.09980134       0.97802272       0.00000000 NULL
P        4.77774572       4.77170738       4.79357081       0.00000000 NULL
P        4.77774572       2.13139279       1.73563366       0.00000000 NULL
P        4.72464806       2.88965502       6.46860417       0.00000000 NULL
P        4.72464806      -2.71250255       6.77543976       0.00000000 NULL
P        4.72464806      -0.17715118       1.77041119       0.00000000 NULL
P        2.58460979       0.00949523       1.29547909       0.00000000 NULL
P        2.58460979       3.20763509       6.86771075       0.00000000 NULL
P        2.58460979      -3.21712902       6.85126528       0.00000000 NULL
P        5.00292573      -0.32897206       6.33384327       0.00000000 NULL
P        5.00292573      -0.98648264       4.05540738       0.00000000 NULL
P        5.00292573       1.31545601       4.62520446       0.00000000 NULL
15
Lattice="6.113993700992886 0.0 0.0 0.0 8.637793221037764 -9.973879303915994e-16 0.0 -4.318896610518883 7.48054836205572" Properties=species:S:1:pos:R:3:initial_magmoms:R:1:castep_labels:S:1 n_minim_iter=7 pbc="T T T"
P        2.68794734       1.88241851       2.46845916       0.00000000 NULL
P        2.68794734       5.55883606       0.39599193       0.00000000 NULL
P        2.68794734       5.51543655       4.61609653       0.00000000 NULL
P        4.75484684       6.07595080       0.97098834       0.00000000 NULL
P        4.75484684       4.75891769       4.77643283       0.00000000 NULL
P        4.75484684       2.12182265       1.73312645       0.00000000 NULL
P        4.70720053       2.88592912       6.43169614       0.00000000 NULL
P        4.70720053      -2.69407977       6.76398748       0.00000000 NULL
P        4.70720053      -0.19184806       1.76541236       0.00000000 NULL
P        2.55606332      -0.00631631       1.31599206       0.00000000 NULL
P        2.55606332       3.18237264       6.81708150       0.00000000 NULL
P        2.55606332      -3.17605503       6.82802242       0.00000000 NULL
P        4.97125536      -0.33174431       6.29282928       0.00000000 NULL
P        4.97125536      -0.96498082       4.04683398       0.00000000 NULL
P        4.97125536       1.29672642       4.62143272       0.00000000 NULL
15
Lattice="5.931524821361572 0.0 0.0 0.0 8.590679790200648 4.0749204013674797e-16 0.0 -4.295339895100326 7.439746934091336" Properties=species:S:1:pos:R:3:initial_magmoms:R:1:castep_labels:S:1 n_minim_iter=8 pbc="T T T"
P        2.59226436       1.95665512       2.48378827       0.00000000 NULL
P        2.59226436       5.46132892       0.45261817       0.00000000 NULL
P        2.59226436       5.46803693       4.50333976       0.00000000 NULL
P        4.64487146       6.03051196       0.95157525       0.00000000 NULL
P        4.64487146       4.75133590       4.74678819       0.00000000 NULL
P        4.64487146       2.10417311       1.74138276       0.00000000 NULL
P        4.60882921       2.90624796       6.33685126       0.00000000 NULL
P        4.60882921      -2.64565782       6.78820513       0.00000000 NULL
P        4.60882921      -0.26058885       1.75443675       0.00000000 NULL
P        2.42593168      -0.07197885       1.40857568       0.00000000 NULL
P        2.42593168       3.11146743       6.67312284       0.00000000 NULL
P        2.42593168      -3.03948729       6.79779461       0.00000000 NULL
P        4.81815776      -0.35015115       6.18971892       0.00000000 NULL
P        4.81815776      -0.89003793       4.04164694       0.00000000 NULL
P        4.81815776       1.24019037       4.64812727       0.00000000 NULL
15
Lattice="5.532775407473848 0.0 0.0 0.0 7.836148123894397 -9.241353290109383e-16 0.0 -3.918074061947199 6.786303343110321" Properties=species:S:1:pos:R:3:initial_magmoms:R:1:castep_labels:S:1 n_minim_iter=9 pbc="T T T"
P        2.40717016       1.79178929       2.26061609       0.00000000 NULL
P        2.40717016       4.98250292       0.42142632       0.00000000 NULL
P        2.40717016       4.97993116       4.10426026       0.00000000 NULL
P        4.35347348       5.49588522       0.85932093       0.00000000 NULL
P        4.35347348       4.34401215       4.32991507       0.00000000 NULL
P        4.35347348       1.91432599       1.59706666       0.00000000 NULL
P        4.30382483       2.66996349       5.76668515       0.00000000 NULL
P        4.30382483      -2.41100313       6.21521630       0.00000000 NULL
P        4.30382483      -0.25895918       1.59070456       0.00000000 NULL
P        2.24720621      -0.06536099       1.30570170       0.00000000 NULL
P        2.24720621       2.81998411       6.07684755       0.00000000 NULL
P        2.24720621      -2.75462195       6.19005677       0.00000000 NULL
P        4.49504233      -0.33686801       5.65647704       0.00000000 NULL
P        4.49504233      -0.81214436       3.66632789       0.00000000 NULL
P        4.49504233       1.14901354       4.24980108       0.00000000 NULL
15
Lattice="5.868058967749306 0.0 0.0 0.0 8.506093503201086 -8.082043290278281e-17 0.0 -4.253046751600546 7.366493060737914" Properties=species:S:1:pos:R:3:initial_magmoms:R:1:castep_labels:S:1 n_minim_iter=10 pbc="T T T"
P        2.54850763       1.94952442       2.45760824       0.00000000 NULL
P        2.54850763       5.40298056       0.45953282       0.00000000 NULL
P        2.54850763       5.40663656       4.44935127       0.00000000 NULL
P        4.62321388       5.96200176       0.93610002       0.00000000 NULL
P        4.62321388       4.71440666       4.69519424       0.00000000 NULL
P        4.62321388       2.08273312       1.73519808       0.00000000 NULL
P        4.56871953       2.89862247       6.25744274       0.00000000 NULL
P        4.56871953      -2.61536844       6.74805165       0.00000000 NULL
P        4.56871953      -0.28325276       1.72749100       0.00000000 NULL
P        2.37737613      -0.07506512       1.41908540       0.00000000 NULL
P        2.37737613       3.06161573       6.59194133       0.00000000 NULL
P        2.37737613      -2.98654934       6.72195866       0.00000000 NULL
P        4.76797843      -0.36611290       6.14634975       0.00000000 NULL
P        4.76797843      -0.88679140       3.97625438       0.00000000 NULL
P        4.76797843       1.25290557       4.61038126       0.00000000 NULL
15
Lattice="5.84458026889303 0.0 0.0 0.0 8.502417809564419 -1.3896027124936462e-15 0.0 -4.251208904782211 7.363309816672033" Properties=species:S:1:pos:R:3:initial_magmoms:R:1:castep_labels:S:1 n_minim_iter=11 pbc="T T T"
P        2.53806561       1.94907335       2.45632985       0.00000000 NULL
P        2.53806561       5.40063751       0.45978138       0.00000000 NULL
P        2.53806561       5.40391713       4.44719786       0.00000000 NULL
P        4.60535847       5.95893860       0.93535958       0.00000000 NULL
P        4.60535847       4.71290378       4.69291169       0.00000000 NULL
P        4.60535847       2.08178561       1.73503782       0.00000000 NULL
P        4.55056185       2.89786251       6.25412074       0.00000000 NULL
P        4.55056185      -2.61394936       6.74587127       0.00000000 NULL
P        4.55056185      -0.28391187       1.72662690       0.00000000 NULL
P        2.36724077      -0.07517690       1.41921762       0.00000000 NULL
P        2.36724077       3.05971927       6.58859517       0.00000000 NULL
P        2.36724077      -2.98454109       6.71880612       0.00000000 NULL
P        4.74900490      -0.36636932       6.14391659       0.00000000 NULL
P        4.74900490      -0.88639385       3.97406566       0.00000000 NULL
P        4.74900490       1.25276445       4.60863666       0.00000000 NULL
15
Lattice="5.824768118129423 0.0 0.0 0.0 8.504952195079502 -1.863012262296095e-15 0.0 -4.252476097539753 7.365504658911079" Properties=species:S:1:pos:R:3:initial_magmoms:R:1:castep_labels:S:1 n_minim_iter=12 pbc="T T T"
P        2.52886350       1.95031912       2.45683821       0.00000000 NULL
P        2.52886350       5.40210876       0.46060607       0.00000000 NULL
P        2.52886350       5.40500169       4.44805965       0.00000000 NULL
P        4.59100276       5.95991759       0.93519935       0.00000000 NULL
P        4.59100276       4.71508743       4.69383963       0.00000000 NULL
P        4.59100276       2.08242455       1.73646495       0.00000000 NULL
P        4.53558611       2.89949678       6.25493050       0.00000000 NULL
P        4.53558611      -2.61420057       6.74907654       0.00000000 NULL
P        4.53558611      -0.28529493       1.72700155       0.00000000 NULL
P        2.35795036      -0.07546504       1.42082333       0.00000000 NULL
P        2.35795036       3.05973994       6.58973762       0.00000000 NULL
P        2.35795036      -2.98427363       6.72044764       0.00000000 NULL
P        4.73306534      -0.36710759       6.14613314       0.00000000 NULL
P        4.73306534      -0.88667712       3.97451286       0.00000000 NULL
P        4.73306534       1.25378598       4.61036259       0.00000000 NULL
