12
Lattice="6.510150437675178 4.672675236605061e-16 1.630225578045963e-16 3.2550752188375878 5.637955661485088 -3.21662862840145e-16 3.255075218837588 1.879318553828363 7.893900895876021" Properties=species:S:1:pos:R:3:initial_magmoms:R:1:castep_labels:S:1:forces:R:3 n_minim_iter=1 energy=-61.734310582088 stress="-0.0002689678202011375 -0.0 0.0 -0.0 -0.00026893330617313785 0.0 0.0 0.0 -0.0018867093405999205" free_energy=-61.734310582088 pbc="T T T"
P        8.57965471       5.09188310       0.97156994       0.00000000 NULL       0.08390600      -0.29620900      -0.63805600
P        6.63002320       1.29977084       0.97156994       0.00000000 NULL      -0.29848000       0.07543500      -0.63805700
P        4.32077341       4.88425738       0.97156994       0.00000000 NULL       0.21457300       0.22077300      -0.63805600
P        9.53835836       4.36209172       4.91700120       0.00000000 NULL       0.17663500      -0.05470200      -0.22346200
P        8.77372872       6.47236047       4.91700120       0.00000000 NULL      -0.13569200      -0.12562000      -0.22346200
P       10.98358989       6.07941479       4.91700120       0.00000000 NULL      -0.04094500       0.18032200      -0.22346200
P        8.80942706       2.81602137       6.68800235       0.00000000 NULL       0.11019700      -0.44862400       0.58436900
P        4.54418295       2.23871301       6.68800235       0.00000000 NULL      -0.44361700       0.12887700       0.58436900
P        6.17684130       6.22117694       6.68800235       0.00000000 NULL       0.33342000       0.31974800       0.58436900
P        3.34315548       3.14528598       3.03745431       0.00000000 NULL      -0.23840700       0.09541500       0.27715000
P        4.30739504       1.17005509       3.03745431       0.00000000 NULL       0.20183600       0.15875900       0.27714900
P        2.11467514       1.32261459       3.03745431       0.00000000 NULL       0.03657300      -0.25417400       0.27715000
12
Lattice="6.564861031109698 -1.1802891421310636e-15 3.047607577964e-16 3.2824305155548488 5.685336425255503 -1.2608879051267544e-16 3.2824305155548488 1.8951121417518344 8.371206629006789" Properties=species:S:1:pos:R:3:initial_magmoms:R:1:castep_labels:S:1:forces:R:3 n_minim_iter=2 energy=-62.030107625138 stress="0.014151863398714304 3.200591499695657e-08 0.0 3.200591499695657e-08 0.014151831392799307 -0.0 0.0 -0.0 0.011631141545383998" free_energy=-62.030107625138 pbc="T T T"
P        8.66084431       5.10259584       0.95764850       0.00000000 NULL       0.51635100       0.21836600      -0.82025700
P        6.65341650       1.31886374       0.95764850       0.00000000 NULL      -0.06906600      -0.55635300      -0.82025600
P        4.38032229       4.94921327       0.95764850       0.00000000 NULL      -0.44728500       0.33798700      -0.82025600
P        9.63764693       4.39282615       5.18885846       0.00000000 NULL       0.26436800       0.17791400      -0.30593800
P        8.83276712       6.51314912       5.18885846       0.00000000 NULL       0.02189500      -0.31790600      -0.30593800
P       11.07146059       6.15003400       5.18885846       0.00000000 NULL      -0.28626100       0.13999100      -0.30593800
P        8.89539475       2.79110198       7.15894642       0.00000000 NULL      -0.13684000      -0.33539400       0.94151000
P        4.53432888       2.27148403       7.15894642       0.00000000 NULL      -0.22204300       0.28620400       0.94151000
P        6.26485947       6.30808684       7.15894642       0.00000000 NULL       0.35888300       0.04919000       0.94150900
P        3.34543201       3.18205183       3.25267865       0.00000000 NULL      -0.14734400      -0.19665300       0.18468400
P        4.36545223       1.19708140       3.25267865       0.00000000 NULL      -0.09663500       0.22593000       0.18468400
P        2.13640730       1.30620319       3.25267865       0.00000000 NULL       0.24397800      -0.02927600       0.18468400
12
Lattice="6.489058482293471 -1.7036458337989373e-14 3.964485381948829e-16 3.244529241146749 5.619689492309033 -2.387233558360958e-16 3.2445292411467395 1.873229830769672 8.708507826384624" Properties=species:S:1:pos:R:3:initial_magmoms:R:1:castep_labels:S:1:forces:R:3 n_minim_iter=3 energy=-62.329754311613 stress="0.0010094823535861483 -0.0 0.0 -0.0 0.0010095138428354335 0.0 0.0 0.0 0.006237138584425591" free_energy=-62.329754311613 pbc="T T T"
P        8.57163294       5.01464066       0.92045759       0.00000000 NULL       0.08894300       0.23237700      -0.57631300
P        6.54604821       1.30880677       0.92045759       0.00000000 NULL       0.15677300      -0.19321600      -0.57631300
P        4.34949429       4.91593155       0.92045759       0.00000000 NULL      -0.24571600      -0.03916200      -0.57631200
P        9.54543123       4.33735204       5.37129776       0.00000000 NULL       0.23652200       0.03260500      -0.26419600
P        8.71712916       6.42380652       5.37129776       0.00000000 NULL      -0.09002500      -0.22113700      -0.26419600
P       10.93820278       6.09790991       5.37129776       0.00000000 NULL      -0.14649800       0.18853200      -0.26419600
P        8.80323786       2.71193826       7.51778677       0.00000000 NULL      -1.41020500       0.64169800       0.78830500
P        4.43604698       2.25958223       7.51778677       0.00000000 NULL       1.26082900       0.90042500       0.78830400
P        6.22789061       6.26785849       7.51778677       0.00000000 NULL       0.14937600      -1.54212200       0.78830500
P        3.28199791       3.15410208       3.41576710       0.00000000 NULL      -0.09018000       0.04088400       0.05220400
P        4.33506281       1.20034488       3.41576710       0.00000000 NULL       0.08049700       0.05765700       0.05220400
P        2.11652700       1.26524253       3.41576710       0.00000000 NULL       0.00968400      -0.09854100       0.05220300
12
Lattice="6.542880053415071 -4.809853735609699e-14 2.59225654362913e-16 3.271440026707575 5.666300340171911 -7.130849710580254e-17 3.2714400267075483 1.888766780057288 8.795198645620216" Properties=species:S:1:pos:R:3:initial_magmoms:R:1:castep_labels:S:1:forces:R:3 n_minim_iter=4 energy=-62.610718931788 stress="0.005468231550112995 -0.0 0.0 -0.0 0.00546820088208788 0.0 0.0 0.0 -0.0021237607392168706" free_energy=-62.610718931788 pbc="T T T"
P        8.65153873       5.03410487       0.84952144       0.00000000 NULL      -0.08676200       0.46299400      -0.08228300
P        6.57677339       1.32309592       0.84952144       0.00000000 NULL       0.44434700      -0.15635800      -0.08228400
P        4.40032804       4.97539989       0.84952144       0.00000000 NULL      -0.35758500      -0.30663800      -0.08228200
P        9.64598939       4.36871617       5.39492589       0.00000000 NULL       0.24171500       0.28103600      -0.11218300
P        8.77474457       6.46087108       5.39492589       0.00000000 NULL       0.12252700      -0.34984900      -0.11218300
P       11.02222628       6.16931377       5.39492589       0.00000000 NULL      -0.36424200       0.06881200      -0.11218300
P        8.85288487       2.70920142       7.67319347       0.00000000 NULL      -1.56782600       0.37917400       0.31272900
P        4.46267487       2.31117678       7.67319347       0.00000000 NULL       1.11228600       1.16819300       0.31272800
P        6.31308042       6.31222248       7.67319347       0.00000000 NULL       0.45554000      -1.54736600       0.31272900
P        3.28541933       3.19041804       3.47914169       0.00000000 NULL      -0.06315600      -0.23083500      -0.11826300
P        4.39171343       1.22583472       3.47914169       0.00000000 NULL      -0.16833100       0.17011300      -0.11826300
P        2.13718732       1.25004758       3.47914169       0.00000000 NULL       0.23148700       0.06072300      -0.11826300
12
Lattice="6.410205561835538 -9.501042075273132e-14 4.423988151715937e-16 3.20510278091785 5.551400860029827 -4.915271464839751e-16 3.205102780917796 1.8504669533432436 9.624162004412412" Properties=species:S:1:pos:R:3:initial_magmoms:R:1:castep_labels:S:1:forces:R:3 n_minim_iter=5 energy=-62.990798310076 stress="-0.00018768880004500795 0.0 -0.0 0.0 -0.00018771799867600437 -0.0 -0.0 -0.0 -0.00034232474980206486" free_energy=-62.990798310076 pbc="T T T"
P        8.48145432       4.91153496       0.81773283       0.00000000 NULL      -0.62225200       0.18119900       0.07844300
P        6.42299245       1.30187934       0.81773283       0.00000000 NULL       0.46805000       0.44828800       0.07844300
P        4.32616992       4.88938742       0.81773283       0.00000000 NULL       0.15420200      -0.62948700       0.07844400
P        9.48359582       4.28168282       5.85903896       0.00000000 NULL       0.06039600      -0.38999300       0.04358200
P        8.58155652       6.30032627       5.85903896       0.00000000 NULL      -0.36794100       0.14269300       0.04358200
P       10.78077268       6.07219349       5.85903896       0.00000000 NULL       0.30754600       0.24730100       0.04358200
P        8.61073712       2.62281570       8.51419397       0.00000000 NULL      -1.56727900       0.41971300      -0.08421400
P        4.37626203       2.33427678       8.51419397       0.00000000 NULL       1.14712100       1.14744900      -0.08421500
P        6.24361754       6.14570924       8.51419397       0.00000000 NULL       0.42015800      -1.56716200      -0.08421500
P        3.18524994       3.13261687       3.84549495       0.00000000 NULL      -0.02002700       0.31206200      -0.03781100
P        4.32540360       1.22658505       3.84549495       0.00000000 NULL       0.28026700      -0.13868700      -0.03781100
P        2.10465480       1.19219893       3.84549495       0.00000000 NULL      -0.26024000      -0.17337500      -0.03781100
12
Lattice="6.203225392546652 -1.3839865595834967e-13 6.420539165411178e-16 3.1016126962734454 5.372150775346027 -6.730451214417302e-16 3.101612696273365 1.7907169251152955 10.225199545885646" Properties=species:S:1:pos:R:3:initial_magmoms:R:1:castep_labels:S:1:forces:R:3 n_minim_iter=6 energy=-63.304322647771 stress="-0.00555710233987556 2.9346914273288097e-08 2.9346914273288097e-08 2.9346914273288097e-08 -0.005557043646047014 -0.0 2.9346914273288097e-08 -0.0 -0.006654178036153889" free_energy=-63.304322647771 pbc="T T T"
P        8.16073450       4.71881734       0.76502531       0.00000000 NULL      -0.27561000       0.20789400       0.42670400
P        6.20947383       1.31748949       0.76502531       0.00000000 NULL       0.31784000       0.13473600       0.42670200
P        4.23946784       4.70799472       0.76502531       0.00000000 NULL      -0.04223300      -0.34263000       0.42670100
P        9.20221319       4.08911444       6.19671991       0.00000000 NULL       0.03991600      -0.24362400       0.11633400
P        8.24500847       6.10254471       6.19671991       0.00000000 NULL      -0.23094300       0.08724400       0.11633500
P       10.46729260       5.92479318       6.19671991       0.00000000 NULL       0.19102600       0.15638100       0.11633400
P        8.24928174       2.48550335       9.12454501       0.00000000 NULL      -1.60751500       0.67048400      -0.40815400
P        4.23109356       2.35746233       9.12454501       0.00000000 NULL       1.38441300       1.05690000      -0.40815600
P        6.12930088       5.90133588       9.12454501       0.00000000 NULL       0.22310500      -1.72738400      -0.40815600
P        3.04745599       3.07900710       4.13901451       0.00000000 NULL      -0.01533000       0.19668200      -0.13488100
P        4.24438307       1.19347292       4.13901451       0.00000000 NULL       0.17799600      -0.08506500      -0.13488200
P        2.01299903       1.09967075       4.13901451       0.00000000 NULL      -0.16266700      -0.11161700      -0.13488200
12
Lattice="6.155872534773822 -1.5443244508670842e-13 6.660935087649103e-16 3.0779362673870443 5.331141997572957 -6.957063010341123e-16 3.0779362673869546 1.777047332524267 10.397838502231155" Properties=species:S:1:pos:R:3:initial_magmoms:R:1:castep_labels:S:1:forces:R:3 n_minim_iter=7 energy=-63.383629820088 stress="-0.005446517733724546 -2.9305356536445524e-08 -0.0 -2.9305356536445524e-08 -0.005446576344437619 -0.0 -0.0 -0.0 -0.0048241305716035165" free_energy=-63.383629820088 pbc="T T T"
P        8.12441948       4.67513133       0.76622510       0.00000000 NULL      -0.81014200      -0.17577900       0.27088100
P        6.14244529       1.28876467       0.76622510       0.00000000 NULL       0.25284900       0.78949500       0.27088400
P        4.20075283       4.69838800       0.76622510       0.00000000 NULL       0.55729700      -0.61371500       0.27088300
P        9.14340058       4.03051763       6.29766712       0.00000000 NULL       0.04299900       0.06871200       0.10459000
P        8.15263917       6.05975000       6.29766712       0.00000000 NULL       0.03800700      -0.07159400       0.10459000
P       10.40538666       5.90315837       6.29766712       0.00000000 NULL      -0.08100600       0.00288200       0.10459000
P        8.15165731       2.45151339       9.27571945       0.00000000 NULL      -1.16858200       0.44760000      -0.26687000
P        4.20311675       2.37698499       9.27571945       0.00000000 NULL       0.97192600       0.78822600      -0.26686700
P        6.11284354       5.83378562       9.27571945       0.00000000 NULL       0.19665300      -1.23582700      -0.26686900
P        3.00721213       3.07398790       4.22717049       0.00000000 NULL      -0.00991400       0.04213900      -0.10860500
P        4.23648182       1.18982594       4.22717049       0.00000000 NULL       0.04145000      -0.01248400      -0.10860400
P        1.99011485       1.06732815       4.22717049       0.00000000 NULL      -0.03153700      -0.02965500      -0.10860400
12
Lattice="6.110074517983659 -1.8299404155825054e-13 6.8090385780576345e-16 3.055037258991988 5.291479751589714 -7.032780179099114e-16 3.055037258991881 1.7638265838631761 10.359635343997054" Properties=species:S:1:pos:R:3:initial_magmoms:R:1:castep_labels:S:1:forces:R:3 n_minim_iter=8 energy=-63.505090332141 stress="-0.00010192843647230179 -2.9856015369742767e-08 -0.0 -2.9856015369742767e-08 -0.00010195829248767154 0.0 -0.0 0.0 -0.0013522386481263893" free_energy=-63.505090332141 pbc="T T T"
P        8.06493357       4.58357572       0.76130170       0.00000000 NULL      -0.28722700       0.01110700      -0.01709700
P        6.04710074       1.30673430       0.76130170       0.00000000 NULL       0.15323800       0.24319100      -0.01709700
P        4.21818924       4.69264949       0.76130170       0.00000000 NULL       0.13399100      -0.25430000      -0.01709500
P        9.10525794       4.00568482       6.28013422       0.00000000 NULL      -0.01321900      -0.21967600       0.23231100
P        8.08150762       5.98621216       6.28013422       0.00000000 NULL      -0.18363500       0.12128600       0.23231000
P       10.30856977       5.88254227       6.28013422       0.00000000 NULL       0.19685400       0.09839000       0.23231000
P        8.02481852       2.40233489       9.21746817       0.00000000 NULL      -0.31834500      -0.03628100       0.03687000
P        4.17814830       2.43209536       9.21746817       0.00000000 NULL       0.12775300       0.29383900       0.03687100
P        6.12725673       5.74852926       9.21746817       0.00000000 NULL       0.19059000      -0.25755600       0.03687200
P        2.95033696       3.05083046       4.23231244       0.00000000 NULL       0.01938900       0.15493800      -0.25208600
P        4.22196546       1.21099777       4.23231244       0.00000000 NULL       0.12448500      -0.09426100      -0.25208500
P        1.99280936       1.02965153       4.23231244       0.00000000 NULL      -0.14387500      -0.06067700      -0.25208500
12
Lattice="6.082382788666731 -2.0051092001628619e-13 6.858884439933182e-16 3.0411913943335387 5.2674980105265234 -7.077438332016047e-16 3.0411913943334214 1.7558326701754403 10.401723157111256" Properties=species:S:1:pos:R:3:initial_magmoms:R:1:castep_labels:S:1:forces:R:3 n_minim_iter=9 energy=-63.556840554685 stress="0.003756254324061128 -3.0006585057326014e-08 -0.0 -3.0006585057326014e-08 0.00375622431747607 0.0 -0.0 0.0 0.003864878161968648" free_energy=-63.556840554685 pbc="T T T"
P        8.02870821       4.53630249       0.75089107       0.00000000 NULL      -0.14960300       0.04685700       0.01532400
P        5.99658188       1.31377950       0.75089107       0.00000000 NULL       0.11538600       0.10613100       0.01532400
P        4.22185827       4.68491402       0.75089107       0.00000000 NULL       0.03422000      -0.15299000       0.01532700
P        9.07756976       3.98093377       6.34411053       0.00000000 NULL      -0.03014100      -0.21434100      -0.05214100
P        8.03237908       5.95062113       6.34411053       0.00000000 NULL      -0.17055500       0.13327300      -0.05214100
P       10.26077371       5.87093913       6.34411053       0.00000000 NULL       0.20069500       0.08106800      -0.05214100
P        7.95701394       2.37220041       9.26361536       0.00000000 NULL      -0.09654500      -0.14158900       0.01355500
P        4.15826163       2.45791961       9.26361536       0.00000000 NULL      -0.07434700       0.15440800       0.01355700
P        6.13187279       5.70487601       9.26361536       0.00000000 NULL       0.17088900      -0.01281700       0.01355800
P        2.92241178       3.04224977       4.21584849       0.00000000 NULL       0.04823500       0.14637000       0.02326000
P        4.21465109       1.21549029       4.21584849       0.00000000 NULL       0.10264300      -0.11495800       0.02326000
P        1.98651131       1.00975795       4.21584849       0.00000000 NULL      -0.15087800      -0.03141200       0.02325900
12
Lattice="5.885802759956797 -2.6193514664042823e-13 7.101942115857821e-16 2.9429013799786254 5.097254711787017 -7.915720138376281e-16 2.9429013799784722 1.6990849039289173 10.422930403351696" Properties=species:S:1:pos:R:3:initial_magmoms:R:1:castep_labels:S:1:forces:R:3 n_minim_iter=10 energy=-63.698077991851 stress="0.020646946601117214 -3.197923690921388e-08 -0.0 -3.197923690921388e-08 0.020646946601117214 -0.0 -0.0 -0.0 0.009839819321543656" free_energy=-63.698077991851 pbc="T T T"
P        7.74595637       4.28472946       0.84591411       0.00000000 NULL       0.67979500       0.16221300      -0.28471100
P        5.72350913       1.34394970       0.84591411       0.00000000 NULL      -0.19941400      -0.66982700      -0.28471000
P        4.18794278       4.56583026       0.84591411       0.00000000 NULL      -0.48038000       0.50761400      -0.28470900
P        8.81076565       3.78722481       6.28477761       0.00000000 NULL      -0.03813100       0.19938700      -0.09673700
P        7.70315421       5.76780485       6.28477761       0.00000000 NULL       0.19174000      -0.06667100      -0.09673700
P        9.97219255       5.73673447       6.28477761       0.00000000 NULL      -0.15360900      -0.13271600      -0.09673700
P        7.57218551       2.18113674       9.36655033       0.00000000 NULL       0.48302500      -0.13487500       0.28101100
P        3.98862983       2.54623604       9.36655033       0.00000000 NULL      -0.35831700      -0.35087400       0.28101200
P        6.09659294       5.46713664       9.36655033       0.00000000 NULL      -0.12471000       0.48574900       0.28101200
P        2.81997272       3.02060157       4.11917194       0.00000000 NULL       0.08905800      -0.44108000       0.10043500
P        4.14883272       1.14478591       4.11917194       0.00000000 NULL      -0.42651500       0.14341300       0.10043500
P        1.85989870       0.93186723       4.11917194       0.00000000 NULL       0.33745700       0.29766600       0.10043500
12
Lattice="5.6609587935491055 -2.9705481126858357e-13 7.065187884757103e-16 2.830479396774811 4.902534124990283 -8.449782592240011e-16 2.830479396774637 1.6341780416633278 10.660836108920977" Properties=species:S:1:pos:R:3:initial_magmoms:R:1:castep_labels:S:1:forces:R:3 n_minim_iter=11 energy=-63.800871009897 stress="0.02797175046783798 -0.0 -0.0 -0.0 0.027971716669284483 0.0 -0.0 0.0 0.02217327063059461" free_energy=-63.800871009897 pbc="T T T"
P        7.43942414       4.02123723       0.90950936       0.00000000 NULL       0.97113200       0.54989000      -0.58672100
P        5.42374033       1.35171934       0.90950936       0.00000000 NULL      -0.00934500      -1.11596900      -0.58672100
P        4.11971192       4.43211167       0.90950936       0.00000000 NULL      -0.96178500       0.56607900      -0.58672000
P        8.47841732       3.59006671       6.38552844       0.00000000 NULL      -0.05695900       0.26043600      -0.22414300
P        7.36131850       5.57004424       6.38552844       0.00000000 NULL       0.25402300      -0.08089000      -0.22414300
P        9.63457875       5.54749142       6.38552844       0.00000000 NULL      -0.19706500      -0.17954600      -0.22414300
P        7.20671113       2.06268917       9.63503331       0.00000000 NULL       0.70322600      -0.20387800       0.57762300
P        3.84394445       2.53252875       9.63503331       0.00000000 NULL      -0.52817700      -0.50707100       0.57762400
P        5.93222080       5.20985033       9.63503331       0.00000000 NULL      -0.17505100       0.71094900       0.57762400
P        2.71110906       2.95464581       4.15691772       0.00000000 NULL       0.06164200      -0.48373700       0.23323900
P        4.03372320       1.07732190       4.15691772       0.00000000 NULL      -0.44974900       0.18848500       0.23324000
P        1.74660593       0.87056641       4.15691772       0.00000000 NULL       0.38810800       0.29525200       0.23323900
12
Lattice="5.3728701902607785 -3.414662139961542e-13 7.213124255253484e-16 2.686435095130687 4.653042076001792 -9.103656311066498e-16 2.686435095130488 1.5510140253338163 10.862548078659108" Properties=species:S:1:pos:R:3:initial_magmoms:R:1:castep_labels:S:1:forces:R:3 n_minim_iter=12 energy=-63.967032752392 stress="0.019715371969441547 -0.0 0.0 -0.0 0.019715371969441547 0.0 0.0 0.0 0.0278658471569534" free_energy=-63.967032752392 pbc="T T T"
P        7.03135408       3.73674336       0.93949250       0.00000000 NULL       1.08172600       0.55948600      -0.54960100
P        5.09330783       1.34838122       0.93949250       0.00000000 NULL      -0.05633300      -1.21654500      -0.54960100
P        3.99394867       4.22095957       0.93949250       0.00000000 NULL      -1.02539200       0.65705900      -0.54960100
P        8.01361386       3.35085670       6.47458377       0.00000000 NULL      -0.06468500       0.08943200      -0.35274500
P        6.95442538       5.34370469       6.47458377       0.00000000 NULL       0.10979200       0.01130300      -0.35274500
P        9.20987661       5.26456483       6.47458377       0.00000000 NULL      -0.04510800      -0.10073500      -0.35274500
P        6.75178932       1.92723660       9.87277024       0.00000000 NULL       0.85235100      -0.29315300       0.51460700
P        3.66601139       2.49524478       9.87277024       0.00000000 NULL      -0.68005300      -0.59158200       0.51460700
P        5.70080986       4.88360277       9.87277024       0.00000000 NULL      -0.17229800       0.88473400       0.51460700
P        2.55213711       2.86531961       4.19912653       0.00000000 NULL       0.06472900      -0.36541200       0.38773900
P        3.89180611       1.01016670       4.19912653       0.00000000 NULL      -0.34882100       0.12664900       0.38773900
P        1.61536206       0.77755577       4.19912653       0.00000000 NULL       0.28409200       0.23876300       0.38773900
12
Lattice="5.369927923508403 -3.4235787816485306e-13 7.14383643451921e-16 2.6849639617545 4.650493998249523 -9.45067882785037e-16 2.6849639617543004 1.5501646660830597 10.691370325904577" Properties=species:S:1:pos:R:3:initial_magmoms:R:1:castep_labels:S:1:forces:R:3 n_minim_iter=13 energy=-64.058199188564 stress="0.01618742699359723 0.0 -0.0 0.0 0.016187389539521067 0.0 -0.0 0.0 0.018757263521433542" free_energy=-64.058199188564 pbc="T T T"
P        7.03344804       3.72616124       0.91272974       0.00000000 NULL       1.01083300       0.49402400      -0.43396600
P        5.08015419       1.34676270       0.91272974       0.00000000 NULL      -0.07757900      -1.12242000      -0.43396700
P        3.99618154       4.22806406       0.91272974       0.00000000 NULL      -0.93325500       0.62839500      -0.43396700
P        7.98219517       3.33169359       6.38446058       0.00000000 NULL      -0.02252700       0.34908400      -0.14801100
P        6.94912558       5.37285140       6.38446058       0.00000000 NULL       0.31357900      -0.15503300      -0.14801100
P        9.23335490       5.24693701       6.38446058       0.00000000 NULL      -0.29105200      -0.19405100      -0.14801200
P        6.73840972       1.92095339       9.70257138       0.00000000 NULL       0.86546400      -0.28681900       0.39884600
P        3.66431750       2.50487730       9.70257138       0.00000000 NULL      -0.68112500      -0.60610400       0.39884600
P        5.70705655       4.87515730       9.70257138       0.00000000 NULL      -0.18433900       0.89292500       0.39884700
P        2.56215788       2.83411245       4.14762437       0.00000000 NULL      -0.02245400       0.23989300       0.18313200
P        3.85829840       1.01454396       4.14762437       0.00000000 NULL       0.21898000      -0.10050100       0.18313200
P        1.63443560       0.80183758       4.14762437       0.00000000 NULL      -0.19652700      -0.13939200       0.18313200
12
Lattice="5.370568429510569 -3.3352311940273094e-13 7.613629503065822e-16 2.685284214755575 4.651048692718682 -9.836130553687363e-16 2.6852842147553804 1.5503495642394485 10.378496646079334" Properties=species:S:1:pos:R:3:initial_magmoms:R:1:castep_labels:S:1:forces:R:3 n_minim_iter=14 energy=-64.197106760574 stress="0.008387100934686755 -0.0 0.0 -0.0 0.008387178082637899 0.0 0.0 0.0 0.0008097063212359421" free_energy=-64.197106760574 pbc="T T T"
P        7.05916163       3.72572456       0.85873964       0.00000000 NULL       0.66518300       0.29012800      -0.15494400
P        5.06755973       1.32582180       0.85873964       0.00000000 NULL      -0.08133400      -0.72113200      -0.15494600
P        3.98498393       4.25055103       0.85873964       0.00000000 NULL      -0.58384900       0.43100200      -0.15494500
P        7.93631910       3.36983818       6.24091370       0.00000000 NULL      -0.04419600      -0.33260900       0.13578700
P        7.00605857       5.39517303       6.24091370       0.00000000 NULL      -0.26595100       0.20457900       0.13578700
P        9.22518026       5.18813486       6.24091370       0.00000000 NULL       0.31014500       0.12803000       0.13578800
P        6.74624569       1.93189732       9.37002433       0.00000000 NULL       0.70898000      -0.29726700       0.16980200
P        3.67051774       2.49372858       9.37002433       0.00000000 NULL      -0.61193100      -0.46536200       0.16980100
P        5.69494186       4.87647149       9.37002433       0.00000000 NULL      -0.09705000       0.76263200       0.16980300
P        2.58099435       2.85632354       4.05884926       0.00000000 NULL      -0.04570500      -0.13074800      -0.15064400
P        3.86843578       0.98768025       4.05884926       0.00000000 NULL      -0.09037800       0.10495600      -0.15064500
P        1.60642251       0.80704491       4.05884926       0.00000000 NULL       0.13608500       0.02579200      -0.15064500
12
Lattice="5.37910068726482 -3.1538667988520206e-13 7.611767367288012e-16 2.689550343632685 4.658437844685509 -9.807700393100145e-16 2.689550343632501 1.552812614895064 10.370738121729051" Properties=species:S:1:pos:R:3:initial_magmoms:R:1:castep_labels:S:1:forces:R:3 n_minim_iter=15 energy=-64.258275181742 stress="0.003198881109388465 -3.8480465648844764e-08 -0.0 -3.8480465648844764e-08 0.003198842628922816 0.0 -0.0 0.0 -0.0003612930919770035" free_energy=-64.258275181742 pbc="T T T"
P        7.07221805       3.76536988       0.85730015       0.00000000 NULL       0.34659300       0.16420100      -0.00435600
P        5.10389763       1.30947025       0.85730015       0.00000000 NULL      -0.03109100      -0.38226000      -0.00435700
P        3.96118638       4.24203555       0.85730015       0.00000000 NULL      -0.31550000       0.21805700      -0.00435500
P        7.93169103       3.36943705       6.24631033       0.00000000 NULL      -0.03237600      -0.11316300       0.07908500
P        7.02082360       5.42154908       6.24631033       0.00000000 NULL      -0.08181400       0.08462000       0.07908500
P        9.25343846       5.18432740       6.24631033       0.00000000 NULL       0.11419000       0.02854300       0.07908500
P        6.80632723       1.97848529       9.35312916       0.00000000 NULL       0.18295900      -0.26826400       0.01477900
P        3.68935559       2.43318076       9.35312916       0.00000000 NULL      -0.32380300      -0.02431300       0.01478100
P        5.64161924       4.90520964       9.35312916       0.00000000 NULL       0.14084200       0.29257900       0.01478200
P        2.57274806       2.85098790       4.05644130       0.00000000 NULL      -0.06158700      -0.02687100      -0.08951000
P        3.87220426       1.00487871       4.05644130       0.00000000 NULL       0.00752200       0.06677100      -0.08951000
P        1.62369871       0.80257123       4.05644130       0.00000000 NULL       0.05406500      -0.03990000      -0.08951000
12