16
Lattice="5.753013200241787 0.22710100931339824 0.5265994415133352 0.8647343667266321 7.766474500569317 0.579653450705007 3.5984385955781812 3.409423360924121 9.59117577022842" Properties=species:S:1:pos:R:3:initial_magmoms:R:1:castep_labels:S:1:forces:R:3 n_minim_iter=1 energy=-81.879034598158 stress="0.0006249938370211111 0.0007794414834163607 -0.000723280960981549 0.0007794414834163607 0.0013992936892371153 0.0007241503189139764 -0.000723280960981549 0.0007241503189139764 -0.0018232671334829362" free_energy=-81.879034598158 pbc="T T T"
P        7.07106207       9.10813398       5.84345009       0.00000000 NULL       0.38551100      -0.09686600       0.12100000
P        6.15422477       3.25808156       3.14289071       0.00000000 NULL      -0.22386700      -0.16402300       0.11445400
P        4.41699720       3.08346559       5.90518637       0.00000000 NULL      -0.02698900      -0.26738600      -0.00956100
P        6.29191631       9.72306766       9.85333711       0.00000000 NULL      -0.19813000      -0.51373200       0.09005900
P        5.11937841       4.85792270       2.09927694       0.00000000 NULL      -0.03789600       0.23247700      -0.36015600
P        4.32972409       6.54404929       6.35649145       0.00000000 NULL       0.09006200       0.17167300       0.06019800
P        4.14573845       7.28816626       8.45016552       0.00000000 NULL      -0.16206000      -0.16660600       0.63312200
P        4.49803733       1.86796870       3.98786503       0.00000000 NULL      -0.26308300      -0.23316200       0.15719700
P        6.06777265       4.40369503       5.07289062       0.00000000 NULL      -0.08725400      -0.25749400      -0.03489500
P        6.24501591       7.86068304       8.77074978       0.00000000 NULL       0.15753900       0.07963000      -0.10918700
P        5.89025599       5.85977196       9.75770916       0.00000000 NULL      -0.15633500       0.16727000      -0.44163300
P        2.54901738       2.95435827       2.27510635       0.00000000 NULL       0.21156100       0.65664400      -0.49478300
P        6.57190805       6.98579745       6.24478566       0.00000000 NULL       0.27583000       0.21622000       0.63204800
P        2.88739231       4.74618379       6.31252873       0.00000000 NULL       0.19568700       0.17420500       0.21796500
P        5.00105575       6.05249064       4.03027842       0.00000000 NULL      -0.18292600      -0.05441000      -0.43309400
P        2.27938314       5.53952653       4.33438400       0.00000000 NULL       0.02234900       0.05556100      -0.14273500
16
Lattice="5.727664627049523 0.1881168388007131 0.5643469403817833 0.8183737531191442 7.676793371819575 0.5497844791977928 3.6144330228346 3.29987516437671 9.72557854404863" Properties=species:S:1:pos:R:3:initial_magmoms:R:1:castep_labels:S:1:forces:R:3 n_minim_iter=2 energy=-81.925243788682 stress="3.7961619841676505e-05 -0.0019300473626582386 0.0015523466588206406 -0.0019300473626582386 -0.002299986581967263 -0.0010540941792603923 0.0015523466588206406 -0.0010540941792603923 0.003934998026327806" free_energy=-81.925243788682 pbc="T T T"
P        7.02400798       8.93723541       5.91590389       0.00000000 NULL       0.23345700       0.10562100      -0.07210500
P        6.11949267       3.16755449       3.20472911       0.00000000 NULL      -0.24980600       0.01743500      -0.01410000
P        4.41030134       2.98783709       5.99449039       0.00000000 NULL      -0.10226400      -0.33871300       0.05563300
P        6.25612314       9.52057288       9.97325774       0.00000000 NULL      -0.16178100      -0.29728900       0.23050100
P        5.07774939       4.76981326       2.12306399       0.00000000 NULL       0.04854700       0.04009900      -0.06313600
P        4.30779013       6.41830218       6.43386194       0.00000000 NULL       0.10629600       0.39451000       0.18657500
P        4.12721973       7.13787429       8.56244830       0.00000000 NULL      -0.21496200      -0.28305000       0.44948900
P        4.48313114       1.79579212       4.06078803       0.00000000 NULL      -0.18254800      -0.37666100       0.28373900
P        6.03990556       4.28931966       5.15196770       0.00000000 NULL      -0.10776300      -0.04679000      -0.34164300
P        6.22095171       7.69494020       8.88178358       0.00000000 NULL       0.20206600      -0.02870900      -0.16625800
P        5.87910272       5.71335806       9.88514037       0.00000000 NULL      -0.17634400       0.18128800      -0.25083900
P        2.53613542       2.90816444       2.29506877       0.00000000 NULL       0.32577600       0.57111200      -0.65000100
P        6.53980415       6.84364296       6.34141620       0.00000000 NULL       0.32355700       0.03486200       0.65606200
P        2.88448798       4.64799840       6.39424133       0.00000000 NULL      -0.04983200       0.12405600      -0.06128700
P        4.96092778       5.93663215       4.07231832       0.00000000 NULL      -0.15725300      -0.10312900      -0.35542800
P        2.26052167       5.44531156       4.37402051       0.00000000 NULL       0.16285600       0.00535800       0.11279800
16
Lattice="5.5965835886717 0.24184356195197482 0.529339793669219 0.8735028260448647 7.6461641212097025 0.4993145865524843 3.5209939770286947 3.271422355023301 9.573182077254096" Properties=species:S:1:pos:R:3:initial_magmoms:R:1:castep_labels:S:1:forces:R:3 n_minim_iter=3 energy=-82.215415452435 stress="-0.005060306999133706 -0.00012512231818551873 0.0007871674980384071 -0.00012512231818551873 -0.014208219267202272 -0.00745057830440458 0.0007871674980384071 -0.00745057830440458 -0.010977230597583461" free_energy=-82.215415452435 pbc="T T T"
P        6.97043929       8.93242348       5.77156373       0.00000000 NULL       0.33734400       0.06650500      -0.03934500
P        5.96592716       3.18418547       3.12983989       0.00000000 NULL       0.15459100      -0.41240400      -0.55364200
P        4.30526269       2.94813753       5.88764045       0.00000000 NULL       0.07184800      -0.12884900       0.42215500
P        6.13833673       9.42871567       9.79309748       0.00000000 NULL      -0.08922400       0.55302700       0.57397000
P        4.99899590       4.81022516       2.01298428       0.00000000 NULL      -0.18706800      -0.20153100      -0.40739300
P        4.25730975       6.43247109       6.31613155       0.00000000 NULL       0.02597500       0.25976100       0.18021000
P        4.04143183       7.07336385       8.48074699       0.00000000 NULL      -0.19035000      -0.37021900       0.36601400
P        4.34922747       1.77297546       4.00939861       0.00000000 NULL      -0.36739700      -0.47284700      -0.23820500
P        5.90889178       4.27922625       5.01860412       0.00000000 NULL      -0.04251200       0.15061400       0.19118600
P        6.13878776       7.68213410       8.68645962       0.00000000 NULL       0.25894000      -0.28172100      -0.44197900
P        5.73543830       5.71932919       9.65539893       0.00000000 NULL      -0.21151400      -0.18029200      -0.56317500
P        2.53059120       2.99403392       2.16278071       0.00000000 NULL       0.28328000       0.54502900      -0.12608100
P        6.46971180       6.86456031       6.28652818       0.00000000 NULL       0.28075100       0.09944100       0.65870400
P        2.85069246       4.64382206       6.29482782       0.00000000 NULL      -0.18484200       0.12528200       0.02182800
P        4.86515570       5.92886641       3.91234764       0.00000000 NULL      -0.35136200       0.30945400      -0.03346400
P        2.25307481       5.42543408       4.27478139       0.00000000 NULL       0.21153900      -0.06124900      -0.01078300
16
Lattice="5.516669208991249 0.2991726360773268 0.5083114857416099 0.9261776866159288 7.793187348527011 0.5515794712170181 3.455196602736496 3.4251794562212527 9.66779036005991" Properties=species:S:1:pos:R:3:initial_magmoms:R:1:castep_labels:S:1:forces:R:3 n_minim_iter=4 energy=-82.50016770473 stress="0.003755715634503042 0.0013910995585656055 0.00015175073589588218 0.0013910995585656055 -0.004305869591585637 -0.006079056737785279 0.00015175073589588218 -0.006079056737785279 -3.605806161327838e-06" free_energy=-82.50016770473 pbc="T T T"
P        6.96752426       9.18885731       5.85892617       0.00000000 NULL       0.06428500      -0.08592600      -0.05739700
P        5.86488091       3.29880022       3.15856722       0.00000000 NULL       0.38174500      -0.23087500      -0.58577600
P        4.23564148       3.03821284       5.94555375       0.00000000 NULL       0.25555800      -0.02623200       0.14533400
P        6.06356469       9.65923991       9.94060936       0.00000000 NULL       0.01226600       0.55553000       0.45922600
P        4.95954261       4.97518428       2.00278906       0.00000000 NULL      -0.28857700      -0.35452200      -0.15201800
P        4.23688593       6.66164698       6.41285430       0.00000000 NULL      -0.00251500       0.09438900       0.27440800
P        3.98223597       7.26176669       8.66827762       0.00000000 NULL       0.10669000      -0.29207700      -0.03454400
P        4.25196924       1.82923442       4.06451111       0.00000000 NULL      -0.18012700      -0.09862400      -0.14220500
P        5.82655776       4.41704324       5.04700954       0.00000000 NULL      -0.14056200       0.15391100       0.02124700
P        6.10229812       7.93637058       8.77004061       0.00000000 NULL       0.01894200      -0.26224000      -0.34691900
P        5.63777126       5.95922284       9.70243718       0.00000000 NULL      -0.07352400      -0.09778300      -0.31385700
P        2.54566163       3.17199430       2.11442258       0.00000000 NULL      -0.04234500       0.29292500       0.06392500
P        6.44797589       7.10718387       6.45075542       0.00000000 NULL       0.21365800       0.13112500       0.35734000
P        2.83554027       4.81582864       6.38772259       0.00000000 NULL      -0.12173900       0.26313800      -0.21411300
P        4.80615893       6.09538908       3.90951553       0.00000000 NULL      -0.44340800       0.12842000       0.29810800
P        2.25911677       5.57558955       4.33318432       0.00000000 NULL       0.23965400      -0.17115900       0.22724000
16
Lattice="5.390552625245916 0.2815657070476502 0.5153944333122534 0.8734317473227425 7.819142097681779 0.6576530374976164 3.3701450612725354 3.550483876354978 9.696137176946113" Properties=species:S:1:pos:R:3:initial_magmoms:R:1:castep_labels:S:1:forces:R:3 n_minim_iter=5 energy=-82.568146264097 stress="-0.0069980976987616475 -0.0006732194204428019 0.0008413608156499332 -0.0006732194204428019 -0.008469969131249895 -0.0010044807226194277 0.0008413608156499332 -0.0010044807226194277 -0.0029498628037661163" free_energy=-82.568146264097 pbc="T T T"
P        6.79048592       9.26074762       5.97939897       0.00000000 NULL       0.23967300       0.02870600      -0.01014500
P        5.71350490       3.31773664       3.20005723       0.00000000 NULL       0.41160700      -0.01647900      -0.46441100
P        4.13129433       3.09518973       5.97843623       0.00000000 NULL       0.05533600      -0.19859500       0.23875500
P        5.88595297       9.77826136      10.06484783       0.00000000 NULL       0.14858700       0.41486400       0.33198700
P        4.82543273       4.99900631       2.05691650       0.00000000 NULL      -0.55595900      -0.26671400      -0.25174000
P        4.12221419       6.75994345       6.49989206       0.00000000 NULL      -0.17823700       0.20878600       0.25183500
P        3.86197025       7.37125526       8.77734625       0.00000000 NULL      -0.30695200      -0.28052700      -0.16432400
P        4.13980384       1.85733348       4.09169389       0.00000000 NULL      -0.43222700      -0.11583800      -0.16806400
P        5.67492306       4.46384023       5.09489738       0.00000000 NULL      -0.04327500       0.03347800      -0.17575900
P        5.94492885       8.05066396       8.85568790       0.00000000 NULL       0.31723800       0.24743000      -0.29549900
P        5.48560957       6.08922688       9.74732325       0.00000000 NULL       0.03865400      -0.37210300      -0.01127500
P        2.48643562       3.22863329       2.13128542       0.00000000 NULL       0.17531200       0.21205500       0.08524000
P        6.29089934       7.19458531       6.57038504       0.00000000 NULL       0.39017300      -0.12353300       0.31697100
P        2.76082127       4.91297141       6.44610882       0.00000000 NULL      -0.20983200       0.03035900       0.00976500
P        4.66445403       6.14151655       3.97184901       0.00000000 NULL      -0.42129700       0.19115300       0.22925200
P        2.19251291       5.64072819       4.40062512       0.00000000 NULL       0.37119900       0.00695600       0.07741200
16
Lattice="5.397180148217703 0.2234537623835921 0.5294784662676455 0.7962535153792588 7.864826071993819 0.6504416345532196 3.3723634338371524 3.5324096163089997 9.605262231439996" Properties=species:S:1:pos:R:3:initial_magmoms:R:1:castep_labels:S:1:forces:R:3 n_minim_iter=6 energy=-82.603437212227 stress="-0.004854418193736832 -0.003553013726562648 0.0029645970174190044 -0.003553013726562648 -0.005308120997709289 -0.002330105007635099 0.0029645970174190044 -0.002330105007635099 -0.006733624753012961" free_energy=-82.603437212227 pbc="T T T"
P        6.73591225       9.24398358       5.93974008       0.00000000 NULL       0.01655900       0.11651200      -0.13611200
P        5.70333232       3.27307215       3.17798967       0.00000000 NULL       0.25450100       0.19103300      -0.60796600
P        4.12887522       3.05826723       5.93076266       0.00000000 NULL      -0.12600000      -0.08287300       0.44355100
P        5.82773275       9.77295413       9.98494551       0.00000000 NULL       0.19806400       0.41876600       0.30866100
P        4.77615452       4.97767158       2.03949601       0.00000000 NULL      -0.52801900      -0.45158000      -0.19045100
P        4.08001204       6.76535747       6.45204825       0.00000000 NULL      -0.09992100       0.20610400       0.16136900
P        3.81652016       7.36609169       8.70409238       0.00000000 NULL      -0.21986700      -0.31748200      -0.11145600
P        4.12917433       1.81784286       4.06462647       0.00000000 NULL      -0.25352300      -0.24220100      -0.13045800
P        5.65078782       4.42401112       5.05383340       0.00000000 NULL      -0.09908100       0.24549200      -0.18253200
P        5.90798910       8.04288726       8.77290765       0.00000000 NULL       0.25496400       0.23056700      -0.15617600
P        5.46303204       6.06348352       9.65323799       0.00000000 NULL      -0.01225800      -0.31313000      -0.10427500
P        2.46862391       3.24137634       2.10818190       0.00000000 NULL       0.27042000       0.20954100       0.17267900
P        6.26142412       7.17617365       6.54061627       0.00000000 NULL       0.30927800      -0.11577700       0.21565700
P        2.73823414       4.92065571       6.38887639       0.00000000 NULL      -0.16530800      -0.12264600       0.03631100
P        4.60853001       6.13149010       3.94256800       0.00000000 NULL      -0.22378900       0.01454400       0.28192400
P        2.16033657       5.65385481       4.36123390       0.00000000 NULL       0.42398100       0.01313100      -0.00072600
16
Lattice="5.365687967753904 0.1997219658717922 0.4437379289571559 0.7547271214506522 7.740678881981687 0.6615530840049642 3.201511310939526 3.494982319331699 9.557459887154051" Properties=species:S:1:pos:R:3:initial_magmoms:R:1:castep_labels:S:1:forces:R:3 n_minim_iter=7 energy=-82.743329621261 stress="-0.0027049563829504657 -0.0029415032626212657 0.0014442739008316446 -0.0029415032626212657 -0.010319411143032222 -0.0007070182867264555 0.0014442739008316446 -0.0007070182867264555 -0.007743297885151316" free_energy=-82.743329621261 pbc="T T T"
P        6.61410259       9.07908894       5.86166187       0.00000000 NULL      -0.04113700       0.40183400      -0.23667100
P        5.64358611       3.20881391       3.05329597       0.00000000 NULL      -0.00573800      -0.07123800      -0.27311000
P        4.01807602       2.98402307       5.88389457       0.00000000 NULL       0.03033300      -0.05567200       0.28448200
P        5.62125346       9.62661695       9.94845037       0.00000000 NULL       0.34819100       0.43861200       0.47111700
P        4.65491674       4.86534694       1.93878519       0.00000000 NULL      -0.83664700      -0.10349100      -0.17575400
P        3.93479428       6.68757717       6.43512475       0.00000000 NULL       0.11577200       0.34557200       0.07205600
P        3.62451605       7.22738549       8.67890728       0.00000000 NULL      -0.02850600      -0.09747900      -0.31362400
P        4.00383153       1.77230650       4.00529024       0.00000000 NULL      -0.14453600      -0.20761300      -0.16912800
P        5.51862052       4.33706624       4.94863323       0.00000000 NULL       0.02257600       0.21832200      -0.09548000
P        5.74607018       7.95077254       8.67261043       0.00000000 NULL      -0.02901400      -0.02026700       0.03184500
P        5.27032704       5.96326483       9.54974621       0.00000000 NULL       0.22286800      -0.27633700       0.06900000
P        2.43117386       3.24882954       2.06098068       0.00000000 NULL       0.41903000       0.23473700       0.15146400
P        6.15669541       7.07161885       6.52024891       0.00000000 NULL      -0.04696400      -0.49334300       0.17113400
P        2.61775473       4.87384150       6.36547745       0.00000000 NULL      -0.12820300      -0.41856500       0.23649400
P        4.46066048       6.02706088       3.89330240       0.00000000 NULL      -0.19524900       0.07816100       0.05887300
P        2.09944378       5.57020905       4.34573115       0.00000000 NULL       0.29722100       0.02676500      -0.28269900
16
Lattice="5.265694071440592 0.20640043643345396 0.4144574227681605 0.7496814642786592 7.7793592269831295 0.6020597683228565 3.097079385111232 3.4487142333389036 9.544962975071972" Properties=species:S:1:pos:R:3:initial_magmoms:R:1:castep_labels:S:1:forces:R:3 n_minim_iter=8 energy=-82.802102951987 stress="-0.008658324421824062 -0.002461480716023108 0.00138227076360498 -0.002461480716023108 -0.007717525300872635 -0.003785760529935089 0.00138227076360498 -0.003785760529935089 -0.007410465113844887" free_energy=-82.802102951987 pbc="T T T"
P        6.48830105       9.09418040       5.77703451       0.00000000 NULL      -0.05434300       0.27527600      -0.17636500
P        5.53880612       3.21192364       2.98978984       0.00000000 NULL      -0.25973300      -0.08898900      -0.13931600
P        3.92208641       2.94964266       5.86422321       0.00000000 NULL       0.16430600      -0.03610500       0.21148600
P        5.48440278       9.61487082       9.89648412       0.00000000 NULL       0.44422100       0.40142600       0.52286500
P        4.53617866       4.87690562       1.86539975       0.00000000 NULL      -0.90434700      -0.04355100      -0.11792300
P        3.83761536       6.69662383       6.39924182       0.00000000 NULL      -0.03398900       0.28882000       0.03219300
P        3.51631760       7.19257942       8.63786508       0.00000000 NULL      -0.16114800       0.01495500      -0.34047800
P        3.89379616       1.75281705       3.98445816       0.00000000 NULL      -0.16670300      -0.24767100      -0.22089300
P        5.39081580       4.32866863       4.88918369       0.00000000 NULL       0.00954700       0.13982300      -0.11883600
P        5.61522029       7.95227212       8.60012317       0.00000000 NULL      -0.05579900      -0.21094600       0.29558200
P        5.13373381       5.92639296       9.49556891       0.00000000 NULL       0.42375400      -0.10470000       0.05065600
P        2.39067714       3.28595950       2.02292686       0.00000000 NULL       0.57461600       0.20259200       0.05903600
P        6.03889331       7.07235415       6.48384133       0.00000000 NULL       0.10605600      -0.24419200      -0.00852500
P        2.54590249       4.86320017       6.34203864       0.00000000 NULL      -0.19027500      -0.31097000       0.16370900
P        4.34492616       6.03679617       3.83988042       0.00000000 NULL      -0.10440800       0.04050400       0.03048700
P        2.06320760       5.57165844       4.30522249       0.00000000 NULL       0.20824600      -0.07627200      -0.24367600
16
Lattice="5.217035787612472 0.23244969050519648 0.41713501401525077 0.776650771393736 7.701076492057136 0.6484133316114579 3.0833245249003207 3.48413348371645 9.56488035659728" Properties=species:S:1:pos:R:3:initial_magmoms:R:1:castep_labels:S:1:forces:R:3 n_minim_iter=9 energy=-82.960987813864 stress="-0.011893607125203886 -0.0011858624142599562 0.004651026161988972 -0.0011858624142599562 -0.010881583648948536 -0.0024094943105272613 0.004651026161988972 -0.0024094943105272613 -0.009345284448379341" free_energy=-82.960987813864 pbc="T T T"
P        6.48869228       9.06495541       5.82673516       0.00000000 NULL      -0.18695400       0.27844700      -0.26624500
P        5.50128575       3.21264488       2.98278939       0.00000000 NULL      -0.25718000      -0.26995200      -0.06843200
P        3.92076978       2.94130776       5.88480449       0.00000000 NULL       0.18119800      -0.19190000       0.21415100
P        5.49989026       9.59550752      10.01052085       0.00000000 NULL       0.50425900       0.20799600       0.62819000
P        4.41302688       4.85023244       1.85740037       0.00000000 NULL      -0.83532800       0.25451000      -0.14500100
P        3.83087073       6.71974209       6.46994833       0.00000000 NULL      -0.04145500       0.12086700      -0.16280400
P        3.50352635       7.15910909       8.67333775       0.00000000 NULL      -0.23590400       0.21572600      -0.19745400
P        3.82603356       1.76181005       3.99524825       0.00000000 NULL       0.00423500      -0.17085400      -0.18300100
P        5.34313833       4.32363484       4.87960913       0.00000000 NULL       0.23863000       0.05851100      -0.00921800
P        5.60103588       7.95661469       8.65138245       0.00000000 NULL      -0.12004900      -0.09444400       0.28553500
P        5.13759257       5.93647977       9.50979161       0.00000000 NULL       0.60941900      -0.17255600       0.31106500
P        2.42227167       3.34976885       2.02146876       0.00000000 NULL       0.40292400       0.08937400       0.04250600
P        6.05171602       7.05651792       6.58314972       0.00000000 NULL       0.00653700      -0.34737000      -0.20912600
P        2.54966587       4.86203587       6.39330981       0.00000000 NULL      -0.26917700      -0.13848300       0.05598300
P        4.27894965       6.00491270       3.87653905       0.00000000 NULL       0.05702200       0.34977900      -0.22568400
P        2.10483984       5.54011591       4.32091881       0.00000000 NULL      -0.05817800      -0.18965300      -0.07046400
16
Lattice="5.176181424591968 0.18438891434997914 0.3154045111255917 0.6976461156940135 7.64989874500714 0.6457128803367969 2.8646956192484287 3.449022662359467 9.525309671012419" Properties=species:S:1:pos:R:3:initial_magmoms:R:1:castep_labels:S:1:forces:R:3 n_minim_iter=10 energy=-83.052889735546 stress="-0.016374924010171328 -0.0035078665869414387 0.001531463901513751 -0.0035078665869414387 -0.012299618258410092 -0.001927714849083132 0.001531463901513751 -0.001927714849083132 -0.00949638680124562" free_energy=-83.052889735546 pbc="T T T"
P        6.28234642       8.96331328       5.71650142       0.00000000 NULL      -0.17636100       0.26742900      -0.14218700
P        5.38794136       3.13827050       2.86768806       0.00000000 NULL      -0.28942700      -0.28194400       0.03692800
P        3.78437504       2.87432551       5.82199932       0.00000000 NULL       0.26994000      -0.16796400       0.19176300
P        5.22611204       9.49947725       9.97358994       0.00000000 NULL       0.48917700       0.11687000       0.67304100
P        4.24634050       4.78591498       1.75720746       0.00000000 NULL      -0.74383500       0.48809500      -0.01015000
P        3.63708165       6.67718929       6.43233586       0.00000000 NULL      -0.13561200       0.17744600      -0.23151600
P        3.26181673       7.08582984       8.62662236       0.00000000 NULL      -0.20397500       0.23075900      -0.25010400
P        3.69485769       1.71454109       3.93022345       0.00000000 NULL      -0.12724500      -0.25826700      -0.31293000
P        5.18076040       4.24651077       4.76687147       0.00000000 NULL       0.27582200       0.09796800      -0.05660000
P        5.34634063       7.87877263       8.57163526       0.00000000 NULL       0.02233500       0.02482800       0.16402900
P        4.90870112       5.86375047       9.42291517       0.00000000 NULL       0.60983000      -0.21515500       0.42956000
P        2.36764867       3.35957730       1.96731538       0.00000000 NULL       0.20988400       0.03191400       0.10495500
P        5.86248752       6.96346748       6.51824501       0.00000000 NULL      -0.02389500      -0.33759900      -0.12429600
P        2.38346704       4.82339845       6.37374731       0.00000000 NULL      -0.18154600      -0.25563300      -0.02798200
P        4.10304264       5.93399005       3.80420636       0.00000000 NULL       0.32112200       0.29871200      -0.42239100
P        1.98947462       5.48708371       4.28604673       0.00000000 NULL      -0.31621500      -0.21745700      -0.02212000
16
Lattice="5.152597672185566 0.2468690635302894 0.2812808826022406 0.7752395202557172 7.5862072779736405 0.6706757646295168 2.8261570946095986 3.490259198707621 9.550411593144917" Properties=species:S:1:pos:R:3:initial_magmoms:R:1:castep_labels:S:1:forces:R:3 n_minim_iter=11 energy=-83.183274817689 stress="-0.02051871004063404 -0.0004854744070336467 0.0010108786328614178 -0.0004854744070336467 -0.014049769206715612 -0.0001509775775591394 0.0010108786328614178 -0.0001509775775591394 -0.01057189890916213" free_energy=-83.183274817689 pbc="T T T"
P        6.31699263       8.97078922       5.71939494       0.00000000 NULL      -0.13874600       0.23216100      -0.19182000
P        5.38977551       3.15623653       2.81762436       0.00000000 NULL      -0.43647200      -0.32079900       0.27665500
P        3.80073882       2.88030395       5.82413016       0.00000000 NULL       0.36874500      -0.24143600       0.03585900
P        5.26780976       9.49582396      10.08776548       0.00000000 NULL       0.17936800       0.14369500       0.62021800
P        4.16848382       4.82524319       1.72669865       0.00000000 NULL      -0.17092700       0.59288100       0.12962500
P        3.64917800       6.70578244       6.46602122       0.00000000 NULL      -0.09163200       0.15782400      -0.22093500
P        3.27197666       7.08222508       8.65665658       0.00000000 NULL      -0.16573900       0.37550500      -0.28457300
P        3.64191604       1.74930841       3.91506016       0.00000000 NULL      -0.05392500      -0.13904500      -0.26021200
P        5.16962966       4.27806766       4.73232975       0.00000000 NULL       0.42198600      -0.11791200      -0.15782900
P        5.35089119       7.92745532       8.57907100       0.00000000 NULL      -0.10011800      -0.12220200       0.34531400
P        4.92701573       5.89224687       9.44287617       0.00000000 NULL       0.75578400      -0.04499900       0.52329700
P        2.38016590       3.43219803       1.96492979       0.00000000 NULL       0.00199200      -0.10174200       0.01785400
P        5.89647480       6.98764640       6.57385420       0.00000000 NULL      -0.11582800      -0.48799000      -0.31958400
P        2.39850453       4.84935389       6.39102330       0.00000000 NULL      -0.20921700      -0.22312100       0.24970600
P        4.09864223       5.94708956       3.78202666       0.00000000 NULL       0.17133400       0.43059700      -0.45939400
P        2.01118251       5.44732862       4.32097887       0.00000000 NULL      -0.41660600      -0.13341700      -0.30418100
16
Lattice="5.215028448081676 0.2726884614311122 0.2321031101488135 0.8202877429658619 7.444367385096663 0.668880529739157 2.7879520618320712 3.4406882038920132 9.68725486997845" Properties=species:S:1:pos:R:3:initial_magmoms:R:1:castep_labels:S:1:forces:R:3 n_minim_iter=12 energy=-83.389336136753 stress="-0.01894859814759277 0.0019582324552519506 -0.0011070394179791838 0.0019582324552519506 -0.011828219756507875 6.685054350773164e-05 -0.0011070394179791838 6.685054350773164e-05 -0.005429352722054032" free_energy=-83.389336136753 pbc="T T T"
P        6.36918171       8.82751261       5.70786767       0.00000000 NULL      -0.11739400      -0.11207800      -0.09404400
P        5.45008772       3.10643939       2.74680274       0.00000000 NULL      -0.61141400      -0.63031200       0.20211100
P        3.89194405       2.78529397       5.87324087       0.00000000 NULL       0.53502500      -0.13495500      -0.24302700
P        5.27525407       9.35420230      10.36823181       0.00000000 NULL      -0.35530300      -0.30822900       0.27292500
P        4.15841641       4.77727580       1.72182031       0.00000000 NULL       0.34640600       0.65106700       0.11626400
P        3.68016836       6.65108846       6.57534735       0.00000000 NULL      -0.10450500      -0.08563400      -0.53706000
P        3.31498855       6.94504252       8.73913051       0.00000000 NULL      -0.35506000       0.43934900       0.06437400
P        3.63008050       1.72459528       3.94073645       0.00000000 NULL       0.06899900      -0.07583800      -0.12975700