15
Lattice="5.956252031248196 1.1061307884311474e-42 -5.837171813231465e-41 -1.5706935065860074e-42 8.457812120337147 -3.728519043286773e-15 7.25677634929035e-41 -4.22890606016857 7.324680156647899" Properties=species:S:1:pos:R:3:initial_magmoms:R:1:castep_labels:S:1:forces:R:3 n_minim_iter=1 energy=-75.494478397685 stress="-9.506919957526667e-05 0.0 -0.0 0.0 0.0007857572327495101 0.0 -0.0 0.0 0.0007857572327495101" free_energy=-75.494478397685 pbc="T T T"
P        0.51513833       4.45283313       0.17811493       0.00000000 NULL       0.04570500      -0.08327700      -0.09428900
P        4.48597302       2.15674240       3.37935610       0.00000000 NULL       0.04570500      -0.04001900       0.11926400
P        2.50055568       6.07714394       3.76720841       0.00000000 NULL       0.04570500       0.12329500      -0.02497500
P        0.34553667       3.53602720       6.65726888       0.00000000 NULL       0.18989200      -0.10050200      -0.78697900
P        4.31637136      -0.23155484       0.93375634       0.00000000 NULL       0.18989200      -0.63129100       0.48052700
P        2.33095401      -3.30447108       7.05833437       0.00000000 NULL       0.18989200       0.73179500       0.30645100
P        1.33207835       6.37524010       0.70135113       0.00000000 NULL      -0.13356900       0.09806900      -0.09477900
P        5.30291304       1.64867476       1.45288472       0.00000000 NULL      -0.13356900      -0.13111600      -0.03754100
P        3.31749569       4.66280461       5.17044358       0.00000000 NULL      -0.13356900       0.03304600       0.13232100
P        2.45288146       1.48126492       3.53069039       0.00000000 NULL      -0.01235500       0.18596100       0.09639500
P        0.46746412      -1.91187010       4.27652192       0.00000000 NULL      -0.01235500      -0.00949900      -0.20924500
P        4.43829880       0.43060646       6.84214728       0.00000000 NULL      -0.01235600      -0.17646100       0.11284900
P        4.27763002       2.58424017       6.36069536       0.00000000 NULL      -0.08967300       0.11650100       0.01376500
P        2.29221268      -0.01250153       1.90631485       0.00000000 NULL      -0.08967300      -0.04632900      -0.10777500
P        0.30679533      -2.57173736       6.38234938       0.00000000 NULL      -0.08967200      -0.07017200       0.09401000
15
Lattice="5.976777712475863 2.5306097606406247e-42 -5.938042640356995e-41 4.9193649421447845e-43 8.22071607990503 -4.886568802578484e-15 6.852996158648109e-41 -4.11035803995251 7.119348962496982" Properties=species:S:1:pos:R:3:initial_magmoms:R:1:castep_labels:S:1:forces:R:3 n_minim_iter=2 energy=-75.620655308647 stress="-0.006735777391745183 0.0 0.0 0.0 -0.014629337992560582 0.0 0.0 0.0 -0.014629337992560582" free_energy=-75.620655308647 pbc="T T T"
P        0.52141108       4.32007016       0.16413453       0.00000000 NULL      -0.06593100      -0.60109800      -0.18629200
P        4.50592956       2.09246846       3.29599121       0.00000000 NULL      -0.06592900       0.13921500       0.61371200
P        2.51367032       5.91853675       3.65922253       0.00000000 NULL      -0.06592900       0.46188200      -0.42742000
P        0.36541350       3.42732291       6.39563486       0.00000000 NULL       0.00665400      -0.17234000      -1.02011200
P        4.34993198      -0.28523641       0.95338284       0.00000000 NULL       0.00665600      -0.79727300       0.65930600
P        2.35767274      -3.14208525       6.88967953       0.00000000 NULL       0.00665500       0.96961200       0.36080600
P        1.32352510       6.20587203       0.67265626       0.00000000 NULL       0.16043900       0.21484700       0.08859300
P        5.30804357       1.58996026       1.40857801       0.00000000 NULL       0.16044000      -0.03070000      -0.23036000
P        3.31578433       4.53524308       5.03811399       0.00000000 NULL       0.16044000      -0.18414800       0.14176700
P        2.46011846       1.45746613       3.44090341       0.00000000 NULL      -0.10758300       0.37284200       0.23073900
P        0.46785922      -1.85918052       4.13669458       0.00000000 NULL      -0.10758300       0.01340500      -0.43826000
P        4.45237770       0.40171563       6.66109924       0.00000000 NULL      -0.10758000      -0.38624700       0.20752100
P        4.28354692       2.52290120       6.18369942       0.00000000 NULL       0.00641900       0.17784600      -0.12957100
P        2.29128768      -0.01656703       1.84260273       0.00000000 NULL       0.00641700      -0.20113500      -0.08923300
P        0.29902844      -2.50633293       6.21239507       0.00000000 NULL       0.00641600       0.02329000       0.21880500
15
Lattice="6.198290724808516 3.465590290993485e-42 -6.193270286128603e-41 1.8808190385157645e-42 8.028015637222781 -6.976531353910799e-15 6.568313084762012e-41 -4.014007818611385 6.9524654838136435" Properties=species:S:1:pos:R:3:initial_magmoms:R:1:castep_labels:S:1:forces:R:3 n_minim_iter=3 energy=-76.105641925667 stress="0.019373760759315677 -0.0 -0.0 -0.0 -0.009868869621994437 0.0 -0.0 0.0 -0.009868927433062525" free_energy=-76.105641925667 pbc="T T T"
P        0.55330908       4.19037108       0.13323195       0.00000000 NULL      -0.56647800      -0.65072400      -0.36913100
P        4.68550290       2.03420534       3.25688171       0.00000000 NULL      -0.56647700       0.00568500       0.74811000
P        2.61940599       5.81744826       3.56235114       0.00000000 NULL      -0.56647700       0.64503900      -0.37897900
P        0.43449629       3.31841820       6.02546058       0.00000000 NULL      -0.48625100      -0.72375000      -0.78475800
P        4.56669011      -0.45501419       1.06590074       0.00000000 NULL      -0.48624800      -0.31774300       1.01916800
P        2.50059320      -2.86340280       6.81356897       0.00000000 NULL      -0.48624800       1.04149500      -0.23441100
P        1.33545426       6.08876026       0.63256026       0.00000000 NULL      -0.07066500       0.61506000      -0.26597400
P        5.46764807       1.51744175       1.36316430       0.00000000 NULL      -0.07066500      -0.53787100      -0.39967000
P        3.40155117       4.43582266       4.95674024       0.00000000 NULL      -0.07066600      -0.07718800       0.66564600
P        2.54642175       1.47671754       3.38832400       0.00000000 NULL       0.30994300       0.28373500      -0.07772300
P        0.48032485      -1.81799112       3.97942859       0.00000000 NULL       0.30994300      -0.20917800      -0.20686100
P        4.61251866       0.34127480       6.53717769       0.00000000 NULL       0.30994400      -0.07455800       0.28458400
P        4.41618989       2.49664682       6.04106863       0.00000000 NULL       0.81344900       0.27726400       0.07449300
P        2.35009298      -0.03061152       1.76977160       0.00000000 NULL       0.81344800      -0.07411900      -0.27736400
P        0.28399608      -2.46603408       6.09409005       0.00000000 NULL       0.81344900      -0.20314700       0.20287100
15
Lattice="6.093256221598779 4.0551931214577944e-42 -6.110654347864242e-41 2.683000697491645e-42 7.902096453939844 -8.770523380394314e-15 6.399013048351352e-41 -3.951048226969916 6.843416272266829" Properties=species:S:1:pos:R:3:initial_magmoms:R:1:castep_labels:S:1:forces:R:3 n_minim_iter=4 energy=-76.734541099684 stress="0.01871674861942708 0.0 -0.0 0.0 -0.005643278915866693 0.0 -0.0 0.0 -0.005643278915866693" free_energy=-76.734541099684 pbc="T T T"
P        0.55371679       4.08939997       0.09830647       0.00000000 NULL      -0.45917200      -0.61882500      -0.29302100
P        4.61588761       1.99148493       3.25273878       0.00000000 NULL      -0.45917500       0.05564800       0.68242900
P        2.58480220       5.77226097       3.49237035       0.00000000 NULL      -0.45917500       0.56317600      -0.38940600
P        0.48618422       3.22932648       5.67766229       0.00000000 NULL      -0.50604200      -0.74696500      -0.15612200
P        4.54835503      -0.64871089       1.20790637       0.00000000 NULL      -0.50604200       0.23827800       0.72495100
P        2.51726963      -2.58061439       6.80126321       0.00000000 NULL      -0.50604200       0.50868800      -0.56883000
P        1.26957372       6.02920139       0.59288607       0.00000000 NULL      -0.31311500       1.03004400      -0.64201200
P        5.33174453       1.44990272       1.32553168       0.00000000 NULL      -0.31311600      -1.07102300      -0.57103800
P        3.30065912       4.37404177       4.92499785       0.00000000 NULL      -0.31311400       0.04097700       1.21305100
P        2.50062827       1.51529387       3.36597070       0.00000000 NULL       0.11814200      -0.04775500      -0.30114800
P        0.46954286      -1.79367823       3.84814795       0.00000000 NULL       0.11814200      -0.23692300       0.19193100
P        4.53171368       0.27838556       6.47271322       0.00000000 NULL       0.11814000       0.28468000       0.10921600
P        4.31841250       2.49634221       5.94981439       0.00000000 NULL       1.16018900       0.19938700       0.41134800
P        2.28732710      -0.04652813       1.70661331       0.00000000 NULL       1.16019000       0.25654500      -0.37834800
P        0.25624169      -2.44981289       6.03040417       0.00000000 NULL       1.16019000      -0.45593000      -0.03300000
15
Lattice="6.169931721433062 4.374799476004563e-42 -6.193793650997159e-41 3.1863869329341404e-42 7.8194658458229895 -9.161551922499541e-15 6.290899869178317e-41 -3.909732922911488 6.771856066507476" Properties=species:S:1:pos:R:3:initial_magmoms:R:1:castep_labels:S:1:forces:R:3 n_minim_iter=5 energy=-77.001119677911 stress="0.027921251340901017 -0.0 0.0 -0.0 -0.0037907077504426754 0.0 0.0 0.0 -0.0037907077504426754" free_energy=-77.001119677911 pbc="T T T"
P        0.56842689       4.01886894       0.08090853       0.00000000 NULL      -0.73737600      -0.27888200      -0.25024500
P        4.68171470       1.97036808       3.25095922       0.00000000 NULL      -0.73737400      -0.07727700       0.36664200
P        2.62507080       5.73996294       3.43998765       0.00000000 NULL      -0.73737400       0.35616000      -0.11639700
P        0.51712767       3.16911394       5.51284950       0.00000000 NULL      -0.52241800      -0.51536000       0.06330800
P        4.63041549      -0.72002140       1.27089815       0.00000000 NULL      -0.52241700       0.31250700       0.41466200
P        2.57377158      -2.44909136       6.75996383       0.00000000 NULL      -0.52241700       0.20285300      -0.47797000
P        1.24769979       6.01588963       0.54873817       0.00000000 NULL      -0.37739200       0.74779900      -0.54821700
P        5.36098760       1.37701009       1.28757374       0.00000000 NULL      -0.37739200      -0.84866900      -0.37350400
P        3.30434369       4.33630023       4.93554349       0.00000000 NULL      -0.37739200       0.10087100       0.92172200
P        2.51693781       1.51657850       3.33507859       0.00000000 NULL       0.43888400      -0.07196600      -0.38296100
P        0.46029390      -1.77975861       3.79092127       0.00000000 NULL       0.43888400      -0.29567100       0.25380500
P        4.57358172       0.26318129       6.41771161       0.00000000 NULL       0.43888500       0.36763700       0.12915600
P        4.39319352       2.48879196       5.90849761       0.00000000 NULL       1.19830000       0.11566700       0.36445700
P        2.33654961      -0.03721909       1.66225021       0.00000000 NULL       1.19830000       0.25779500      -0.28239900
P        0.27990570      -2.45157169       5.97296365       0.00000000 NULL       1.19830000      -0.37346400      -0.08205700
15
Lattice="6.114596969316599 3.9018464012298496e-42 -6.128019208173825e-41 2.4738763404160735e-42 7.9383385544297616 -8.33154451249429e-15 6.444238890578878e-41 -3.9691692772148746 6.874802851977607" Properties=species:S:1:pos:R:3:initial_magmoms:R:1:castep_labels:S:1:forces:R:3 n_minim_iter=6 energy=-77.347523097916 stress="0.024481483957909618 -0.0 0.0 -0.0 0.007448969841323788 2.996693060518957e-08 0.0 2.996693060518957e-08 0.007448939874393183" free_energy=-77.347523097916 pbc="T T T"
P        0.53305194       4.09911409       0.07711636       0.00000000 NULL      -0.20361700      -0.13244900      -0.20241600
P        4.60944992       1.98639775       3.28630775       0.00000000 NULL      -0.20361700      -0.10907300       0.21591200
P        2.57125093       5.82199720       3.51137807       0.00000000 NULL      -0.20361700       0.24152200      -0.01349600
P        0.58912091       3.26329325       5.47204907       0.00000000 NULL      -0.17936900      -0.44973600       0.44911900
P        4.66551889      -0.86188160       1.31268347       0.00000000 NULL      -0.17936900       0.61382000       0.16492600
P        2.62731990      -2.40141045       6.96487248       0.00000000 NULL      -0.17936900      -0.16408100      -0.61404700
P        1.13318456       6.15786724       0.49389437       0.00000000 NULL      -0.43320900       0.82586200      -0.28493400
P        5.20958254       1.31796152       1.29498622       0.00000000 NULL      -0.43320900      -0.65969400      -0.57275100
P        3.17138355       4.43168027       5.08592159       0.00000000 NULL      -0.43320900      -0.16616900       0.85768700
P        2.50620439       1.54788452       3.37618655       0.00000000 NULL       0.04446100      -0.30431700      -0.40641000
P        0.46800540      -1.81924742       3.84620227       0.00000000 NULL       0.04446200      -0.19980400       0.46675100
P        4.54440338       0.27136410       6.52721620       0.00000000 NULL       0.04446200       0.50412000      -0.06034100
P        4.39892504       2.52928103       6.04687388       0.00000000 NULL       0.77173300       0.05495600      -0.00735300
P        2.36072605       0.00293740       1.66094429       0.00000000 NULL       0.77173300      -0.03384600      -0.04391600
P        0.32252706      -2.53221723       6.04178685       0.00000000 NULL       0.77173300      -0.02111100       0.05126900
15
Lattice="5.911276720131794 3.4970561435236664e-42 -5.916186477284252e-41 1.800112765359753e-42 8.040585711945843 -5.6271098298012355e-15 6.586525425566027e-41 -4.020292855972917 6.963351487851284" Properties=species:S:1:pos:R:3:initial_magmoms:R:1:castep_labels:S:1:forces:R:3 n_minim_iter=7 energy=-77.624993585064 stress="0.009204880609073082 -0.0 -0.0 -0.0 0.014570700598131148 -0.0 -0.0 -0.0 0.014570609955196967" free_energy=-77.624993585064 pbc="T T T"
P        0.52686674       4.14693383       0.06642132       0.00000000 NULL      -0.04851400       0.08057800      -0.12854400
P        4.46771789       2.00434930       3.33879080       0.00000000 NULL      -0.04851200      -0.15161100      -0.00551100
P        2.49729232       5.90959666       3.55813869       0.00000000 NULL      -0.04851200       0.07103300       0.13405400
P        0.65546571       3.34640123       5.47506832       0.00000000 NULL       0.11287000       0.03148300       0.71322100
P        4.59631686      -0.95194441       1.32774886       0.00000000 NULL       0.11287100       0.60193100      -0.38387300
P        2.62589129      -2.39445560       7.12388511       0.00000000 NULL       0.11287100      -0.63341000      -0.32934600
P        1.01530353       6.31128270       0.49014871       0.00000000 NULL      -0.20839100       0.55104700      -0.20462400
P        4.95615467       1.28913354       1.25254599       0.00000000 NULL      -0.20839100      -0.45273600      -0.37490800
P        2.98572910       4.46046354       5.22065610       0.00000000 NULL      -0.20839100      -0.09831300       0.57953100
P        2.38954196       1.55794548       3.40694634       0.00000000 NULL      -0.12583800      -0.36303800      -0.33467600
P        0.41911638      -1.84876271       3.91065797       0.00000000 NULL      -0.12583800      -0.10831900       0.48173800
P        4.35996753       0.29081845       6.60909799       0.00000000 NULL      -0.12583700       0.47135700      -0.14706200
P        4.26870790       2.56070612       6.10771438       0.00000000 NULL       0.26987100      -0.09556300       0.13304100
P        2.29828233      -0.01120929       1.69185775       0.00000000 NULL       0.26987100       0.16300000       0.01623800
P        0.32785676      -2.54949561       6.12713015       0.00000000 NULL       0.26987000      -0.06743900      -0.14928100
15
Lattice="5.8937215068863775 3.63730707042931e-42 -5.905819876674839e-41 2.0022287338403835e-42 8.01237192878254 -3.678751203279798e-15 6.544349250096371e-41 -4.006185964391268 6.938917634894998" Properties=species:S:1:pos:R:3:initial_magmoms:R:1:castep_labels:S:1:forces:R:3 n_minim_iter=8 energy=-77.711397008966 stress="0.001787445123258306 -0.0 0.0 -0.0 0.011105872327984522 0.0 0.0 0.0 0.011105872327984522" free_energy=-77.711397008966 pbc="T T T"
P        0.50126636       4.11506755       0.04694095       0.00000000 NULL       0.26073100       0.13567800      -0.03803900
P        4.43041403       1.98930505       3.35169413       0.00000000 NULL       0.26073700      -0.10078000      -0.09848000
P        2.46584020       5.91418651       3.54028187       0.00000000 NULL       0.26073700      -0.03489600       0.13651800
P        0.67940860       3.36191435       5.44698571       0.00000000 NULL       0.21223600      -0.10805300       0.61874100
P        4.60855628      -0.96991434       1.30392155       0.00000000 NULL       0.21223600       0.58987000      -0.21579600
P        2.64398244      -2.39199880       7.12692732       0.00000000 NULL       0.21223600      -0.48181800      -0.40294700
P        1.01019066       6.32492930       0.49208870       0.00000000 NULL      -0.17000400       0.37370000      -0.17079400
P        4.93933833       1.26988344       1.21532384       0.00000000 NULL      -0.17000100      -0.33476000      -0.23823700
P        2.97476449       4.42374637       5.23150441       0.00000000 NULL      -0.17000200      -0.03893900       0.40903000
P        2.37542450       1.55163169       3.38643854       0.00000000 NULL      -0.41415600      -0.32991200      -0.23894100
P        0.41085066      -1.84925920       3.90194591       0.00000000 NULL      -0.41415600      -0.04197300       0.40518300
P        4.33999833       0.29762873       6.58945013       0.00000000 NULL      -0.41415000       0.37188500      -0.16624000
P        4.26329573       2.54721509       6.08390315       0.00000000 NULL       0.11118700      -0.10737100      -0.08596200
P        2.29872189      -0.01097803       1.69101309       0.00000000 NULL       0.11118500      -0.02076200       0.13596800
P        0.33414805      -2.53623585       6.10291835       0.00000000 NULL       0.11118400       0.12813200      -0.05000400
15
Lattice="5.8810097436701225 3.701583144435699e-42 -5.896532817322088e-41 2.0932239502076084e-42 7.999519411398546 2.416730195755163e-15 6.525249084994429e-41 -3.9997597056992755 6.927787028337875" Properties=species:S:1:pos:R:3:initial_magmoms:R:1:castep_labels:S:1:forces:R:3 n_minim_iter=9 energy=-77.878714318967 stress="-0.00016881470237637588 -0.0 0.0 -0.0 0.0070551781704523125 -3.068242500479387e-08 0.0 -3.068242500479387e-08 0.007055208852877318" free_energy=-77.878714318967 pbc="T T T"
P        0.45193357       4.11586370       0.00187068       0.00000000 NULL       0.27887200      -0.01621600       0.00318100
P        4.37260674       1.94344871       3.36240918       0.00000000 NULL       0.27887500       0.01086400       0.01245400
P        2.41227015       5.93996792       3.56350649       0.00000000 NULL       0.27887600       0.00535300      -0.01563500
P        0.74182343       3.36656843       5.45642464       0.00000000 NULL       0.12749400       0.20099300       0.19672500
P        4.66249659      -0.95764077       1.28404093       0.00000000 NULL       0.12749400       0.06986800      -0.27243000
P        2.70216001      -2.40892645       7.11510781       0.00000000 NULL       0.12749400      -0.27086400       0.07570800
P        1.01875491       6.35764513       0.47227741       0.00000000 NULL       0.00717900       0.10254500       0.25258700
P        4.93942807       1.22994218       1.18576614       0.00000000 NULL       0.00718100       0.16747900      -0.21509900
P        2.97909149       4.41169302       5.26974280       0.00000000 NULL       0.00718100      -0.27002200      -0.03749000
P        2.29995549       1.54369130       3.34702495       0.00000000 NULL      -0.31165300      -0.18163500      -0.11127800
P        0.33961890      -1.87299592       3.91739868       0.00000000 NULL      -0.31165300      -0.00555200       0.21294000
P        4.26029207       0.32930583       6.59114974       0.00000000 NULL      -0.31165000       0.18718700      -0.10166100
P        4.29807489       2.51367482       6.02351392       0.00000000 NULL      -0.10189600       0.12034400      -0.06211300
P        2.33773831      -0.04008023       1.73912383       0.00000000 NULL      -0.10189700      -0.11396400      -0.07316500
P        0.37740172      -2.47359337       6.09293562       0.00000000 NULL      -0.10189800      -0.00638000       0.13527900
15
Lattice="5.855065138314036 3.771357367029824e-42 -5.874684283030192e-41 2.1872814081363928e-42 7.986200664831608 1.6825467838180944e-15 6.505470361961589e-41 -3.9931003324158056 6.91625265546434" Properties=species:S:1:pos:R:3:initial_magmoms:R:1:castep_labels:S:1:forces:R:3 n_minim_iter=10 energy=-77.928475666332 stress="0.0007889868494821784 -0.0 0.0 -0.0 0.005126311876009266 3.0921259189613516e-08 0.0 3.0921259189613516e-08 0.005126311876009266" free_energy=-77.928475666332 pbc="T T T"
P        0.44570237       4.10585602      -0.00743365       0.00000000 NULL       0.07163000      -0.00045300       0.00763100
P        4.34907913       1.93373539       3.36419387       0.00000000 NULL       0.07162900       0.00683500      -0.00342300
P        2.39739075       5.93971080       3.55949176       0.00000000 NULL       0.07162900      -0.00638200      -0.00420700
P        0.74878702       3.37852841       5.44832288       0.00000000 NULL       0.20154800       0.03866900       0.19624600
P        4.65216378      -0.96397771       1.26619979       0.00000000 NULL       0.20154700       0.15062000      -0.13161100
P        2.70047540      -2.41454949       7.11798196       0.00000000 NULL       0.20154800      -0.18928900      -0.06463900
P        1.02256386       6.35298047       0.48393502       0.00000000 NULL       0.06170800       0.09038500       0.17058400
P        4.92594062       1.23571092       1.17244268       0.00000000 NULL       0.06170700       0.10253600      -0.16356900
P        2.97425224       4.39061082       5.25987427       0.00000000 NULL       0.06170700      -0.19292000      -0.00701300
P        2.25463338       1.53485164       3.32578106       0.00000000 NULL      -0.08796300      -0.09764800      -0.06542700
P        0.30294500      -1.88031446       3.92414162       0.00000000 NULL      -0.08796300      -0.00783800       0.11727900
P        4.20632176       0.34546403       6.58258195       0.00000000 NULL      -0.08796400       0.10548600      -0.05185200
P        4.29998725       2.51892798       6.00610760       0.00000000 NULL      -0.24692100       0.07900200      -0.19317400
P        2.34829887      -0.05112176       1.73174324       0.00000000 NULL      -0.24692100      -0.20679600       0.02817100
P        0.39661049      -2.46780501       6.09465378       0.00000000 NULL      -0.24692000       0.12779400       0.16500400
15
Lattice="5.785591242492647 3.900703679345511e-42 -5.813619904773338e-41 2.352806076937254e-42 7.96283850391002 4.3197730833427324e-15 6.470536375991908e-41 -3.9814192519550144 6.896020430618942" Properties=species:S:1:pos:R:3:initial_magmoms:R:1:castep_labels:S:1:forces:R:3 n_minim_iter=11 energy=-78.002968409669 stress="-0.005031354058213231 -0.0 -0.0 -0.0 -0.00016037254169099074 3.1476455680272965e-08 -0.0 3.1476455680272965e-08 -0.00016049844751371185" free_energy=-78.002968409669 pbc="T T T"
P        0.39861588       4.07637522      -0.01161767       0.00000000 NULL       0.09205200      -0.05453900       0.03654600
P        4.25567671       1.93317124       3.37158478       0.00000000 NULL       0.09205000       0.05891900       0.02895900
P        2.32714629       5.93471250       3.53605264       0.00000000 NULL       0.09205000      -0.00438100      -0.06550500
P        0.79827892       3.37804317       5.45971521       0.00000000 NULL       0.07285200       0.08211700      -0.05663800
P        4.65533975      -0.94218797       1.24069163       0.00000000 NULL       0.07285200      -0.09009900      -0.04279200
P        2.72680934      -2.43585399       7.09163334       0.00000000 NULL       0.07285200       0.00798800       0.09942900
P        1.04923968       6.36613918       0.50891290       0.00000000 NULL       0.06249800      -0.18785200       0.14416200
P        4.90630051       1.23908196       1.12832574       0.00000000 NULL       0.06249400       0.21876500       0.09060700
P        2.97777009       4.33903782       5.25878112       0.00000000 NULL       0.06249500      -0.03091700      -0.23476400
P        2.17083760       1.51051868       3.26891182       0.00000000 NULL      -0.13126600      -0.03255400       0.04805400
P        0.24230718      -1.90571711       3.95341698       0.00000000 NULL      -0.13126500       0.05789300       0.00416500
P        4.09936801       0.39519964       6.56971138       0.00000000 NULL      -0.13126800      -0.02533900      -0.05222000
P        4.25062102       2.56687166       5.94641873       0.00000000 NULL      -0.09613400      -0.31462000      -0.16287800
P        2.32209060      -0.11510461       1.69983501       0.00000000 NULL      -0.09613300       0.01625500       0.35390900
P        0.39356019      -2.45176585       6.14578645       0.00000000 NULL      -0.09613100       0.29836400      -0.19103400
15
Lattice="5.778981423670324 4.0766367198010754e-42 -5.816140808872054e-41 2.617240303509884e-42 7.9257852974635945 3.2319020306404004e-15 6.414538705522725e-41 -3.9628926487318004 6.8639314125446695" Properties=species:S:1:pos:R:3:initial_magmoms:R:1:castep_labels:S:1:forces:R:3 n_minim_iter=12 energy=-78.029851108382 stress="-0.0062127299463851935 0.0 -0.0 0.0 -0.002635116615255305 -3.1807793050338645e-08 -0.0 -3.1807793050338645e-08 -0.002635116615255305" free_energy=-78.029851108382 pbc="T T T"
P        0.37846164       4.03249075      -0.00808733       0.00000000 NULL       0.10510300      -0.04617500       0.04313100
P        4.23111592       1.93964423       3.37573566       0.00000000 NULL       0.10509800       0.06043800       0.01842200
P        2.30478878       5.91654416       3.49628242       0.00000000 NULL       0.10509900      -0.01426500      -0.06155200
P        0.81038796       3.36258863       5.43416457       0.00000000 NULL       0.13981700       0.08947900      -0.00288100
P        4.66304225      -0.93806160       1.23476196       0.00000000 NULL       0.13981600      -0.04723400      -0.07605000
P        2.73671511      -2.42452583       7.05893562       0.00000000 NULL       0.13981600      -0.04224300       0.07893500
P        1.06088282       6.33410064       0.52603691       0.00000000 NULL       0.02422900      -0.11867200       0.05805200
P        4.91353710       1.25140445       1.11542090       0.00000000 NULL       0.02422600       0.10961100       0.07374900
P        2.98720996       4.30317406       5.22247293       0.00000000 NULL       0.02422800       0.00905900      -0.13180200
P        2.15070844       1.48879859       3.23737472       0.00000000 NULL      -0.18526500       0.16205300       0.27508100
P        0.22438130      -1.90364240       3.95590666       0.00000000 NULL      -0.18526500       0.15720100      -0.27788300
P        4.07703559       0.41484501       6.53458077       0.00000000 NULL      -0.18527000      -0.31925400       0.00280100
P        4.25724984       2.52941340       5.89362812       0.00000000 NULL      -0.08387900      -0.07977200      -0.15054300
P        2.33092270      -0.12356688       1.72658110       0.00000000 NULL      -0.08387700      -0.09048500       0.14435500
P        0.40459556      -2.40584532       6.10765293       0.00000000 NULL      -0.08387600       0.17025800       0.00618500
15
Lattice="5.7636526373688675 4.262790131618197e-42 -5.810511216386301e-41 2.893480772486842e-42 7.886268486765015 1.0546827254916752e-15 6.355608843448126e-41 -3.943134243382509 6.82970885060316" Properties=species:S:1:pos:R:3:initial_magmoms:R:1:castep_labels:S:1:forces:R:3 n_minim_iter=13 energy=-78.062031200158 stress="-0.009759221340855795 -0.0 0.0 -0.0 -0.005493538271421755 0.0 0.0 0.0 -0.005493473845826772" free_energy=-78.062031200158 pbc="T T T"
P        0.35778295       3.98647419      -0.00303292       0.00000000 NULL       0.12494300      -0.07007400       0.06203800
P        4.20021804       1.94727135       3.37883740       0.00000000 NULL       0.12494600       0.08876400       0.02966800
P        2.27900050       5.89565838       3.45390370       0.00000000 NULL       0.12494600      -0.01868900      -0.09170600
P        0.82802545       3.35394508       5.41640522       0.00000000 NULL       0.12726200       0.06176500      -0.12222000
P        4.67046054      -0.92936147       1.21690461       0.00000000 NULL       0.12726300      -0.13673400       0.00761700
P        2.74924300      -2.42458241       7.02610720       0.00000000 NULL       0.12726200       0.07496300       0.11460200
P        1.06090743       6.29935295       0.53628712       0.00000000 NULL       0.15197500      -0.08438300       0.08982200