45
Lattice="9.765708670937439 -0.026164330200647217 -0.027617321085841043 -0.5264037001663557 9.75154600882592 -0.027617321085467467 -0.5264037001659689 -0.5540976206926612 9.735830118968584" Properties=species:S:1:pos:R:3:initial_magmoms:R:1:castep_labels:S:1:forces:R:3 n_minim_iter=1 energy=-241.344329814356 stress="0.00017847955956735355 -0.0001841878840541208 -0.0001944175468394806 -0.0001841878840541208 0.0001595741068247899 -0.00020463641884131155 -0.0001944175468394806 -0.00020463641884131155 0.00013743141902356802" free_energy=-241.344329814356 pbc="T T T"
P        3.08723106       3.39502336       8.65999512       0.00000000 NULL       0.10160600      -0.03136000      -0.00335500
P        3.23241430       8.47150046       3.71992911       0.00000000 NULL      -0.03652400      -0.00874200       0.09954200
P        8.29478862       3.51677061       3.85765486       0.00000000 NULL      -0.00685900       0.10139000      -0.03149400
P        0.51969309       7.02836544       5.79669718       0.00000000 NULL       0.05528900      -0.04688000      -0.00947000
P        6.99251460       5.74077805       1.19075892       0.00000000 NULL      -0.04964900      -0.01230900       0.05222900
P        5.37503075       0.79608823       7.33109730       0.00000000 NULL      -0.00974900       0.05486300      -0.04732200
P        6.85540532       3.36802099       6.74531207       0.00000000 NULL      -0.08370500      -0.00728800       0.03547400
P        3.01241289       6.35649511       7.37290451       0.00000000 NULL      -0.00299000       0.03995500      -0.08193100
P        6.19383040       7.18213044       3.72731134       0.00000000 NULL       0.04005700      -0.08176100      -0.00536200
P        6.24883463       5.81110133       8.82007371       0.00000000 NULL      -0.00027600       0.03427800      -0.01573400
P        5.48335864       8.45418071       7.00500819       0.00000000 NULL       0.03424700      -0.01579000       0.00062800
P        8.16218115       6.67572870       6.27885167       0.00000000 NULL      -0.01752200      -0.00117600       0.03337800
P        8.47649234      10.00253897       4.88771935       0.00000000 NULL      -0.04693100       0.08392400       0.02668800
P        9.55517540       4.39584796       9.22857802       0.00000000 NULL       0.08621300       0.02894600      -0.04107200
P        3.90058762       8.68771698      10.25185342       0.00000000 NULL       0.02449400      -0.04574000       0.08524100
P        4.82246108       6.48214457       2.00601665       0.00000000 NULL       0.01673300      -0.12565700      -0.02121200
P        6.22659048       1.72512119       5.24899606       0.00000000 NULL      -0.12634900      -0.02173500       0.00911400
P        1.40388288       4.90081336       6.58100091       0.00000000 NULL      -0.01523500       0.01597400      -0.12661900
P        9.77589943       4.96608315       3.07680902       0.00000000 NULL      -0.02552900      -0.15302900      -0.07206000
P        4.45876693       2.53144239      10.16897940       0.00000000 NULL      -0.15151700      -0.07015400      -0.03717400
P        2.29970673       9.90671534       5.12496688       0.00000000 NULL      -0.06229900      -0.02875800      -0.15669600
P        7.67643503       8.85325192       6.66176117       0.00000000 NULL       0.04285600      -0.03680500      -0.05148800
P        8.44838237       6.21362206       8.46773419       0.00000000 NULL      -0.03895100      -0.05362200       0.03807700
P        5.77267333       7.98263634       9.20002967       0.00000000 NULL      -0.05155900       0.04026700      -0.03953200
P        7.92159224       7.48561115       2.34389400       0.00000000 NULL       0.05539800      -0.04207500       0.04594300
P        7.06997850       1.89261674       8.40911665       0.00000000 NULL      -0.04485800       0.04300500       0.05557300
P        1.52795378       8.01038323       7.60124692       0.00000000 NULL       0.04524600       0.05779100      -0.03953300
P        2.47067498       0.35446229       2.98929366       0.00000000 NULL       0.00132400      -0.01792900       0.11824500
P        0.22743015       2.85072735       2.64336605       0.00000000 NULL      -0.01797400       0.11805100       0.00678600
P        2.83533365       2.61936151       0.51534780       0.00000000 NULL       0.11881700       0.00742100      -0.01152000
P        6.27338299       0.60530925       1.99882702       0.00000000 NULL       0.01505200      -0.02055200       0.00287500
P        0.28314418       1.65595957       6.39489407       0.00000000 NULL      -0.02129900       0.00211600       0.01411000
P        1.63928051       6.36571754       0.71235004       0.00000000 NULL       0.00320900       0.01523600      -0.02036700
P        8.96564626       0.71150235       8.12125707       0.00000000 NULL      -0.00879200       0.03960700      -0.02833100
P        0.25127969       7.62399103       9.41570413       0.00000000 NULL       0.04000300      -0.02792700      -0.00827300
P        7.60110830       9.36733199       1.14895996       0.00000000 NULL      -0.02993700      -0.01033800       0.03802100
P        5.45774779       4.42103911       2.39262187       0.00000000 NULL       0.04277500       0.06624400       0.05504600
P        4.13564703       2.08260705       5.79796591       0.00000000 NULL       0.06396600       0.05247600       0.04901700
P        1.86801336       5.56074285       4.54377621       0.00000000 NULL       0.04912900       0.04535100       0.06912000
P        0.41938505       8.76892286       4.20703732       0.00000000 NULL       0.02653100       0.03605300      -0.07503400
P        8.73592521       4.15403162       1.09393183       0.00000000 NULL       0.03464900      -0.07645400       0.02425200
P        3.70105699       0.60978193       8.98328436       0.00000000 NULL      -0.07813000       0.02255900       0.03194800
P        3.04109809       5.51347282       9.40823532       0.00000000 NULL      -0.01627400      -0.01281100       0.05590800
P        5.35044553       9.21527726       3.82268881       0.00000000 NULL      -0.01196100       0.05673800      -0.01386200
P        8.92908721       3.50311328       6.01341425       0.00000000 NULL       0.05727700      -0.01335500      -0.00977200
45
Lattice="9.76062081302576 -0.020944853312815856 -0.022107989564494713 -0.5209304377244793 9.746732212470196 -0.02210798956412108 -0.5209304377240924 -0.5483364117659156 9.73132081293895" Properties=species:S:1:pos:R:3:initial_magmoms:R:1:castep_labels:S:1:forces:R:3 n_minim_iter=2 energy=-241.345435606193 stress="-0.000534849610652755 0.0001031187715307845 0.00010884579122179528 0.0001031187715307845 -0.0005242816384682106 0.00011456200521527585 0.00010884579122179528 0.00011456200521527585 -0.0005118766977035307" free_energy=-241.345435606193 pbc="T T T"
P        3.09265585       3.40015129       8.66029183       0.00000000 NULL       0.10473900      -0.01806500      -0.02568800
P        3.23725759       8.47149004       3.72561719       0.00000000 NULL      -0.02340400      -0.03125200       0.10213500
P        8.29453010       3.52218926       3.86279132       0.00000000 NULL      -0.03000600       0.10333500      -0.01942700
P        0.52662947       7.02868699       5.79882623       0.00000000 NULL       0.06074900      -0.04242300      -0.00755100
P        6.99248039       5.74252908       1.19780750       0.00000000 NULL      -0.04548000      -0.01069900       0.05800300
P        5.37678124       0.80312352       7.33153333       0.00000000 NULL      -0.00835600       0.06040400      -0.04276800
P        6.85720240       3.37411429       6.74860528       0.00000000 NULL      -0.09700700       0.00531000       0.02680600
P        3.01840614       6.35966976       7.37518611       0.00000000 NULL       0.01027200       0.03198300      -0.09501900
P        6.19669386       7.18407675       3.73357356       0.00000000 NULL       0.03141400      -0.09552300       0.00674900
P        6.25368549       5.81710216       8.82348875       0.00000000 NULL      -0.00596500       0.02620000      -0.01897400
P        5.48910309       8.45731260       7.01033697       0.00000000 NULL       0.02647200      -0.01870000      -0.00563200
P        8.16501466       6.68073129       6.28502813       0.00000000 NULL      -0.02002900      -0.00700000       0.02513700
P        8.48006513      10.00560885       4.89658441       0.00000000 NULL      -0.05035500       0.09647700       0.01870000
P        9.55805823       4.40449894       9.23277660       0.00000000 NULL       0.09893100       0.02112300      -0.04426800
P        3.90907956       8.69173006      10.25539748       0.00000000 NULL       0.01602500      -0.04959900       0.09734700
P        4.82461539       6.48252089       2.01172525       0.00000000 NULL       0.00707100      -0.10475900      -0.02013100
P        6.22685594       1.73070426       5.25147188       0.00000000 NULL      -0.10498400      -0.02019300       0.00060500
P        1.40944502       4.90325582       6.58168491       0.00000000 NULL      -0.01478900       0.00632100      -0.10569300
P        9.77514915       4.97036165       3.08382691       0.00000000 NULL      -0.01842200      -0.13296200      -0.07575200
P        4.46307825       2.53847866      10.16882898       0.00000000 NULL      -0.13184600      -0.07428100      -0.02926400
P        2.30651290       9.90631319       5.12961806       0.00000000 NULL      -0.06743100      -0.02190300      -0.13685700
P        7.68109005       8.85710218       6.66853895       0.00000000 NULL       0.04633000      -0.03561200      -0.04199500
P        8.45198911       6.22012829       8.47293923       0.00000000 NULL      -0.03793600      -0.04433400       0.04211200
P        5.77898625       7.98762130       9.20424027       0.00000000 NULL      -0.04232900       0.04422000      -0.03782600
P        7.92299024       7.48764339       2.35202469       0.00000000 NULL       0.06726500      -0.04977600       0.04219600
P        7.07193645       1.90065456       8.41105374       0.00000000 NULL      -0.05315600       0.03864500       0.06681100
P        1.53588074       8.01218968       7.60371520       0.00000000 NULL       0.04131700       0.06947300      -0.04742500
P        2.47127700       0.35734038       2.99007758       0.00000000 NULL      -0.00662400       0.00456800       0.09180700
P        0.23027362       2.85146970       2.64415595       0.00000000 NULL       0.00489700       0.09202000      -0.00141200
P        2.83592937       2.61999487       0.51826401       0.00000000 NULL       0.09164700      -0.00193100       0.00951800
P        6.27163309       0.60950822       2.00194066       0.00000000 NULL       0.00667000      -0.00957400      -0.00641700
P        0.28742728       1.65915141       6.39353192       0.00000000 NULL      -0.00990600      -0.00674000       0.00581800
P        1.64224874       6.36411759       0.71671099       0.00000000 NULL      -0.00622900       0.00636000      -0.00991000
P        8.96594084       0.72091931       8.12341450       0.00000000 NULL      -0.00610000       0.02650900      -0.01775400
P        0.26066920       7.62610337       9.41659609       0.00000000 NULL       0.02678700      -0.01747100      -0.00568600
P        7.60273688       9.36771049       1.15847967       0.00000000 NULL      -0.01882100      -0.00707600       0.02551000
P        5.45877087       4.42354088       2.39754937       0.00000000 NULL       0.04432300       0.04339300       0.05886600
P        4.13809311       2.08746527       5.79938017       0.00000000 NULL       0.04106500       0.05627000       0.04959900
P        1.87273990       5.56200972       4.54654039       0.00000000 NULL       0.05409300       0.04715600       0.04650800
P        0.42631681       8.76769961       4.21057285       0.00000000 NULL       0.03055100       0.03117900      -0.07828500
P        8.73434847       4.15719159       1.10097272       0.00000000 NULL       0.02957300      -0.07990500       0.02783400
P        3.70429359       0.61688883       8.98225379       0.00000000 NULL      -0.08131400       0.02642100       0.02690700
P        3.04773326       5.51809776       9.40965212       0.00000000 NULL      -0.00002900      -0.01691600       0.05645800
P        5.35472449       9.21632141       3.82961868       0.00000000 NULL      -0.01689200       0.05642500       0.00215200
P        8.92991079       3.50979942       6.01810894       0.00000000 NULL       0.05721700       0.00290300      -0.01384300
45
Lattice="9.768527478862902 -0.013072553392814936 -0.013798515066033018 -0.513473513533609 9.755031775850416 -0.013798515065658108 -0.5134735135332208 -0.5404871813168494 9.740056927641739" Properties=species:S:1:pos:R:3:initial_magmoms:R:1:castep_labels:S:1:forces:R:3 n_minim_iter=3 energy=-241.347801350176 stress="0.00046613950342113395 0.0004730580460450241 0.0004993312655419776 0.0004730580460450241 0.0005146878437959394 0.0005256260381312174 0.0004993312655419776 0.0005256260381312174 0.0005715341247009557" free_energy=-241.347801350176 pbc="T T T"
P        3.10645949       3.41321763       8.67448625       0.00000000 NULL       0.10709600      -0.00182500      -0.01720700
P        3.24959965       8.48488328       3.74081739       0.00000000 NULL      -0.00731300      -0.02294700       0.10577800
P        8.30727351       3.53666472       3.87660501       0.00000000 NULL      -0.02254900       0.10608100      -0.00275200
P        0.53834076       7.04014575       5.81127610       0.00000000 NULL       0.06398200      -0.03981300       0.01367700
P        7.00332417       5.75429759       1.21074470       0.00000000 NULL      -0.04303900       0.01031800       0.06250400
P        5.38797879       0.81542458       7.34364759       0.00000000 NULL       0.01251000       0.06470200      -0.03901700
P        6.87032350       3.38874490       6.76457189       0.00000000 NULL      -0.08610000      -0.02136800       0.00754400
P        3.03234537       6.37486509       7.38988137       0.00000000 NULL      -0.01692900       0.01223500      -0.08654600
P        6.21115517       7.19795690       3.74904492       0.00000000 NULL       0.01308600      -0.08554100      -0.02092900
P        6.27101232       5.83567603       8.84266585       0.00000000 NULL       0.00186500       0.03058600       0.00126300
P        5.50676496       8.47547603       7.02960135       0.00000000 NULL       0.03044900       0.00107800       0.00349400
P        8.18224947       6.69896495       6.30461035       0.00000000 NULL      -0.00048900       0.00184300       0.03060900
P        8.49873969      10.02683207       4.91797886       0.00000000 NULL      -0.03169200       0.10440600       0.04109800
P        9.57829693       4.42479650       9.25364023       0.00000000 NULL       0.10589700       0.04245900      -0.02404100
P        3.92831369       8.71141579      10.27774490       0.00000000 NULL       0.03697900      -0.02983500       0.10647400
P        4.83565871       6.49276610       2.02346102       0.00000000 NULL       0.03382600      -0.08754100      -0.00181400
P        6.23652198       1.74179909       5.26364235       0.00000000 NULL      -0.08915900      -0.00339300       0.02915600
P        1.42003011       4.91485662       6.59254883       0.00000000 NULL       0.00117900       0.03393000      -0.08751200
P        9.78951571       4.98392443       3.09892615       0.00000000 NULL      -0.01928600      -0.12932300      -0.08641200
P        4.47588725       2.55274368      10.18466478       0.00000000 NULL      -0.12816600      -0.08489100      -0.03051500
P        2.32010301       9.92139574       5.14397631       0.00000000 NULL      -0.07821000      -0.02332600      -0.13380300
P        7.70070483       8.87687894       6.68919139       0.00000000 NULL       0.05153300      -0.02047300      -0.02544900
P        8.47073509       6.23963822       8.49462642       0.00000000 NULL      -0.02309000      -0.02813400       0.04896800
P        5.79751025       8.00821206       9.22510328       0.00000000 NULL      -0.02691500       0.05022300      -0.02181700
P        7.93817092       7.50240995       2.36837185       0.00000000 NULL       0.04152300      -0.06341300       0.02565900
P        7.08590595       1.91611845       8.42783037       0.00000000 NULL      -0.06545700       0.02355800       0.03955000
P        1.55060871       8.02814579       7.61934286       0.00000000 NULL       0.02688100       0.04295700      -0.06193500
P        2.47612033       0.36225169       2.99667419       0.00000000 NULL      -0.00429700       0.00822300       0.08743500
P        0.23493037       2.85778194       2.64959327       0.00000000 NULL       0.00843700       0.08751400       0.00085400
P        2.84199477       2.62515570       0.52352433       0.00000000 NULL       0.08696900       0.00015500       0.01293500
P        6.27907419       0.61675988       2.00983992       0.00000000 NULL      -0.00621400      -0.02947800      -0.02534100
P        0.29428823       1.66661785       6.40174986       0.00000000 NULL      -0.02911500      -0.02488700      -0.00907300
P        1.64935391       6.37193294       0.72437859       0.00000000 NULL      -0.02336100      -0.00742500      -0.03080100
P        8.98068544       0.73652848       8.13954376       0.00000000 NULL      -0.02220300       0.01160500      -0.04116500
P        0.27550255       7.64137086       9.43296918       0.00000000 NULL       0.01272700      -0.03993700      -0.02377100
P        7.61722444       9.38321762       1.17493695       0.00000000 NULL      -0.04054100      -0.02431200       0.00936500
P        5.46932486       4.43472690       2.40920549       0.00000000 NULL       0.04149700       0.04073600       0.04304300
P        4.14872379       2.09850436       5.81110649       0.00000000 NULL       0.03855700       0.04063000       0.04579000
P        1.88321990       5.57311516       4.55833945       0.00000000 NULL       0.03860200       0.04353100       0.04300000
P        0.43767727       8.78007425       4.22218739       0.00000000 NULL       0.03761400       0.04008300      -0.06469600
P        8.74612490       4.16814238       1.11356182       0.00000000 NULL       0.03810000      -0.06674100       0.03606700
P        3.71462672       0.62879425       8.99523749       0.00000000 NULL      -0.06860400       0.03414600       0.03653100
P        3.06262312       5.53383520       9.42719736       0.00000000 NULL      -0.00163300      -0.02423300       0.02786000
P        5.36967849       9.23299464       3.84621965       0.00000000 NULL      -0.02412000       0.02797500      -0.00136300
P        8.94579606       3.52552370       6.03477075       0.00000000 NULL       0.02917200      -0.00013700      -0.02269500
45
Lattice="9.7698321062562 -0.02035982376106385 -0.021490471407096447 -0.5208180486701129 9.755961380973048 -0.02149047140671745 -0.5208180486697205 -0.5482181099614318 9.74056986070679" Properties=species:S:1:pos:R:3:initial_magmoms:R:1:castep_labels:S:1:forces:R:3 n_minim_iter=4 energy=-241.360022990185 stress="2.1970095446919206e-05 -5.807690753256229e-06 -6.098614037742163e-06 -5.807690753256229e-06 2.1366699005022455e-05 -6.421862131615423e-06 -6.098614037742163e-06 -6.421862131615423e-06 2.0677103071426166e-05" free_energy=-241.360022990185 pbc="T T T"
P        3.10428086       3.40241491       8.66807235       0.00000000 NULL       0.04052100       0.02239600      -0.06363300
P        3.23892272       8.47862609       3.73774589       0.00000000 NULL       0.02029300      -0.06579100       0.03812100
P        8.30157148       3.53419074       3.86547174       0.00000000 NULL      -0.06674400       0.03714900       0.01893000
P        0.53240823       7.03239333       5.80446611       0.00000000 NULL      -0.00051600      -0.02514000       0.00997000
P        6.99588583       5.74783887       1.20406435       0.00000000 NULL      -0.02508100       0.01005400      -0.00126400
P        5.38190961       0.80917294       7.33553879       0.00000000 NULL       0.01132500       0.00006500      -0.02456500
P        6.85755298       3.37781474       6.75795655       0.00000000 NULL       0.00124100       0.00298800      -0.00602000
P        3.02208377       6.36897825       7.37622992       0.00000000 NULL       0.00292100      -0.00608600       0.00106500
P        6.20580174       7.18489499       3.73777353       0.00000000 NULL      -0.00622800       0.00092200       0.00265900
P        6.26039015       5.82601668       8.83164537       0.00000000 NULL      -0.01263600       0.02108500       0.03295900
P        5.49766244       8.46507113       7.01791947       0.00000000 NULL       0.02170500       0.03353100      -0.00974300
P        8.17232453       6.68781972       6.29437005       0.00000000 NULL       0.03237600      -0.01099300       0.02283500
P        8.48549754      10.02294713       4.90452589       0.00000000 NULL      -0.00587500       0.04115900      -0.00633600
P        9.57509545       4.41208795       9.23950966       0.00000000 NULL       0.04140400      -0.00612000      -0.00409600
P        3.91578583       8.69751361      10.27313925       0.00000000 NULL      -0.00823400      -0.00630700       0.04075600
P        4.83091821       6.48040238       2.01301237       0.00000000 NULL       0.00802700      -0.02291700      -0.01492300
P        6.22441734       1.73165549       5.25771838       0.00000000 NULL      -0.02329900      -0.01527000       0.00602700
P        1.41051993       4.90962207       6.57963899       0.00000000 NULL      -0.01405700       0.00731600      -0.02369000
P        9.78315624       4.96490794       3.08198107       0.00000000 NULL       0.03789500       0.10356900      -0.05500500
P        4.45722152       2.53621883      10.17643525       0.00000000 NULL       0.10149000      -0.05725200       0.04011500
P        2.30455607       9.91423043       5.12407264       0.00000000 NULL      -0.06237500       0.03474300       0.10044600
P        7.69278793       8.86383570       6.67260268       0.00000000 NULL       0.02270000       0.00323400      -0.00645100
P        8.45811454       6.22353669       8.48516857       0.00000000 NULL       0.00207000      -0.00767900       0.02245600
P        5.78207638       7.99949307       9.21118338       0.00000000 NULL      -0.00777300       0.02233200       0.00288400
P        7.93548672       7.49177797       2.35853226       0.00000000 NULL       0.01438800      -0.03795000       0.02013100
P        7.07542543       1.90646736       8.42407847       0.00000000 NULL      -0.03863700       0.01943100       0.01349300
P        1.54150717       8.02499120       7.60819512       0.00000000 NULL       0.02138500       0.01550300      -0.03680800
P        2.47368045       0.35750724       3.00121728       0.00000000 NULL      -0.02097100       0.02794100      -0.09076200
P        0.23031714       2.86246310       2.64716275       0.00000000 NULL       0.02897600      -0.08957400      -0.02438500
P        2.84690610       2.62296454       0.51903211       0.00000000 NULL      -0.09094000      -0.02566200       0.02299500
P        6.27844299       0.60921786       2.00400314       0.00000000 NULL       0.00203800      -0.01289400       0.00048300
P        0.28678845       1.66084448       6.40041946       0.00000000 NULL      -0.01298200       0.00041500       0.00139500
P        1.64397232       6.37102486       0.71653242       0.00000000 NULL       0.00107600       0.00209500      -0.01285200
P        8.97423370       0.72513701       8.12978935       0.00000000 NULL      -0.03799300       0.01609800      -0.01613500
P        0.26445653       7.63201008       9.42542592       0.00000000 NULL       0.01802400      -0.01410900      -0.03793400
P        7.60844182       9.37630689       1.16303542       0.00000000 NULL      -0.01501400      -0.03881200       0.01520400
P        5.46766976       4.43250168       2.40470839       0.00000000 NULL       0.04802400      -0.02517500       0.05348300
P        4.14658628       2.09410922       5.80909933       0.00000000 NULL      -0.02760300       0.05088400       0.04949100
P        1.87894003       5.57123834       4.55587465       0.00000000 NULL       0.05223200       0.05076700      -0.02225100
P        0.42978856       8.77903231       4.20951594       0.00000000 NULL      -0.02089500       0.03537900      -0.03915500
P        8.74548845       4.15591767       1.10495749       0.00000000 NULL       0.03640400      -0.03807000      -0.02114000
P        3.70245067       0.62027061       8.99351290       0.00000000 NULL      -0.03988500      -0.02296700       0.03321400
P        3.05088268       5.52297956       9.42325177       0.00000000 NULL       0.01076200       0.01464500      -0.05241400
P        5.35943854       9.22971790       3.83374339       0.00000000 NULL       0.01407400      -0.05296100       0.00865400
P        8.94304819       3.51362687       6.02371791       0.00000000 NULL      -0.05361000       0.00802500       0.01179500
45
Lattice="9.764375396930046 -0.015576284363756807 -0.01644128641183029 -0.5157612559658504 9.750756885475711 -0.016441286411449752 -0.5157612559654564 -0.5428952811042591 9.735645580510104" Properties=species:S:1:pos:R:3:initial_magmoms:R:1:castep_labels:S:1:forces:R:3 n_minim_iter=5 energy=-241.370053678639 stress="-4.768643946231336e-05 2.2283887189336295e-05 2.352487848559473e-05 2.2283887189336295e-05 -4.5377116528406346e-05 2.475507855319005e-05 2.352487848559473e-05 2.475507855319005e-05 -4.2690100591290254e-05" free_energy=-241.370053678639 pbc="T T T"
P        3.11933392       3.40851825       8.65897447       0.00000000 NULL       0.02852100      -0.05965800       0.08526900
P        3.24424692       8.46871291       3.75257824       0.00000000 NULL      -0.06103900       0.08377000       0.02999400
P        8.29139857       3.54874178       3.87107495       0.00000000 NULL       0.08678200       0.03301000      -0.05496400
P        0.54162190       7.02671901       5.80690749       0.00000000 NULL      -0.01611800       0.00698800      -0.00277300
P        6.98974697       5.74979556       1.21309406       0.00000000 NULL       0.00780300      -0.00191700      -0.01587100
P        5.38417821       0.81851509       7.33000456       0.00000000 NULL      -0.00231500      -0.01626100       0.00682800
P        6.85427126       3.38326415       6.76110024       0.00000000 NULL      -0.01261400       0.03138600      -0.01569800
P        3.02769413       6.37227924       7.37340578       0.00000000 NULL       0.03199100      -0.01508200      -0.01182000
P        6.20881099       7.18176331       3.74338472       0.00000000 NULL      -0.01670200      -0.01348700       0.03049300
P        6.26264324       5.83525187       8.83745473       0.00000000 NULL      -0.02689800       0.00602600       0.01774300
P        5.50677009       8.47072497       7.02095239       0.00000000 NULL       0.00739600       0.01914900      -0.02555700
P        8.17750439       6.69034147       6.30390544       0.00000000 NULL       0.01874100      -0.02597200       0.00697600
P        8.48501766      10.03475699       4.91277078       0.00000000 NULL      -0.00390000      -0.00069200      -0.05357100
P        9.58691439       4.42031403       9.24008039       0.00000000 NULL      -0.00049000      -0.05328100      -0.00681300
P        3.92339565       8.69742345      10.28537706       0.00000000 NULL      -0.05318500      -0.00663000      -0.00358600
P        4.83426581       6.47161855       2.01526528       0.00000000 NULL      -0.00352700       0.04389900      -0.00082600
P        6.21547355       1.73374890       5.26072903       0.00000000 NULL       0.04402200      -0.00075500      -0.00131600
P        1.41306876       4.91310480       6.57098962       0.00000000 NULL      -0.00300900      -0.00368700       0.04379000
P        9.78529571       4.97418039       3.07742945       0.00000000 NULL       0.00304900      -0.03197500      -0.02432200
P        4.46637219       2.53153285      10.17879735       0.00000000 NULL      -0.03209200      -0.02436200       0.00008800
P        2.29940747       9.91610862       5.13308580       0.00000000 NULL      -0.02268600       0.00188700      -0.03324300
P        7.70157150       8.86531586       6.67521084       0.00000000 NULL      -0.00270500       0.02564200       0.02201900
P        8.45914279       6.22566331       8.49414434       0.00000000 NULL       0.02574500       0.02206100      -0.00019600
P        5.78414754       8.00839443       9.21280221       0.00000000 NULL       0.02071300      -0.00164400       0.02679500
P        7.94087165       7.48584950       2.37043581       0.00000000 NULL       0.00183100      -0.01870000       0.00012900
P        7.06922889       1.91807957       8.42978794       0.00000000 NULL      -0.01877000       0.00008200       0.00087700
P        1.55342158       8.03099436       7.60291801       0.00000000 NULL       0.00104400       0.00188700      -0.01866600
P        2.47127098       0.36331297       2.99558472       0.00000000 NULL       0.05906100      -0.07021900       0.03090400
P        0.23623868       2.85695262       2.64475281       0.00000000 NULL      -0.07314900       0.02786700       0.05697300
P        2.84109951       2.62025405       0.52452525       0.00000000 NULL       0.03158100       0.06075900      -0.06845000
P        6.27703506       0.61050173       2.00652125       0.00000000 NULL      -0.00609500       0.00565400       0.03582000
P        0.28814276       1.66343128       6.39921707       0.00000000 NULL       0.00596300       0.03608200      -0.00385500
P        1.64648634       6.36974403       0.71795038       0.00000000 NULL       0.03573000      -0.00427100       0.00757800