32
Lattice="4.917533448895593 -1.4998448155607185 0.0 -3.332451340807753 6.6957709735466935 0.0 0.0 0.0 21.073990249197298" Properties=species:S:1:pos:R:3:initial_magmoms:R:1:castep_labels:S:1:forces:R:3 n_minim_iter=1 energy=-179.107967926898 stress="0.0011289997285790923 -0.0005407556827264033 -0.0 -0.0005407556827264033 0.001100863510569386 0.0 -0.0 0.0 5.4505427158899724e-05" free_energy=-179.107967926898 pbc="T T T"
P        2.67980364      -0.18075288       9.01665361       0.00000000 NULL       0.04067600       0.01968100       0.02327700
P        1.36404520       4.62675662      19.55364873       0.00000000 NULL      -0.04067700      -0.01968100       0.02327700
P       -1.09472153       5.37667903      12.05733664       0.00000000 NULL      -0.04067600      -0.01968100      -0.02327700
P        0.22103691       0.56916953       1.52034152       0.00000000 NULL       0.04067700       0.01968100      -0.02327700
P        3.31921304       1.74276837      11.64815677       0.00000000 NULL      -0.03516300       0.04611700      -0.04883700
P        0.72463580       2.70323537      22.18515190       0.00000000 NULL       0.03516400      -0.04611700      -0.04883500
P       -1.73413093       3.45315778       9.42583348       0.00000000 NULL       0.03516300      -0.04611700       0.04883700
P        0.86044631       2.49269078      -1.11116165       0.00000000 NULL      -0.03516400       0.04611700       0.04883500
P       -0.79455640       6.55698386       1.52770454       0.00000000 NULL       0.06455600       0.00867000      -0.08912500
P       -0.07912822      -0.61113530      12.06469967       0.00000000 NULL      -0.06455800      -0.00867200      -0.08912600
P        2.37963851      -1.36105771      19.54628571       0.00000000 NULL      -0.06455600      -0.00867000       0.08912500
P        1.66421033       5.80706145       9.00929058       0.00000000 NULL       0.06455800       0.00867200       0.08912600
P        1.94967752      -2.04464499       6.37952212       0.00000000 NULL      -0.01327700       0.04500800       0.01535000
P        2.09417132       6.49064873      16.91651724       0.00000000 NULL       0.01327900      -0.04500600       0.01534900
P       -0.36459541       7.24057114      14.69446813       0.00000000 NULL       0.01327700      -0.04500800      -0.01535000
P       -0.50908921      -1.29472258       4.15747301       0.00000000 NULL      -0.01327900       0.04500600      -0.01534900
P       -1.58221081       3.40511347       1.11263585       0.00000000 NULL       0.01380900      -0.01871300      -0.06298900
P        0.70852619       2.54073510      11.64963097       0.00000000 NULL      -0.01380700       0.01871500      -0.06299100
P        3.16729292       1.79081269      19.96135440       0.00000000 NULL      -0.01380900       0.01871300       0.06298900
P        0.87655592       2.65519106       9.42435928       0.00000000 NULL       0.01380700      -0.01871500       0.06299100
P        2.33961793      -1.55227939      17.31030489       0.00000000 NULL      -0.07045500       0.03746100      -0.06112800
P       -3.21330254       7.49812795       6.77330977       0.00000000 NULL       0.07045600      -0.03745900      -0.06112800
P       -0.75453582       6.74820554       3.76368536       0.00000000 NULL       0.07045500      -0.03746100       0.06112800
P        4.79838465      -2.30220180      14.30068048       0.00000000 NULL      -0.07045600       0.03745900       0.06112800
P        0.29786599       1.36320489      14.70091118       0.00000000 NULL       0.05164200      -0.06609500      -0.03733500
P       -1.17155060       4.58264367       4.16391605       0.00000000 NULL      -0.05164100       0.06609700      -0.03733500
P        1.28721612       3.83272126       6.37307907       0.00000000 NULL      -0.05164200       0.06609500       0.03733500
P        2.75663271       0.61328248      16.91007419       0.00000000 NULL       0.05164100      -0.06609700       0.03733600
P        2.76665126       0.00297132       6.77864159       0.00000000 NULL      -0.03929700      -0.05537600      -0.10416100
P        1.27719757       4.44303243      17.31563672       0.00000000 NULL       0.03929600       0.05537400      -0.10416100
P       -1.18156915       5.19295484      14.29534866       0.00000000 NULL       0.03929700       0.05537600       0.10416100
P        0.30788454       0.75289373       3.75835353       0.00000000 NULL      -0.03929600      -0.05537400       0.10416100
32
Lattice="4.913429622964011 -1.4970652134121438 0.0 -3.3276900187989864 6.689854748560316 0.0 0.0 0.0 21.073249076784048" Properties=species:S:1:pos:R:3:initial_magmoms:R:1:castep_labels:S:1:forces:R:3 n_minim_iter=2 energy=-179.108708752153 stress="-0.0006673660259672907 -0.00014284535804786735 0.0 -0.00014284535804786735 4.257285120140132e-05 -0.0 0.0 -0.0 -0.0003486311543826985" free_energy=-179.108708752153 pbc="T T T"
P        2.67783380      -0.17966856       9.01636201       0.00000000 NULL       0.03561300       0.01010300       0.02460600
P        1.36462062       4.62392549      19.55298655       0.00000000 NULL      -0.03561300      -0.01010300       0.02460600
P       -1.09209419       5.37245809      12.05688707       0.00000000 NULL      -0.03561300      -0.01010300      -0.02460600
P        0.22111899       0.56886405       1.52026253       0.00000000 NULL       0.03561300       0.01010300      -0.02460600
P        3.31736521       1.74273880      11.64769357       0.00000000 NULL      -0.03790500       0.03727800      -0.04670900
P        0.72508920       2.70151813      22.18431811       0.00000000 NULL       0.03790400      -0.03727800      -0.04670900
P       -1.73162561       3.45005073       9.42555551       0.00000000 NULL       0.03790500      -0.03727800       0.04670900
P        0.86065040       2.49127140      -1.11106903       0.00000000 NULL      -0.03790400       0.03727800       0.04670900
P       -0.79162079       6.55206062       1.52755310       0.00000000 NULL       0.06743900      -0.00229700      -0.08975800
P       -0.07935442      -0.61073848      12.06417764       0.00000000 NULL      -0.06743800       0.00229900      -0.08975700
P        2.37736039      -1.35927109      19.54569597       0.00000000 NULL      -0.06743900       0.00229700       0.08975800
P        1.66509402       5.80352801       9.00907143       0.00000000 NULL       0.06743800      -0.00229900       0.08975700
P        1.94753034      -2.04246409       6.37931458       0.00000000 NULL      -0.00953100       0.03172000       0.01580500
P        2.09492408       6.48672101      16.91593912       0.00000000 NULL       0.00952900      -0.03172200       0.01580600
P       -0.36179073       7.23525362      14.69393450       0.00000000 NULL       0.00953100      -0.03172000      -0.01580500
P       -0.50918447      -1.29393148       4.15730996       0.00000000 NULL      -0.00952900       0.03172200      -0.01580600
P       -1.57985625       3.40212352       1.11252766       0.00000000 NULL       0.01258100      -0.00986800      -0.06158400
P        0.70888104       2.53919862      11.64915220       0.00000000 NULL      -0.01258300       0.00986500      -0.06158400
P        3.16559586       1.79066601      19.96072142       0.00000000 NULL      -0.01258100       0.00986800       0.06158400
P        0.87685856       2.65359091       9.42409688       0.00000000 NULL       0.01258300      -0.00986500       0.06158400
P        2.33729584      -1.55032041      17.30962907       0.00000000 NULL      -0.07672400       0.02905900      -0.06202500
P       -3.20827104       7.49164255       6.77300454       0.00000000 NULL       0.07672300      -0.02906100      -0.06202600
P       -0.75155623       6.74310995       3.76362000       0.00000000 NULL       0.07672400      -0.02905900       0.06202500
P        4.79401065      -2.29885302      14.30024454       0.00000000 NULL      -0.07672300       0.02906100       0.06202600
P        0.29818096       1.36226843      14.70035322       0.00000000 NULL       0.05722800      -0.05678700      -0.03867900
P       -1.16915617       4.57905371       4.16372868       0.00000000 NULL      -0.05723000       0.05678500      -0.03867800
P        1.28755864       3.83052110       6.37289586       0.00000000 NULL      -0.05722800       0.05678700       0.03867900
P        2.75489577       0.61373582      16.90952040       0.00000000 NULL       0.05723000      -0.05678500       0.03867800
P        2.76459460       0.00387321       6.77828900       0.00000000 NULL      -0.04410800      -0.04204600      -0.10580400
P        1.27785981       4.44038372      17.31491353       0.00000000 NULL       0.04410900       0.04204800      -0.10580400
P       -1.17885500       5.18891632      14.29496008       0.00000000 NULL       0.04410800       0.04204600       0.10580400
P        0.30787979       0.75240581       3.75833554       0.00000000 NULL      -0.04410900      -0.04204800       0.10580400
32
Lattice="4.916400750645705 -1.4909731283234937 0.0 -3.3246058680234207 6.679371228322102 0.0 0.0 0.0 21.093162335758254" Properties=species:S:1:pos:R:3:initial_magmoms:R:1:castep_labels:S:1:forces:R:3 n_minim_iter=3 energy=-179.109829354372 stress="0.00024330464156269125 9.540725024867292e-05 0.0 9.540725024867292e-05 -0.0005905863523234996 -0.0 0.0 -0.0 0.0011349738989215234" free_energy=-179.109829354372 pbc="T T T"
P        2.68025991      -0.17698144       9.02503749       0.00000000 NULL       0.04587000       0.00135000       0.00545500
P        1.36973535       4.61989298      19.57161866       0.00000000 NULL      -0.04587000      -0.00135000       0.00545500
P       -1.08846502       5.36537954      12.06812485       0.00000000 NULL      -0.04587000      -0.00135000      -0.00545500
P        0.22205953       0.56850512       1.52154368       0.00000000 NULL       0.04587000       0.00135000      -0.00545500
P        3.32160588       1.74401884      11.65839788       0.00000000 NULL      -0.03140600       0.02705600      -0.05176200
P        0.72838938       2.69889270      22.20497905       0.00000000 NULL       0.03140600      -0.02705600      -0.05175900
P       -1.72981100       3.44437926       9.43476445       0.00000000 NULL       0.03140600      -0.02705600       0.05176200
P        0.86340551       2.48950540      -1.11181672       0.00000000 NULL      -0.03140600       0.02705600       0.05175900
P       -0.78600639       6.54401325       1.52842310       0.00000000 NULL       0.07102800      -0.00617600      -0.06715900
P       -0.08039910      -0.61012859      12.07500426       0.00000000 NULL      -0.07102700       0.00617700      -0.06715900
P        2.37780128      -1.35561515      19.56473924       0.00000000 NULL      -0.07102800       0.00617600       0.06715900
P        1.67219398       5.79852669       9.01815807       0.00000000 NULL       0.07102700      -0.00617700       0.06715900
P        1.94734052      -2.03820356       6.38544319       0.00000000 NULL      -0.00249000       0.02164000      -0.00089400
P        2.10265474       6.48111510      16.93202436       0.00000000 NULL       0.00248900      -0.02164100      -0.00089400
P       -0.35554564       7.22660166      14.70771914       0.00000000 NULL       0.00249000      -0.02164000       0.00089400
P       -0.51085985      -1.29271700       4.16113798       0.00000000 NULL      -0.00248900       0.02164100       0.00089400
P       -1.57810685       3.39681672       1.11318264       0.00000000 NULL       0.00533600      -0.00450000      -0.06986700
P        0.71170136       2.53706794      11.65976380       0.00000000 NULL      -0.00533700       0.00449900      -0.06986900
P        3.16990174       1.79158138      19.97997970       0.00000000 NULL      -0.00533600       0.00450000       0.06986700
P        0.88009352       2.65133016       9.43339853       0.00000000 NULL       0.00533700      -0.00449900       0.06986900
P        2.33747617      -1.54628602      17.32559031       0.00000000 NULL      -0.06412100       0.01963100      -0.04368200
P       -3.20388166       7.48017068       6.77900914       0.00000000 NULL       0.06412000      -0.01963300      -0.04368200
P       -0.74568128       6.73468411       3.76757203       0.00000000 NULL       0.06412100      -0.01963200       0.04368200
P        4.79567654      -2.29177258      14.31415320       0.00000000 NULL      -0.06412000       0.01963300       0.04368200
P        0.30002262       1.36063447      14.71399891       0.00000000 NULL       0.04909600      -0.04637100      -0.02387100
P       -1.16642812       4.57325019       4.16741774       0.00000000 NULL      -0.04909700       0.04636900      -0.02387000
P        1.29177226       3.82776363       6.37916342       0.00000000 NULL      -0.04909600       0.04637100       0.02387100
P        2.75822300       0.61514790      16.92574459       0.00000000 NULL       0.04909700      -0.04636900       0.02387000
P        2.76675121       0.00606398       6.78401956       0.00000000 NULL      -0.04674500      -0.03295000      -0.08743200
P        1.28324405       4.43684755      17.33060073       0.00000000 NULL       0.04674600       0.03295100      -0.08743300
P       -1.17495632       5.18233412      14.30914278       0.00000000 NULL       0.04674500       0.03294900       0.08743200
P        0.30855083       0.75155054       3.76256161       0.00000000 NULL      -0.04674600      -0.03295100       0.08743300
32
Lattice="4.91994596010249 -1.4841580452839833 0.0 -3.3192941387517054 6.674239103487869 0.0 0.0 0.0 21.05496193333679" Properties=species:S:1:pos:R:3:initial_magmoms:R:1:castep_labels:S:1:forces:R:3 n_minim_iter=4 energy=-179.112043964638 stress="0.0010713763075162542 0.0006531719851922475 0.0 0.0006531719851922475 -0.0006641988569722749 -0.0 0.0 -0.0 -0.0010210747134085977" free_energy=-179.112043964638 pbc="T T T"
P        2.68376049      -0.17316566       9.00902024       0.00000000 NULL       0.05495200      -0.00082500       0.01990100
P        1.37686431       4.62116769      19.53650121       0.00000000 NULL      -0.05495200       0.00082500       0.01990100
P       -1.08310867       5.36324671      12.04594169       0.00000000 NULL      -0.05495200       0.00082500      -0.01990100
P        0.22378751       0.56891336       1.51846073       0.00000000 NULL       0.05495200      -0.00082500      -0.01990100
P        3.32711303       1.74899497      11.63642205       0.00000000 NULL      -0.02015800       0.02140100      -0.01055000
P        0.73351178       2.69900706      22.16390301       0.00000000 NULL       0.02015800      -0.02140200      -0.01055100
P       -1.72646120       3.44108608       9.41853989       0.00000000 NULL       0.02015800      -0.02140200       0.01055000
P        0.86714005       2.49107399      -1.10894108       0.00000000 NULL      -0.02015800       0.02140200       0.01055100
P       -0.77679170       6.54231331       1.52418915       0.00000000 NULL       0.07754400      -0.00413300      -0.07284300
P       -0.08252945      -0.61015324      12.05167012       0.00000000 NULL      -0.07754400       0.00413300      -0.07284300
P        2.37744353      -1.35223226      19.53077278       0.00000000 NULL      -0.07754400       0.00413300       0.07284300
P        1.68318128       5.80023429       9.00329181       0.00000000 NULL       0.07754400      -0.00413300       0.07284300
P        1.94663783      -2.03482866       6.37406611       0.00000000 NULL       0.00534400       0.01307300       0.01833900
P        2.11398697       6.48283069      16.90154708       0.00000000 NULL      -0.00534400      -0.01307400       0.01833900
P       -0.34598601       7.22490972      14.68089582       0.00000000 NULL      -0.00534400      -0.01307300      -0.01833900
P       -0.51333515      -1.29274964       4.15341485       0.00000000 NULL       0.00534400       0.01307400      -0.01833900
P       -1.57509148       3.39419104       1.11002485       0.00000000 NULL      -0.00391300      -0.00688400      -0.02935500
P        0.71577033       2.53796904      11.63750582       0.00000000 NULL       0.00391300       0.00688300      -0.02935500
P        3.17574331       1.79589002      19.94493708       0.00000000 NULL       0.00391300       0.00688400       0.02935500
P        0.88488150       2.65211201       9.41745611       0.00000000 NULL      -0.00391300      -0.00688300       0.02935500
P        2.33674846      -1.54248707      17.29321637       0.00000000 NULL      -0.04966400       0.01393400      -0.04952500
P       -3.19606961       7.47464714       6.76573540       0.00000000 NULL       0.04966400      -0.01393500      -0.04952500
P       -0.73609663       6.73256812       3.76174557       0.00000000 NULL       0.04966400      -0.01393400       0.04952500
P        4.79672144      -2.28456609      14.28922653       0.00000000 NULL      -0.04966400       0.01393500       0.04952500
P        0.30316579       1.35994615      14.68675051       0.00000000 NULL       0.03465900      -0.03754300      -0.04578100
P       -1.16248695       4.57221393       4.15926955       0.00000000 NULL      -0.03465900       0.03754300      -0.04578100
P        1.29748603       3.83013491       6.36821142       0.00000000 NULL      -0.03465900       0.03754300       0.04578100
P        2.76313877       0.61786712      16.89569239       0.00000000 NULL       0.03465900      -0.03754300       0.04578100
P        2.76910786       0.00908817       6.76996242       0.00000000 NULL      -0.05153200      -0.02146900      -0.09092200
P        1.29151694       4.43891386      17.29744339       0.00000000 NULL       0.05153200       0.02146900      -0.09092300
P       -1.16845604       5.18099289      14.28499951       0.00000000 NULL       0.05153200       0.02146900       0.09092300
P        0.30913488       0.75116719       3.75751855       0.00000000 NULL      -0.05153200      -0.02146900       0.09092300
32
Lattice="4.911445014555374 -1.487057166985909 0.0 -3.3112742757689273 6.694588416770543 0.0 0.0 0.0 21.06052492972941" Properties=species:S:1:pos:R:3:initial_magmoms:R:1:castep_labels:S:1:forces:R:3 n_minim_iter=5 energy=-179.117894673188 stress="-0.00055171039663538 0.0016115996889186548 -0.0 0.0016115996889186548 0.0018819433881842812 -0.0 -0.0 -0.0 0.0006451426193947071" free_energy=-179.117894673188 pbc="T T T"
P        2.68173032      -0.17225933       9.01245265       0.00000000 NULL       0.05366700       0.02770000      -0.01308400
P        1.37416292       4.63626199      19.54271511       0.00000000 NULL      -0.05366700      -0.02770000      -0.01308400
P       -1.08155958       5.37979058      12.04807228       0.00000000 NULL      -0.05366700      -0.02770000       0.01308400
P        0.22600782       0.57126925       1.51780982       0.00000000 NULL       0.05366700       0.02770000       0.01308400
P        3.32061051       1.75782853      11.63708007       0.00000000 NULL      -0.02189900       0.04537500       0.03329200
P        0.73528274       2.70617414      22.16734253       0.00000000 NULL       0.02190000      -0.04537500       0.03329100
P       -1.72043977       3.44970272       9.42344486       0.00000000 NULL       0.02189900      -0.04537500      -0.03329200
P        0.86488800       2.50135711      -1.10681760       0.00000000 NULL      -0.02190000       0.04537500      -0.03329100
P       -0.76900087       6.56311282       1.52002395       0.00000000 NULL       0.06560400       0.03029800      -0.00768200
P       -0.08655090      -0.61205299      12.05028642       0.00000000 NULL      -0.06560400      -0.03029700      -0.00768200
P        2.36917161      -1.35558158      19.54050098       0.00000000 NULL      -0.06560400      -0.03029800       0.00768200
P        1.68672164       5.81958424       9.01023851       0.00000000 NULL       0.06560400       0.03029700       0.00768200
P        1.94236268      -2.03909699       6.37640968       0.00000000 NULL       0.01332200       0.02084200       0.00366200
P        2.11353057       6.50309965      16.90667214       0.00000000 NULL      -0.01332200      -0.02084300       0.00366200
P       -0.34219194       7.24662824      14.68411525       0.00000000 NULL      -0.01332200      -0.02084200      -0.00366200
P       -0.51335983      -1.29556841       4.15385279       0.00000000 NULL       0.01332200       0.02084300      -0.00366200
P       -1.57072416       3.40407286       1.10699004       0.00000000 NULL      -0.01391300      -0.03379200       0.03177900
P        0.71517239       2.54698697      11.63725251       0.00000000 NULL       0.01391200       0.03379100       0.03177900
P        3.17089490       1.80345839      19.95353489       0.00000000 NULL       0.01391300       0.03379200      -0.03177900
P        0.88499835       2.66054428       9.42327242       0.00000000 NULL      -0.01391300      -0.03379100      -0.03177900
P        2.32851861      -1.54516562      17.29467910       0.00000000 NULL      -0.03944000       0.03823600      -0.00360500
P       -3.18407038       7.49622545       6.76441664       0.00000000 NULL       0.03943900      -0.03823700      -0.00360500
P       -0.72834787       6.75269687       3.76584583       0.00000000 NULL       0.03944000      -0.03823600       0.00360500
P        4.78424112      -2.28869421      14.29610829       0.00000000 NULL      -0.03943900       0.03823700       0.00360500
P        0.30608749       1.36153793      14.68862590       0.00000000 NULL       0.03834300      -0.05731100      -0.02698100
P       -1.16163926       4.58952190       4.15836344       0.00000000 NULL      -0.03834300       0.05731000      -0.02698100
P        1.29408325       3.84599332       6.37189903       0.00000000 NULL      -0.03834300       0.05731100       0.02698100
P        2.76181000       0.61800934      16.90216149       0.00000000 NULL       0.03834300      -0.05731000       0.02698100
P        2.76210794       0.00803110       6.76620871       0.00000000 NULL      -0.03481900      -0.02864300      -0.02984800
P        1.29378530       4.45597156      17.29647117       0.00000000 NULL       0.03482000       0.02864400      -0.02984800
P       -1.16193720       5.19950014      14.29431622       0.00000000 NULL       0.03481900       0.02864300       0.02984800
P        0.30638544       0.75155968       3.76405376       0.00000000 NULL      -0.03482000      -0.02864400       0.02984800
32
Lattice="4.912404604819166 -1.4960519130753145 0.0 -3.3228657880108687 6.698870792121214 0.0 0.0 0.0 21.04731967797067" Properties=species:S:1:pos:R:3:initial_magmoms:R:1:castep_labels:S:1:forces:R:3 n_minim_iter=6 energy=-179.121756165305 stress="-8.745105011438131e-05 -8.219582364893132e-05 0.0 -8.219582364893132e-05 1.3724814749573263e-05 -0.0 0.0 -0.0 -2.290870566006838e-05" free_energy=-179.121756165305 pbc="T T T"
P        2.68270560      -0.17703016       9.00746981       0.00000000 NULL       0.03722100       0.00121700      -0.02681500
P        1.36303552       4.63182308      19.53112965       0.00000000 NULL      -0.03722100      -0.00121700      -0.02681400
P       -1.09316678       5.37984904      12.03984987       0.00000000 NULL      -0.03722100      -0.00121700       0.02681500
P        0.22650329       0.57099579       1.51619003       0.00000000 NULL       0.03722100       0.00121700       0.02681400
P        3.31466098       1.75222559      11.62825953       0.00000000 NULL      -0.03354500       0.01679200       0.06531100
P        0.73108014       2.70256733      22.15191936       0.00000000 NULL       0.03354400      -0.01679200       0.06530900
P       -1.72512216       3.45059329       9.41906015       0.00000000 NULL       0.03354500      -0.01679200      -0.06531100
P        0.85845868       2.50025154      -1.10459969       0.00000000 NULL      -0.03354400       0.01679200      -0.06530900
P       -0.77858136       6.56253009       1.51602569       0.00000000 NULL       0.02935300       0.00866500       0.02549800
P       -0.08808213      -0.61168526      12.03968552       0.00000000 NULL      -0.02935200      -0.00866400       0.02549900
P        2.36812018      -1.35971121      19.53129399       0.00000000 NULL      -0.02935300      -0.00866500      -0.02549800
P        1.67762094       5.81450413       9.00763415       0.00000000 NULL       0.02935200       0.00866400      -0.02549800
P        1.94534366      -2.04111102       6.37285766       0.00000000 NULL      -0.01211700      -0.01546900       0.00064300
P        2.10039746       6.49590394      16.89651749       0.00000000 NULL       0.01211600       0.01546900       0.00064300
P       -0.35580484       7.24392990      14.67446202       0.00000000 NULL       0.01211700       0.01546900      -0.00064300
P       -0.51085865      -1.29308506       4.15080218       0.00000000 NULL      -0.01211600      -0.01546900      -0.00064300
P       -1.57638244       3.40561699       1.10416384       0.00000000 NULL       0.00657900      -0.01072900       0.07959700
P        0.70971896       2.54522784      11.62782368       0.00000000 NULL      -0.00658100       0.01072900       0.07960000
P        3.16592126       1.79720188      19.94315584       0.00000000 NULL      -0.00657900       0.01072900      -0.07959700
P        0.87981986       2.65759103       9.41949600       0.00000000 NULL       0.00658100      -0.01072900      -0.07960000
P        2.32794368      -1.54813921      17.28176791       0.00000000 NULL      -0.04513000       0.00808700       0.02018800
P       -3.19460717       7.49898405       6.75810807       0.00000000 NULL       0.04512900      -0.00808700       0.02018800
P       -0.73840486       6.75095809       3.76555176       0.00000000 NULL       0.04513000      -0.00808700      -0.02018800
P        4.78414598      -2.29616517      14.28921160       0.00000000 NULL      -0.04512900       0.00808700      -0.02018800
P        0.30533680       1.35844362      14.67802463       0.00000000 NULL       0.04811700      -0.02242700      -0.02270200
P       -1.17200028       4.59240122       4.15436479       0.00000000 NULL      -0.04811800       0.02242700      -0.02270100
P        1.28420202       3.84437526       6.36929505       0.00000000 NULL      -0.04811700       0.02242700       0.02270100
P        2.76153910       0.61041766      16.89295489       0.00000000 NULL       0.04811800      -0.02242700       0.02270100
P        2.75925250       0.00121341       6.75822471       0.00000000 NULL       0.00488300       0.01125400       0.00409600
P        1.28648862       4.45357951      17.28188455       0.00000000 NULL      -0.00488200      -0.01125400       0.00409600
P       -1.16971368       5.20160547      14.28909497       0.00000000 NULL      -0.00488300      -0.01125400      -0.00409600
P        0.30305019       0.74923937       3.76543513       0.00000000 NULL       0.00488300       0.01125400      -0.00409600
32
Lattice="4.908723892085394 -1.4987282003953648 0.0 -3.3202109401718682 6.711344958598663 0.0 0.0 0.0 21.0146227361541" Properties=species:S:1:pos:R:3:initial_magmoms:R:1:castep_labels:S:1:forces:R:3 n_minim_iter=7 energy=-179.12832800912 stress="-0.0002206595585406907 -4.918858691812297e-05 0.0 -4.918858691812297e-05 2.878833935159601e-05 -0.0 0.0 -0.0 -2.674661315644736e-05" free_energy=-179.12832800912 pbc="T T T"
P        2.68914757      -0.17660614       8.99062199       0.00000000 NULL       0.00347700      -0.00647700      -0.00613900
P        1.35372733       4.63985879      19.49793336       0.00000000 NULL      -0.00347700       0.00647800      -0.00613900
P       -1.10063462       5.38922289      12.02400075       0.00000000 NULL      -0.00347700       0.00647700       0.00613900
P        0.23478563       0.57275796       1.51668938       0.00000000 NULL       0.00347600      -0.00647800       0.00613900
P        3.30532885       1.76021942      11.61719737       0.00000000 NULL      -0.02691600      -0.00973500      -0.02176600
P        0.73754605       2.70303323      22.12450874       0.00000000 NULL       0.02691600       0.00973500      -0.02176800
P       -1.71681589       3.45239733       9.39742536       0.00000000 NULL       0.02691600       0.00973500       0.02176600
P        0.85096690       2.50958352      -1.10988601       0.00000000 NULL      -0.02691600      -0.00973500       0.02176800
P       -0.76877674       6.57605490       1.51234628       0.00000000 NULL       0.00755500      -0.01071300       0.02602800
P       -0.09707225      -0.61407405      12.01965765       0.00000000 NULL      -0.00755400       0.01071500       0.02602900
P        2.35728970      -1.36343815      19.50227646       0.00000000 NULL      -0.00755500       0.01071300      -0.02602800
P        1.68558520       5.82669080       8.99496509       0.00000000 NULL       0.00755400      -0.01071500      -0.02602900
P        1.94188534      -2.04541512       6.36374400       0.00000000 NULL      -0.00039300       0.00495600      -0.01627300
P        2.10098956       6.50866777      16.87105537       0.00000000 NULL       0.00039200      -0.00495800      -0.01627300
P       -0.35337238       7.25803187      14.65087874       0.00000000 NULL       0.00039300      -0.00495600       0.01627300
P       -0.51247661      -1.29605102       4.14356737       0.00000000 NULL      -0.00039200       0.00495800       0.01627300
P       -1.57381999       3.40971740       1.11043699       0.00000000 NULL       0.01001200       0.01156900      -0.03000800
P        0.70797099       2.55226345      11.61774835       0.00000000 NULL      -0.01001300      -0.01157100      -0.03000600
P        3.16233294       1.80289935      19.90418575       0.00000000 NULL      -0.01001200      -0.01156900       0.03000800
P        0.88054196       2.66035330       9.39687438       0.00000000 NULL       0.01001300       0.01157100       0.03000600