12
Lattice="5.193541211080812 0.6854916410530532 3.652388792395006e-07 0.623278546657014 5.801596273861821 -2.6591699524270193e-07 -2.9084104904509336 -3.2435435299294473 7.894037856604774" Properties=species:S:1:pos:R:3:initial_magmoms:R:1:castep_labels:S:1:forces:R:3 n_minim_iter=1 energy=-64.539457615528 stress="0.009696899236913479 0.002751649861747141 0.0 0.002751649861747141 0.0029230495733815203 -0.0 0.0 -0.0 0.012374683883295915" free_energy=-64.539457615528 pbc="T T T"
P       -1.38593210       2.01661807       6.71091584       0.00000000 NULL      -0.14197500      -0.18298500       0.57274600
P        3.49597027      -0.19868872       1.18312212       0.00000000 NULL      -0.14197600      -0.18298400      -0.57274500
P        1.58764678       2.81956208       6.67751011       0.00000000 NULL      -0.14353000      -0.07480200       0.12145900
P        1.27600793      -0.08123635       1.21652786       0.00000000 NULL      -0.14353300      -0.07479800      -0.12145700
P        0.13983233       1.67482241       3.60634459       0.00000000 NULL       0.50482900       0.35956400       0.10742400
P        0.45147155       4.57562058       4.28769302       0.00000000 NULL       0.50482600       0.35956800      -0.10742500
P        1.62411188       0.03626010       3.60934002       0.00000000 NULL      -0.41255700      -0.35789400       0.20457600
P        1.93575110       2.93705828       4.28469800       0.00000000 NULL      -0.41255400      -0.35789800      -0.20457700
P        1.27822713       3.05168944      -0.94679452       0.00000000 NULL       0.89170400      -0.54506500      -0.29856800
P        0.96658710       0.15089183       8.84083242       0.00000000 NULL       0.89170100      -0.54506400       0.29856700
P        0.87798999       2.10793452       1.40400099       0.00000000 NULL      -0.69846600       0.80117700      -0.44016400
P        0.56635032      -0.79286334       6.49003696       0.00000000 NULL      -0.69846800       0.80118000       0.44016500
12
Lattice="5.133021255894721 0.6666302690036028 3.615716620318072e-07 0.5978081223173178 5.779910878808142 -2.6671584372052556e-07 -2.865415291930895 -3.2232701524995866 7.7810044051066525" Properties=species:S:1:pos:R:3:initial_magmoms:R:1:castep_labels:S:1:forces:R:3 n_minim_iter=2 energy=-64.596648808747 stress="-0.005918617975252357 0.0030353575820439437 -0.0 0.0030353575820439437 -0.007404551307981001 0.0 -0.0 0.0 -0.003675930875323838" free_energy=-64.596648808747 pbc="T T T"
P       -1.37747901       2.01327791       6.61762935       0.00000000 NULL       0.05706200      -0.11765500       0.47695400
P        3.45663861      -0.21004756       1.16337516       0.00000000 NULL       0.05705900      -0.11765500      -0.47695300
P        1.56013291       2.80456484       6.58249098       0.00000000 NULL      -0.26556400      -0.10047400       0.18575000
P        1.26122927      -0.08539089       1.19851354       0.00000000 NULL      -0.26556100      -0.10047600      -0.18575000
P        0.13540519       1.67046299       3.55523222       0.00000000 NULL       0.19006900       0.32872300       0.24610000
P        0.43430920       4.56041847       4.22577193       0.00000000 NULL       0.19007000       0.32872200      -0.24610000
P        1.60373134       0.02920030       3.55866073       0.00000000 NULL      -0.12841500      -0.31917300       0.32535800
P        1.90263534       2.91915578       4.22234383       0.00000000 NULL      -0.12841600      -0.31917100      -0.32535900
P        1.25854511       3.03454311      -0.93470028       0.00000000 NULL       0.69338700      -0.61669000      -0.34228700
P        0.95964030       0.14458819       8.71570473       0.00000000 NULL       0.69338600      -0.61669000       0.34228700
P        0.85797182       2.10196100       1.38174084       0.00000000 NULL      -0.54653700       0.82527000      -0.55361100
P        0.55906737      -0.78799417       6.39926364       0.00000000 NULL      -0.54653900       0.82526900       0.55361000
12
Lattice="5.1319128291629275 0.6170537841614092 3.641707680034907e-07 0.5320832992639501 5.857272826946661 -2.759975977915243e-07 -2.8319986621500384 -3.237162887564912 7.717908636962577" Properties=species:S:1:pos:R:3:initial_magmoms:R:1:castep_labels:S:1:forces:R:3 n_minim_iter=3 energy=-64.664478005612 stress="-0.0016211626927114078 -0.005063436851869 -4.3580813804441194e-08 -0.005063436851869 0.01134534967689637 0.0 -4.3580813804441194e-08 0.0 -0.007055951659008052" free_energy=-64.664478005612 pbc="T T T"
P       -1.40258664       2.05613818       6.57235406       0.00000000 NULL      -0.00232900      -0.25612800       0.40562200
P        3.46328496      -0.25544474       1.14555468       0.00000000 NULL      -0.00232900      -0.25612800      -0.40562000
P        1.52618979       2.82593296       6.53178695       0.00000000 NULL      -0.19280400       0.12810000       0.15652100
P        1.26014855      -0.10270375       1.18612180       0.00000000 NULL      -0.19280100       0.12809900      -0.15652200
P        0.12129288       1.69897788       3.52963223       0.00000000 NULL       0.31892200      -0.04063600       0.27677700
P        0.38733448       4.62761433       4.18827614       0.00000000 NULL       0.31892300      -0.04063800      -0.27677700
P        1.60172009       0.00547099       3.53443816       0.00000000 NULL      -0.25505500       0.08203700       0.30219300
P        1.86776169       2.93410744       4.18347063       0.00000000 NULL      -0.25505700       0.08203900      -0.30219300
P        1.23813331       3.05392390      -0.93248300       0.00000000 NULL       0.55648500      -0.39926000      -0.34946500
P        0.97209092       0.12528801       8.65039168       0.00000000 NULL       0.55648600      -0.39926000       0.34946500
P        0.82465784       2.13682515       1.36211318       0.00000000 NULL      -0.42522100       0.48588900      -0.59174200
P        0.55861580      -0.79181100       6.35579553       0.00000000 NULL      -0.42522100       0.48588800       0.59174200
12
Lattice="5.1872453298529475 0.5770645498922111 3.7062334400504776e-07 0.5134808169966488 5.710077635070599 -2.6946695765288036e-07 -2.850363680442274 -3.1435706681442714 7.83512067665924" Properties=species:S:1:pos:R:3:initial_magmoms:R:1:castep_labels:S:1:forces:R:3 n_minim_iter=4 energy=-64.880595278014 stress="-0.01143466855159561 -0.0065429008665351856 -4.3525324409510034e-08 -0.0065429008665351856 -0.0028422472092654145 0.0 -4.3525324409510034e-08 0.0 0.005341950115427985" free_energy=-64.880595278014 pbc="T T T"
P       -1.42754644       1.99841970       6.70811805       0.00000000 NULL      -0.29829600       0.07386200       0.28079800
P        3.50295891      -0.27955487       1.12700274       0.00000000 NULL      -0.29829700       0.07386300      -0.28079700
P        1.51535058       2.74790765       6.64307266       0.00000000 NULL       0.01126300       0.04616800       0.04929100
P        1.25861060      -0.10713146       1.19204813       0.00000000 NULL       0.01126600       0.04616500      -0.04929200
P        0.13890083       1.67193639       3.60000171       0.00000000 NULL      -0.17445300      -0.13671100      -0.12993600
P        0.39564119       4.52697524       4.23511872       0.00000000 NULL      -0.17445300      -0.13671300       0.12993600
P        1.60169960      -0.01661372       3.60983915       0.00000000 NULL       0.29265400       0.28419000      -0.24444200
P        1.85843996       2.83842513       4.22528168       0.00000000 NULL       0.29265300       0.28419200       0.24444200
P        1.29350649       2.93120761      -0.97182848       0.00000000 NULL      -0.18698800      -0.43007900      -0.15586900
P        1.03676533       0.07616932       8.80694922       0.00000000 NULL      -0.18699200      -0.43007800       0.15586700
P        0.78214253       2.13474882       1.34219266       0.00000000 NULL       0.35582400       0.16257100      -0.32306700
P        0.52540173      -0.72028972       6.49292809       0.00000000 NULL       0.35581900       0.16257000       0.32306700
12
Lattice="5.293476452032285 0.6287242750851862 3.760556798964414e-07 0.5858282570076679 5.6957536637842425 -2.6308615576016076e-07 -2.9396529533388014 -3.16223855082887 7.7292959950281235" Properties=species:S:1:pos:R:3:initial_magmoms:R:1:castep_labels:S:1:forces:R:3 n_minim_iter=5 energy=-64.936663152717 stress="-0.0012237504349099867 -0.001036126078205115 -4.344161998260514e-08 -0.001036126078205115 -0.003490273515882427 -0.0 -4.344161998260514e-08 -0.0 -0.005125372650407701" free_energy=-64.936663152717 pbc="T T T"
P       -1.43630165       1.97366836       6.62976192       0.00000000 NULL      -0.53284700       0.03112300       0.10094100
P        3.56426110      -0.24548449       1.09953419       0.00000000 NULL      -0.53285000       0.03112400      -0.10093900
P        1.57034592       2.75414078       6.55692350       0.00000000 NULL       0.23514600       0.11002200       0.05569000
P        1.27743221      -0.09373634       1.17237263       0.00000000 NULL       0.23515000       0.11002100      -0.05569100
P        0.16549944       1.67109123       3.55458403       0.00000000 NULL      -0.08097400       0.06879400       0.07708400
P        0.45841352       4.51896809       4.17471173       0.00000000 NULL      -0.08097300       0.06879200      -0.07708300
P        1.62926301      -0.00194927       3.56475188       0.00000000 NULL       0.18726000       0.07282100      -0.11276900
P        1.92217709       2.84592760       4.16454428       0.00000000 NULL       0.18725700       0.07282400       0.11276900
P        1.36445333       2.91991591      -0.96671628       0.00000000 NULL      -0.25367600      -0.31371600      -0.13421600
P        1.07153845       0.07203960       8.69601236       0.00000000 NULL      -0.25368000      -0.31371400       0.13421400
P        0.81142744       2.15168184       1.31064592       0.00000000 NULL       0.44509600       0.03095500      -0.35479400
P        0.51851291      -0.69619472       6.41865015       0.00000000 NULL       0.44509200       0.03095400       0.35479400
12
Lattice="5.267497764569592 0.6922648595854933 3.70601756689615e-07 0.6465948179207197 5.749512483214867 -2.6128982081026273e-07 -2.957046891576659 -3.2208882517368935 7.748821003332524" Properties=species:S:1:pos:R:3:initial_magmoms:R:1:castep_labels:S:1:forces:R:3 n_minim_iter=6 energy=-64.973591888703 stress="-0.008719479234607402 0.003724556077262211 -0.0 0.003724556077262211 0.00281542098181947 0.0 -0.0 0.0 -0.002688003665398237" free_energy=-64.973591888703 pbc="T T T"
P       -1.42488757       1.97261270       6.65825150       0.00000000 NULL      -0.36955000      -0.17021100       0.04462500
P        3.51931322      -0.20987899       1.09056962       0.00000000 NULL      -0.36954700      -0.17021100      -0.04462400
P        1.59694736       2.79744904       6.57712797       0.00000000 NULL       0.05005100       0.20595000       0.04288800
P        1.27365037      -0.07730750       1.17169316       0.00000000 NULL       0.05004800       0.20595300      -0.04288800
P        0.18704898       1.69201466       3.56731311       0.00000000 NULL      -0.01065200       0.20246000       0.09595700
P        0.51034634       4.56677093       4.18150766       0.00000000 NULL      -0.01065400       0.20246500      -0.09595800
P        1.62048675       0.01573466       3.57258408       0.00000000 NULL       0.11453300      -0.05385000      -0.08713200
P        1.94378411       2.89049093       4.17623709       0.00000000 NULL       0.11453500      -0.05385400       0.08713100
P        1.39222834       2.94085783      -0.97813941       0.00000000 NULL      -0.46132900      -0.05781500      -0.06445200
P        1.06893018       0.06610212       8.72696050       0.00000000 NULL      -0.46132500      -0.05781600       0.06445100
P        0.83693321       2.19035102       1.29547853       0.00000000 NULL       0.67694500      -0.12653700      -0.23484300
P        0.51363540      -0.68440495       6.45334255       0.00000000 NULL       0.67694700      -0.12653400       0.23484300
12
Lattice="5.346679307313439 0.6687952614560669 3.7800733527224994e-07 0.6408043814765755 5.666745455183156 -2.5725590372000546e-07 -2.9937424431899697 -3.1677699397304466 7.728988007474842" Properties=species:S:1:pos:R:3:initial_magmoms:R:1:castep_labels:S:1:forces:R:3 n_minim_iter=7 energy=-65.098962625684 stress="-0.004303253119167526 0.0007110291300216912 -0.0 0.0007110291300216912 0.0010974062143831586 -0.0 -0.0 -0.0 -0.0036073845249671925" free_energy=-65.098962625684 pbc="T T T"
P       -1.52422583       1.93761862       6.67762872       0.00000000 NULL       0.05379100      -0.26484700      -0.17368800
P        3.50205172      -0.22695915       1.05135941       0.00000000 NULL       0.05378400      -0.26484700       0.17369000
P        1.63141843       2.76912392       6.57184529       0.00000000 NULL      -0.31493200       0.13123100      -0.01700300
P        1.31101666      -0.06424910       1.15714285       0.00000000 NULL      -0.31492600       0.13123400       0.01700300
P        0.19923332       1.69052547       3.57151933       0.00000000 NULL      -0.00086600       0.08514300      -0.05396600
P        0.51963547       4.52389822       4.15746845       0.00000000 NULL      -0.00086600       0.08514500       0.05396600
P        1.65014980       0.00695957       3.55735620       0.00000000 NULL       0.14421100       0.10450300      -0.10304400
P        1.97055194       2.84033233       4.17163199       0.00000000 NULL       0.14421100       0.10450200       0.10304300
P        1.40288765       2.84200657      -1.00343879       0.00000000 NULL      -0.11843400      -0.05001200      -0.01338000
P        1.08248471       0.00863437       8.73242689       0.00000000 NULL      -0.11843800      -0.05001200       0.01337900
P        0.88228803       2.18811378       1.23219880       0.00000000 NULL       0.23623300      -0.00602000      -0.09585300
P        0.56188543      -0.64525867       6.49678929       0.00000000 NULL       0.23623100      -0.00601800       0.09585300
12
Lattice="5.312543133878584 0.6608818251145037 3.75791250852007e-07 0.6305266665696133 5.646600539319048 -2.5696114332294053e-07 -2.971535501084185 -3.1537407621839812 7.755643741586129" Properties=species:S:1:pos:R:3:initial_magmoms:R:1:castep_labels:S:1:forces:R:3 n_minim_iter=8 energy=-65.1668057694 stress="-0.0014561033243312483 7.941747760676328e-05 -4.3588077720506747e-08 7.941747760676328e-05 0.0019434180332465135 0.0 -4.3588077720506747e-08 0.0 -0.0064370001416089945" free_energy=-65.1668057694 pbc="T T T"
P       -1.54955098       1.87772126       6.68918876       0.00000000 NULL      -0.08360200      -0.01345700      -0.04424900
P        3.44772925      -0.28469749       1.06645510       0.00000000 NULL      -0.08359900      -0.01345700       0.04425000
P        1.55635628       2.78411268       6.59436902       0.00000000 NULL       0.03479600      -0.19604500       0.09614000
P        1.24109337      -0.03918789       1.16127484       0.00000000 NULL       0.03479600      -0.19604700      -0.09614100
P        0.21209138       1.71521437       3.56707953       0.00000000 NULL       0.16003200       0.07871100       0.03394800
P        0.52735466       4.53851467       4.18856399       0.00000000 NULL       0.16003200       0.07871000      -0.03394800
P        1.67092303       0.02491593       3.53635778       0.00000000 NULL      -0.07327500       0.16273000       0.02199900
P        1.98618631       2.84821623       4.21928615       0.00000000 NULL      -0.07327600       0.16273200      -0.02199900
P        1.39294239       2.77655265      -1.02583861       0.00000000 NULL      -0.10036200       0.03454900      -0.04359400
P        1.07767829      -0.04674709       8.78148245       0.00000000 NULL      -0.10036200       0.03454900       0.04359400
P        0.91983293       2.21208595       1.18514962       0.00000000 NULL       0.06241100      -0.06648600       0.10678600
P        0.60456918      -0.61121403       6.57049421       0.00000000 NULL       0.06240800      -0.06648800      -0.10678700
12
Lattice="5.320485258973645 0.6563124492957796 3.766540281823309e-07 0.6285468430357974 5.63014924837945 -2.5622355340151244e-07 -2.9745166559539653 -3.1432304259462835 7.808424832430489" Properties=species:S:1:pos:R:3:initial_magmoms:R:1:castep_labels:S:1:forces:R:3 n_minim_iter=9 energy=-65.194947626725 stress="-2.5576425520850515e-06 0.0007789105317943086 -4.334987376415342e-08 0.0007789105317943086 0.0016068064209421105 0.0 -4.334987376415342e-08 0.0 -0.004368496828835032" free_energy=-65.194947626725 pbc="T T T"
P       -1.57501584       1.85746448       6.73129834       0.00000000 NULL      -0.05516100       0.00686100       0.00399100
P        3.43119644      -0.30129800       1.07712660       0.00000000 NULL      -0.05516100       0.00686000      -0.00398900
P        1.53729993       2.75180592       6.64951623       0.00000000 NULL       0.05076600      -0.03408200       0.04697100
P        1.22302693      -0.06326901       1.15890873       0.00000000 NULL       0.05076600      -0.03408100      -0.04697100
P        0.24077710       1.73340849       3.57706580       0.00000000 NULL      -0.02355700       0.13941700      -0.00299900
P        0.55505047       4.54848315       4.23135881       0.00000000 NULL      -0.02355800       0.13941900       0.00299900
P        1.67461375       0.04910155       3.54229792       0.00000000 NULL       0.09426000       0.05992000      -0.00659600
P        1.98888712       2.86417621       4.26612709       0.00000000 NULL       0.09426100       0.05991800       0.00659500
P        1.39082074       2.74706753      -1.04328459       0.00000000 NULL       0.00238200       0.04461900       0.01857800
P        1.07654655      -0.06800655       8.85170953       0.00000000 NULL       0.00238300       0.04461800      -0.01857900
P        0.93467804       2.21708954       1.19576560       0.00000000 NULL      -0.06868900      -0.21673500       0.00345200
P        0.62040420      -0.59798479       6.61265932       0.00000000 NULL      -0.06869200      -0.21673400      -0.00345200
12
Lattice="5.330887501159547 0.633037972136216 3.787204376611994e-07 0.6097375870157145 5.585131953586584 -2.552427181468802e-07 -2.9703131534354252 -3.109084536895251 7.8651994323278664" Properties=species:S:1:pos:R:3:initial_magmoms:R:1:castep_labels:S:1:forces:R:3 n_minim_iter=10 energy=-65.217878913665 stress="0.00037639475048375696 -5.797344432738326e-06 0.0 -5.797344432738326e-06 0.000624642230745343 -0.0 0.0 -0.0 -0.0027802592931422615" free_energy=-65.217878913665 pbc="T T T"
P       -1.60617121       1.84140782       6.78539207       0.00000000 NULL       0.03267700       0.04265500       0.03559300
P        3.41984794      -0.31812049       1.07980748       0.00000000 NULL       0.03268400       0.04265500      -0.03559200
P        1.51897620       2.70678511       6.70845301       0.00000000 NULL       0.01093900      -0.05652600      -0.02812700
P        1.21410784      -0.08578117       1.15674655       0.00000000 NULL       0.01093100      -0.05652500       0.02812700
P        0.24562927       1.75149027       3.58373448       0.00000000 NULL       0.10151400       0.08700800       0.01227900
P        0.55049801       4.54405629       4.28146473       0.00000000 NULL       0.10151300       0.08700900      -0.01227900
P        1.69944118       0.06631437       3.54724864       0.00000000 NULL      -0.04585000       0.05198200       0.04498000
P        2.00430992       2.85888039       4.31795098       0.00000000 NULL      -0.04584900       0.05198100      -0.04498000
P        1.39206219       2.70380079      -1.05541698       0.00000000 NULL      -0.11435700       0.00566400       0.08891800
P        1.08719262      -0.08876465       8.92061652       0.00000000 NULL      -0.11435200       0.00566400      -0.08891800
P        0.92234383       2.18525535       1.20292035       0.00000000 NULL       0.01507300      -0.13078300      -0.03943600
P        0.61747461      -0.60731033       6.66227918       0.00000000 NULL       0.01507700      -0.13078500       0.03943600
12
Lattice="5.326656483592 0.6296000917303619 3.7857883405101293e-07 0.6089261620219363 5.55833640074827 -2.5385437975380005e-07 -2.9677919389027685 -3.0939678155559553 7.952299797719019" Properties=species:S:1:pos:R:3:initial_magmoms:R:1:castep_labels:S:1:forces:R:3 n_minim_iter=11 energy=-65.242392739142 stress="0.0011894264257096858 -0.00040447899579158694 -4.302968040336032e-08 -0.00040447899579158694 0.0004685071602317871 -0.0 -4.302968040336032e-08 -0.0 -0.0030174133086052386" free_energy=-65.242392739142 pbc="T T T"
P       -1.61181518       1.83133691       6.88559728       0.00000000 NULL      -0.07950000      -0.10444500      -0.01823600
P        3.41037867      -0.31823152       1.06670263       0.00000000 NULL      -0.07950400      -0.10444400       0.01823700
P        1.49088559       2.66440474       6.78154604       0.00000000 NULL       0.13153000      -0.09365100      -0.01447700
P        1.18642295      -0.11476376       1.17075389       0.00000000 NULL       0.13153500      -0.09364700       0.01447700
P        0.28401303       1.80451458       3.59455808       0.00000000 NULL      -0.02885600      -0.03190000      -0.04208400
P        0.58847605       4.58368282       4.35774150       0.00000000 NULL      -0.02885700      -0.03189700       0.04208400
P        1.71432163       0.09991147       3.56760683       0.00000000 NULL       0.07299700       0.07889200       0.01733300
P        2.01878464       2.87907972       4.38469315       0.00000000 NULL       0.07299700       0.07889000      -0.01733400
P        1.37606054       2.65943117      -1.04633957       0.00000000 NULL      -0.06738600       0.11226800      -0.03702900
P        1.07159669      -0.11973648       8.99863948       0.00000000 NULL      -0.06739000       0.11226900       0.03702800
P        0.91486513       2.14123264       1.19285129       0.00000000 NULL      -0.02878000       0.03883200      -0.00359200
P        0.61040162      -0.63793526       6.75944860       0.00000000 NULL      -0.02878400       0.03883400       0.00359200
12
Lattice="5.3177068101783345 0.6252994072888572 3.7811838572756643e-07 0.6048958588377991 5.544335604802038 -2.5340836324886266e-07 -2.9613019544210357 -3.084817072693685 8.001570173147261" Properties=species:S:1:pos:R:3:initial_magmoms:R:1:castep_labels:S:1:forces:R:3 n_minim_iter=12 energy=-65.250955139184 stress="0.0016283573251307873 -0.00013714923517925572 -0.0 -0.00013714923517925572 0.0004411190021905115 0.0 -0.0 0.0 -0.001961611931964289" free_energy=-65.250955139184 pbc="T T T"
P       -1.61393362       1.80868364       6.94506478       0.00000000 NULL      -0.06735200       0.03975200      -0.05362500
P        3.40132572      -0.33818507       1.05650551       0.00000000 NULL      -0.06734900       0.03975000       0.05362700
P        1.48642429       2.63227409       6.81446837       0.00000000 NULL       0.05873600       0.06121400       0.00338400
P        1.18397680      -0.13989402       1.18710194       0.00000000 NULL       0.05873400       0.06121200      -0.00338500
P        0.29702897       1.82670980       3.59186002       0.00000000 NULL       0.05306600      -0.05050900      -0.01373000
P        0.59947683       4.59887764       4.40970993       0.00000000 NULL       0.05306600      -0.05051100       0.01373000
P        1.72986937       0.11849158       3.58454476       0.00000000 NULL      -0.02233600       0.07556800       0.01187100
P        2.03231723       2.89065943       4.41702560       0.00000000 NULL      -0.02233700       0.07557000      -0.01187100
P        1.35384998       2.65205768      -1.04419080       0.00000000 NULL       0.00187900      -0.05687600      -0.08189000
P        1.05140127      -0.12010958       9.04576108       0.00000000 NULL       0.00188100      -0.05687700       0.08188900
P        0.90221904       2.13288242       1.18295009       0.00000000 NULL      -0.02399400      -0.06914600       0.08222700
P        0.59977068      -0.63928508       6.81862018       0.00000000 NULL      -0.02399300      -0.06914800      -0.08222800
12
Lattice="5.314911234620143 0.6098921550585675 3.787362327410761e-07 0.5874994332727617 5.543197696975817 -2.5469450523663967e-07 -2.9512059557014743 -3.0765444913777387 8.025346589443336" Properties=species:S:1:pos:R:3:initial_magmoms:R:1:castep_labels:S:1:forces:R:3 n_minim_iter=13 energy=-65.254912430057 stress="0.0016781265803680542 -0.0004457450141143465 -4.281481261303876e-08 -0.0004457450141143465 0.0005005479742590361 4.281481261303876e-08 -4.281481261303876e-08 4.281481261303876e-08 -5.446044164378531e-05" free_energy=-65.254912430057 pbc="T T T"
P       -1.62174076       1.80840482       6.96980510       0.00000000 NULL      -0.04217300       0.03204300      -0.03923000
P        3.39942122      -0.35330219       1.05554161       0.00000000 NULL      -0.04217700       0.03204100       0.03923200
P        1.48048357       2.62951611       6.82662343       0.00000000 NULL       0.02874900      -0.00448600       0.05605100
P        1.18673429      -0.14208304       1.19872329       0.00000000 NULL       0.02875500      -0.00449000      -0.05605200
P        0.30333974       1.82946833       3.58609547       0.00000000 NULL       0.02515100      -0.02437800       0.03739500
P        0.59708939       4.60106722       4.43925089       0.00000000 NULL       0.02515400      -0.02438100      -0.03739400
P        1.73510366       0.12772766       3.59603118       0.00000000 NULL      -0.00237000       0.04929200      -0.00896200
P        2.02885331       2.89932656       4.42931559       0.00000000 NULL      -0.00237300       0.04929500       0.00896100
P        1.33598793       2.63995486      -1.05447492       0.00000000 NULL      -0.01085000      -0.02230200      -0.01438300
P        1.04223742      -0.13164344       9.07982161       0.00000000 NULL      -0.01085200      -0.02230300       0.01438200
P        0.88676630       2.12518723       1.18819452       0.00000000 NULL       0.00149500      -0.03016500       0.03121400
P        0.59301615      -0.64641131       6.83715217       0.00000000 NULL       0.00149300      -0.03016600      -0.03121500
12
Lattice="5.301770239470795 0.6010278038823254 3.7819822695162035e-07 0.57603255833758 5.543104042187667 -2.5557781673268713e-07 -2.9389020200260463 -3.0720654888381573 8.0171739918394" Properties=species:S:1:pos:R:3:initial_magmoms:R:1:castep_labels:S:1:forces:R:3 n_minim_iter=14 energy=-65.257122504628 stress="0.00028079949999302206 -0.00036059844018681767 -0.0 -0.00036059844018681767 -5.712195396003661e-05 4.294883756393731e-08 -0.0 4.294883756393731e-08 -0.00023123654144423844" free_energy=-65.257122504628 pbc="T T T"
P       -1.62005871       1.80944236       6.95808000       0.00000000 NULL      -0.02934600       0.02234500      -0.02074100
P        3.39369571      -0.36108218       1.05909411       0.00000000 NULL      -0.02934500       0.02234400       0.02074200
P        1.47194374       2.62642407       6.83091778       0.00000000 NULL       0.00977600      -0.00048100      -0.01580100
P        1.18392790      -0.14512826       1.18625634       0.00000000 NULL       0.00977400      -0.00048100       0.01580100
P        0.30531510       1.82982689       3.58666368       0.00000000 NULL       0.00514400      -0.00973400       0.01873000
P        0.59333131       4.60137896       4.43051009       0.00000000 NULL       0.00514200      -0.00973200      -0.01872900
P        1.74067149       0.13678146       3.59517413       0.00000000 NULL       0.00123000       0.01564100      -0.02519200
P        2.02868770       2.90833353       4.42200004       0.00000000 NULL       0.00123200       0.01564000       0.02519000
P        1.31696411       2.63183163      -1.05723532       0.00000000 NULL       0.01287100      -0.00291500      -0.02031700
P        1.02894705      -0.13971984       9.07440942       0.00000000 NULL       0.01286900      -0.00291600       0.02031700
P        0.87537312       2.12081084       1.18792106       0.00000000 NULL       0.00032800      -0.02485600       0.00727500
P        0.58735640      -0.65074088       6.82925303       0.00000000 NULL       0.00032500      -0.02485500      -0.00727600
12
Lattice="5.303234004578508 0.6040815647585271 3.7814624396007967e-07 0.5790364008726534 5.547521953261636 -2.5558436401888366e-07 -2.9411358234822167 -3.0758013250685527 8.012459856462842" Properties=species:S:1:pos:R:3:initial_magmoms:R:1:castep_labels:S:1:forces:R:3 n_minim_iter=15 energy=-65.257692144394 stress="0.0001309019718351484 -0.0002576394663767549 -4.293275560352523e-08 -0.0002576394663767549 6.916466927727914e-05 0.0 -4.293275560352523e-08 0.0 0.00023831972635516852" free_energy=-65.257692144394 pbc="T T T"
P       -1.62165668       1.81007069       6.94958418       0.00000000 NULL      -0.01319500       0.00994200       0.00851900
P        3.39205958      -0.35960904       1.06287580       0.00000000 NULL      -0.01319700       0.00994200      -0.00851700
P        1.47289445       2.62782832       6.82449593       0.00000000 NULL      -0.00225300       0.00746500       0.00239200
P        1.18337669      -0.14593296       1.18796405       0.00000000 NULL      -0.00224800       0.00746300      -0.00239200
P        0.30967736       1.83252014       3.59084527       0.00000000 NULL      -0.00845100      -0.00706000      -0.00661900
P        0.59919550       4.60628116       4.42161437       0.00000000 NULL      -0.00845000      -0.00706100       0.00661900
P        1.74283207       0.13935910       3.59007348       0.00000000 NULL       0.01056300       0.00826900      -0.00276500