12
Lattice="4.12477 0.0 0.0 0.0 7.914559999999999 0.0 0.0 0.0 7.914559999999999" Properties=species:S:1:pos:R:3:initial_magmoms:R:1:castep_labels:S:1 n_minim_iter=1 pbc="T T T"
P        3.57077585       2.27226622       0.16586781       0.00000000 NULL
P        1.50839085       5.64229378       7.74869219       0.00000000 NULL
P        2.53958335       0.16586781       5.64229378       0.00000000 NULL
P        0.47719835       7.74869219       2.27226622       0.00000000 NULL
P        3.80729347       7.68421544       4.12424397       0.00000000 NULL
P        1.74490847       0.23034456       3.79031603       0.00000000 NULL
P        2.77610097       4.12424397       0.23034456       0.00000000 NULL
P        0.71371597       3.79031603       7.68421544       0.00000000 NULL
P        3.17773271       6.77324800       0.46117112       0.00000000 NULL
P        1.11534771       1.14131200       7.45338888       0.00000000 NULL
P        2.14654021       0.46117112       1.14131200       0.00000000 NULL
P        0.08415521       7.45338888       6.77324800       0.00000000 NULL
12
Lattice="4.143296904485873 0.0 0.0 0.0 7.946071440778438 0.0 0.0 0.0 7.946071440778438" Properties=species:S:1:pos:R:3:initial_magmoms:R:1:castep_labels:S:1 n_minim_iter=2 pbc="T T T"
P        3.58667064       2.28092521       0.16669034       0.00000000 NULL
P        1.51502219       5.66514623       7.77938110       0.00000000 NULL
P        2.55084642       0.16669034       5.66514623       0.00000000 NULL
P        0.47919797       7.77938110       2.28092521       0.00000000 NULL
P        3.82446257       7.71459319       4.14063503       0.00000000 NULL
P        1.75281412       0.23147825       3.80543641       0.00000000 NULL
P        2.78863834       4.14063503       0.23147825       0.00000000 NULL
P        0.71698989       3.80543641       7.71459319       0.00000000 NULL
P        3.19208148       6.80003183       0.46327004       0.00000000 NULL
P        1.12043303       1.14603961       7.48280140       0.00000000 NULL
P        2.15625725       0.46327004       1.14603961       0.00000000 NULL
P        0.08460880       7.48280140       6.80003183       0.00000000 NULL
12
Lattice="4.4549245388834 0.0 0.0 0.0 8.483521178838243 0.0 0.0 0.0 8.483521178838243" Properties=species:S:1:pos:R:3:initial_magmoms:R:1:castep_labels:S:1 n_minim_iter=3 pbc="T T T"
P        3.85399059       2.42834204       0.18086340       0.00000000 NULL
P        1.62652832       6.05517914       8.30265778       0.00000000 NULL
P        2.74025945       0.18086340       6.05517914       0.00000000 NULL
P        0.51279719       8.30265778       2.42834204       0.00000000 NULL
P        4.11328728       8.23254389       4.42004018       0.00000000 NULL
P        1.88582501       0.25097729       4.06348100       0.00000000 NULL
P        2.99955614       4.42004018       0.25097729       0.00000000 NULL
P        0.77209387       4.06348100       8.23254389       0.00000000 NULL
P        3.43343090       7.25685923       0.49926842       0.00000000 NULL
P        1.20596863       1.22666195       7.98425276       0.00000000 NULL
P        2.31969976       0.49926842       1.22666195       0.00000000 NULL
P        0.09223749       7.98425276       7.25685923       0.00000000 NULL
12
Lattice="4.517857692164991 0.0 0.0 0.0 8.756386137852543 0.0 0.0 0.0 8.756386137852543" Properties=species:S:1:pos:R:3:initial_magmoms:R:1:castep_labels:S:1 n_minim_iter=4 pbc="T T T"
P        3.90876529       2.50284423       0.18865950       0.00000000 NULL
P        1.64983645       6.25354191       8.56772664       0.00000000 NULL
P        2.77930087       0.18865950       6.25354191       0.00000000 NULL
P        0.52037202       8.56772664       2.50284423       0.00000000 NULL
P        4.17114684       8.49505969       4.56017215       0.00000000 NULL
P        1.91221799       0.26132645       4.19621398       0.00000000 NULL
P        3.04168241       4.56017215       0.26132645       0.00000000 NULL
P        0.78275357       4.19621398       8.49505969       0.00000000 NULL
P        3.48185044       7.49111223       0.51818250       0.00000000 NULL
P        1.22292159       1.26527390       8.23820364       0.00000000 NULL
P        2.35238602       0.51818250       1.26527390       0.00000000 NULL
P        0.09345717       8.23820364       7.49111223       0.00000000 NULL
12
Lattice="4.5005357967464255 0.0 0.0 0.0 9.008270002158968 0.0 0.0 0.0 9.008270002158968" Properties=species:S:1:pos:R:3:initial_magmoms:R:1:castep_labels:S:1 n_minim_iter=5 pbc="T T T"
P        3.89568831       2.57122934       0.19652190       0.00000000 NULL
P        1.64542041       6.43704066       8.81174810       0.00000000 NULL
P        2.77055436       0.19652190       6.43704066       0.00000000 NULL
P        0.52028647       8.81174810       2.57122934       0.00000000 NULL
P        4.15410440       8.73675560       4.68777054       0.00000000 NULL
P        1.90383650       0.27151440       4.32049946       0.00000000 NULL
P        3.02897045       4.68777054       0.27151440       0.00000000 NULL
P        0.77870256       4.32049946       8.73675560       0.00000000 NULL
P        3.46764096       7.71047282       0.53624050       0.00000000 NULL
P        1.21737306       1.29779718       8.47202950       0.00000000 NULL
P        2.34250701       0.53624050       1.29779718       0.00000000 NULL
P        0.09223911       8.47202950       7.71047282       0.00000000 NULL
12
Lattice="4.4080501318261565 0.0 0.0 0.0 9.132359845501295 0.0 0.0 0.0 9.132359845501295" Properties=species:S:1:pos:R:3:initial_magmoms:R:1:castep_labels:S:1 n_minim_iter=6 pbc="T T T"
P        3.81881685       2.60419942       0.20157280       0.00000000 NULL
P        1.61479178       6.52816042       8.93078704       0.00000000 NULL
P        2.71680431       0.20157280       6.52816042       0.00000000 NULL
P        0.51277925       8.93078704       2.60419942       0.00000000 NULL
P        4.06698119       8.85420313       4.74835773       0.00000000 NULL
P        1.86295613       0.27815671       4.38400211       0.00000000 NULL
P        2.96496866       4.74835773       0.27815671       0.00000000 NULL
P        0.76094360       4.38400211       8.85420313       0.00000000 NULL
P        3.39495326       7.82257682       0.54610097       0.00000000 NULL
P        1.19092819       1.30978302       8.58625888       0.00000000 NULL
P        2.29294073       0.54610097       1.30978302       0.00000000 NULL
P        0.08891566       8.58625888       7.82257682       0.00000000 NULL
12
Lattice="4.215226640018281 0.0 0.0 0.0 9.39068301135026 0.0 0.0 0.0 9.39068301135026" Properties=species:S:1:pos:R:3:initial_magmoms:R:1:castep_labels:S:1 n_minim_iter=7 pbc="T T T"
P        3.66154820       2.67160608       0.21452832       0.00000000 NULL
P        1.55393488       6.71907693       9.17615470       0.00000000 NULL
P        2.60774154       0.21452832       6.71907693       0.00000000 NULL
P        0.50012822       9.17615470       2.67160608       0.00000000 NULL
P        3.88330933       9.09269715       4.87178517       0.00000000 NULL
P        1.77569601       0.29798586       4.51889784       0.00000000 NULL
P        2.82950267       4.87178517       0.29798586       0.00000000 NULL
P        0.72188935       4.51889784       9.09269715       0.00000000 NULL
P        3.24243435       8.06237084       0.56805494       0.00000000 NULL
P        1.13482103       1.32831217       8.82262807       0.00000000 NULL
P        2.18862769       0.56805494       1.32831217       0.00000000 NULL
P        0.08101437       8.82262807       8.06237084       0.00000000 NULL
12
Lattice="4.236089290051296 0.0 0.0 0.0 9.392989222334961 0.0 0.0 0.0 9.392989222334961" Properties=species:S:1:pos:R:3:initial_magmoms:R:1:castep_labels:S:1 n_minim_iter=8 pbc="T T T"
P        3.68823201       2.66946544       0.22050437       0.00000000 NULL
P        1.57018736       6.72352378       9.17248485       0.00000000 NULL
P        2.62920969       0.22050437       6.72352378       0.00000000 NULL
P        0.51116504       9.17248485       2.66946544       0.00000000 NULL
P        3.89623835       9.07706154       4.86950076       0.00000000 NULL
P        1.77819371       0.31592768       4.52348846       0.00000000 NULL
P        2.83721603       4.86950076       0.31592768       0.00000000 NULL
P        0.71917139       4.52348846       9.07706154       0.00000000 NULL
P        3.25621164       8.07908891       0.57185921       0.00000000 NULL
P        1.13816700       1.31390031       8.82113001       0.00000000 NULL
P        2.19718932       0.57185921       1.31390031       0.00000000 NULL
P        0.07914467       8.82113001       8.07908891       0.00000000 NULL
12
Lattice="4.197195617155619 0.0 0.0 0.0 9.371956375556673 0.0 0.0 0.0 9.371956375556673" Properties=species:S:1:pos:R:3:initial_magmoms:R:1:castep_labels:S:1 n_minim_iter=9 pbc="T T T"
P        3.66089653       2.66191262       0.22398632       0.00000000 NULL
P        1.56229872       6.71004376       9.14797006       0.00000000 NULL
P        2.61159763       0.22398632       6.71004376       0.00000000 NULL
P        0.51299982       9.14797006       2.66191262       0.00000000 NULL
P        3.85588211       9.04492746       4.85599831       0.00000000 NULL
P        1.75728430       0.32702891       4.51595806       0.00000000 NULL
P        2.80658321       4.85599831       0.32702891       0.00000000 NULL
P        0.70798540       4.51595806       9.04492746       0.00000000 NULL
P        3.22436959       8.07094453       0.57350536       0.00000000 NULL
P        1.12577179       1.30101185       8.79845102       0.00000000 NULL
P        2.17507069       0.57350536       1.30101185       0.00000000 NULL
P        0.07647288       8.79845102       8.07094453       0.00000000 NULL
12
Lattice="4.205582280411576 0.0 0.0 0.0 9.40588097198664 0.0 0.0 0.0 9.40588097198664" Properties=species:S:1:pos:R:3:initial_magmoms:R:1:castep_labels:S:1 n_minim_iter=10 pbc="T T T"
P        3.67132455       2.67059331       0.22702626       0.00000000 NULL
P        1.56853341       6.73528767       9.17885471       0.00000000 NULL
P        2.61992898       0.22702626       6.73528767       0.00000000 NULL
P        0.51713784       9.17885471       2.67059331       0.00000000 NULL
P        3.86123564       9.07098887       4.87245404       0.00000000 NULL
P        1.75844450       0.33489210       4.53342694       0.00000000 NULL
P        2.80984007       4.87245404       0.33489210       0.00000000 NULL
P        0.70704893       4.53342694       9.07098887       0.00000000 NULL
P        3.23005057       8.10445131       0.57749629       0.00000000 NULL
P        1.12725943       1.30142966       8.82838469       0.00000000 NULL
P        2.17865500       0.57749629       1.30142966       0.00000000 NULL
P        0.07586386       8.82838469       8.10445131       0.00000000 NULL
12
Lattice="4.194941748403582 0.0 0.0 0.0 9.406649092842647 0.0 0.0 0.0 9.406649092842647" Properties=species:S:1:pos:R:3:initial_magmoms:R:1:castep_labels:S:1 n_minim_iter=11 pbc="T T T"
P        3.66489662       2.67018193       0.22883008       0.00000000 NULL
P        1.56742575       6.73646716       9.17781901       0.00000000 NULL
P        2.61616118       0.22883008       6.73646716       0.00000000 NULL
P        0.51869031       9.17781901       2.67018193       0.00000000 NULL
P        3.84936694       9.06614544       4.87200481       0.00000000 NULL
P        1.75189607       0.34050366       4.53464428       0.00000000 NULL
P        2.80063151       4.87200481       0.34050366       0.00000000 NULL
P        0.70316063       4.53464428       9.06614544       0.00000000 NULL
P        3.22111674       8.10896289       0.57905525       0.00000000 NULL
P        1.12364586       1.29768620       8.82759385       0.00000000 NULL
P        2.17238130       0.57905525       1.29768620       0.00000000 NULL
P        0.07491043       8.82759385       8.10896289       0.00000000 NULL
12
Lattice="4.178491135103247 0.0 0.0 0.0 9.4234507931284 0.0 0.0 0.0 9.4234507931284" Properties=species:S:1:pos:R:3:initial_magmoms:R:1:castep_labels:S:1 n_minim_iter=12 pbc="T T T"
P        3.65717289       2.67345523       0.23350461       0.00000000 NULL
P        1.56792732       6.74999556       9.18994618       0.00000000 NULL
P        2.61255010       0.23350461       6.74999556       0.00000000 NULL
P        0.52330454       9.18994618       2.67345523       0.00000000 NULL
P        3.82930710       9.06886923       4.87890178       0.00000000 NULL
P        1.74006153       0.35458157       4.54454902       0.00000000 NULL
P        2.78468432       4.87890178       0.35458157       0.00000000 NULL
P        0.69543875       4.54454902       9.06886923       0.00000000 NULL
P        3.20680114       8.13207667       0.58385490       0.00000000 NULL
P        1.11755557       1.29137412       8.83959590       0.00000000 NULL
P        2.16217835       0.58385490       1.29137412       0.00000000 NULL
P        0.07293279       8.83959590       8.13207667       0.00000000 NULL
12
Lattice="4.019584817019259 0.0 0.0 0.0 9.538919094132915 0.0 0.0 0.0 9.538919094132915" Properties=species:S:1:pos:R:3:initial_magmoms:R:1:castep_labels:S:1 n_minim_iter=13 pbc="T T T"
P        3.57102723       2.69515214       0.27129987       0.00000000 NULL
P        1.56123482       6.84376695       9.26761922       0.00000000 NULL
P        2.56613102       0.27129987       6.84376695       0.00000000 NULL
P        0.55633862       9.26761922       2.69515214       0.00000000 NULL
P        3.64335491       9.06553778       4.92787562       0.00000000 NULL
P        1.63356250       0.47338131       4.61104348       0.00000000 NULL
P        2.63845870       4.92787562       0.47338131       0.00000000 NULL
P        0.62866630       4.61104348       9.06553778       0.00000000 NULL
P        3.07223786       8.29767175       0.62403166       0.00000000 NULL
P        1.06244545       1.24124735       8.91488743       0.00000000 NULL
P        2.06734165       0.62403166       1.24124735       0.00000000 NULL
P        0.05754924       8.91488743       8.29767175       0.00000000 NULL
