8
Lattice="5.092599999999901 -1.0191425169678939e-13 -1.0052660341679922e-06 -0.15501581369638096 5.090240157153986 -1.005266034167992e-06 -2.4687908027487904 -2.5451187482784055 6.537082675967703" Properties=species:S:1:pos:R:3:initial_magmoms:R:1:castep_labels:S:1 n_minim_iter=1 pbc="T T T"
P        0.61884775       1.54796013       1.38819200       0.00000000 NULL
P       -0.94038590      -1.87943931       5.14888849       0.00000000 NULL
P       -1.01789390       0.66568067       4.65673334       0.00000000 NULL
P        3.16514785       1.54796023       1.88034615       0.00000000 NULL
P        0.93811709       0.82634303       4.03829297       0.00000000 NULL
P        3.26619616       3.50795555       2.49878568       0.00000000 NULL
P        0.71989581       3.50795520       0.76975163       0.00000000 NULL
P        1.01562534      -1.71877670       5.76732803       0.00000000 NULL
8
Lattice="5.092923364870681 0.0004490951948920049 -1.0054212565921442e-06 -0.15457676964670528 5.090577042381125 -1.0054212565916406e-06 -2.469172008798574 -2.545511740128172 6.529030111624316" Properties=species:S:1:pos:R:3:initial_magmoms:R:1:castep_labels:S:1 n_minim_iter=2 pbc="T T T"
P        0.61906170       1.54801154       1.38660629       0.00000000 NULL
P       -0.94072223      -1.87961689       5.14242164       0.00000000 NULL
P       -1.01801071       0.66567153       4.65112135       0.00000000 NULL
P        3.16552348       1.54823619       1.87790557       0.00000000 NULL
P        0.93830497       0.82650166       4.03328459       0.00000000 NULL
P        3.26673020       3.50854116       2.49574150       0.00000000 NULL
P        0.72026817       3.50831627       0.76876953       0.00000000 NULL
P        1.01559369      -1.71878651       5.76025756       0.00000000 NULL
8
Lattice="5.126265475730387 0.046062037846783574 -1.0212851535694565e-06 -0.10999987809281221 5.1252921346802705 -1.0212851536419198e-06 -2.5081316595439542 -2.5856759117655765 5.771479240675531" Properties=species:S:1:pos:R:3:initial_magmoms:R:1:castep_labels:S:1 n_minim_iter=3 pbc="T T T"
P        0.64073529       1.55344545       1.23670138       0.00000000 NULL
P       -0.97491016      -1.89795204       4.53477582       0.00000000 NULL
P       -1.02991018       0.66469394       4.12244100       0.00000000 NULL
P        3.20386811       1.57647655       1.64903518       0.00000000 NULL
P        0.95749489       0.84273112       3.56232525       0.00000000 NULL
P        3.32132754       3.56838027       2.20915007       0.00000000 NULL
P        0.75819450       3.54534894       0.67658563       0.00000000 NULL
P        1.01249514      -1.71991464       5.09489071       0.00000000 NULL
8
Lattice="5.371985304952169 0.10294954460655809 -1.081366239198043e-06 -0.060618302457409325 5.3726297235863845 -1.0813662393291085e-06 -2.655682459856082 -2.737788560508335 5.275608877134266" Properties=species:S:1:pos:R:3:initial_magmoms:R:1:castep_labels:S:1 n_minim_iter=4 pbc="T T T"
P        0.69344165       1.61728214       1.14030428       0.00000000 NULL
P       -1.06025816      -1.99543956       4.13530261       0.00000000 NULL
P       -1.09056738       0.69087523       3.77810871       0.00000000 NULL
P        3.37943438       1.66875699       1.49749709       0.00000000 NULL
P        1.02292940       0.89646317       3.25854212       0.00000000 NULL
P        3.52059364       3.78753259       2.01706277       0.00000000 NULL
P        0.83460071       3.73605754       0.62073768       0.00000000 NULL
P        1.05323882      -1.78985140       4.65486829       0.00000000 NULL
8
Lattice="5.215680062603543 0.09648093838973683 -1.0491956258844406e-06 -0.06232606957008521 5.216200010348969 -1.0491956259749156e-06 -2.576675997675609 -2.6563394446469246 5.060052932915126" Properties=species:S:1:pos:R:3:initial_magmoms:R:1:castep_labels:S:1 n_minim_iter=5 pbc="T T T"
P        0.67586241       1.56776667       1.09598690       0.00000000 NULL
P       -1.03020911      -1.93306875       3.96406412       0.00000000 NULL
P       -1.06137221       0.67503118       3.62601336       0.00000000 NULL
P        3.28370250       1.61600720       1.43403660       0.00000000 NULL
P        0.99042716       0.87024370       3.12741716       0.00000000 NULL
P        3.41636917       3.67279816       1.93263192       0.00000000 NULL
P        0.80852887       3.62455742       0.59739069       0.00000000 NULL
P        1.02159046      -1.73785603       4.46265943       0.00000000 NULL
8
Lattice="5.318305766967921 0.09196475533602493 -1.0685346288405034e-06 -0.06996402727445261 5.3186406893186335 -1.0685346289672954e-06 -2.62416985400397 -2.7053016750776147 5.146181967430813" Properties=species:S:1:pos:R:3:initial_magmoms:R:1:castep_labels:S:1 n_minim_iter=6 pbc="T T T"
P        0.68848851       1.59503251       1.11530794       0.00000000 NULL
P       -1.05083410      -1.96858078       4.03087207       0.00000000 NULL
P       -1.08581618       0.69073949       3.68839893       0.00000000 NULL
P        3.34764146       1.64101496       1.45778002       0.00000000 NULL
P        1.01079273       0.88570585       3.18272988       0.00000000 NULL
P        3.47869810       3.74258720       1.96344816       0.00000000 NULL
P        0.81954495       3.69660455       0.60963890       0.00000000 NULL
P        1.04577501      -1.77361422       4.53654021       0.00000000 NULL
