20
Lattice="5.43896 0.0 0.0 0.0 5.43896 0.0 0.0 0.0 14.209529999999999" Properties=species:S:1:pos:R:3:initial_magmoms:R:1:castep_labels:S:1 n_minim_iter=1 pbc="T T T"
P        1.75878018       1.81541716       7.05342597       0.00000000 NULL
P        3.68017982       3.62354284      14.15819097       0.00000000 NULL
P        1.81541716       3.68017982      10.60580847       0.00000000 NULL
P        3.62354284       1.75878018       3.50104347       0.00000000 NULL
P        4.19848443       1.45824990       0.31355317       0.00000000 NULL
P        1.24047557       3.98071010       7.41831817       0.00000000 NULL
P        1.45824990       1.24047557       3.86593567       0.00000000 NULL
P        3.98071010       4.19848443      10.97070067       0.00000000 NULL
P        1.20045897       0.36326868      14.17826335       0.00000000 NULL
P        4.23850103       5.07569132       7.07349835       0.00000000 NULL
P        0.36326868       4.23850103       3.52111585       0.00000000 NULL
P        5.07569132       1.20045897      10.62588085       0.00000000 NULL
P        2.64433152       0.12003513       8.20092225       0.00000000 NULL
P        2.79462848       5.31892487       1.09615725       0.00000000 NULL
P        0.12003513       2.79462848      11.75330475       0.00000000 NULL
P        5.31892487       2.64433152       4.64853975       0.00000000 NULL
P        2.19166483       0.79314831      10.07152588       0.00000000 NULL
P        3.24729517       4.64581169       2.96676088       0.00000000 NULL
P        0.79314831       3.24729517      13.62390838       0.00000000 NULL
P        4.64581169       2.19166483       6.51914338       0.00000000 NULL
20
Lattice="5.43542062846679 0.0 0.0 0.0 5.43542062846679 0.0 0.0 0.0 14.234065823660314" Properties=species:S:1:pos:R:3:initial_magmoms:R:1:castep_labels:S:1 n_minim_iter=2 pbc="T T T"
P        1.75756118       1.81435494       7.06552892       0.00000000 NULL
P        3.67785945       3.62106569      14.18256183       0.00000000 NULL
P        1.81435494       3.67785945      10.62404537       0.00000000 NULL
P        3.62106569       1.75756118       3.50701246       0.00000000 NULL
P        4.19581528       1.45735409       0.31414149       0.00000000 NULL
P        1.23960535       3.97806654       7.43117440       0.00000000 NULL
P        1.45735409       1.23960535       3.87265794       0.00000000 NULL
P        3.97806654       4.19581528      10.98969085       0.00000000 NULL
P        1.19940867       0.36301397      14.20255074       0.00000000 NULL
P        4.23601195       5.07240666       7.08551783       0.00000000 NULL
P        0.36301397       4.23601195       3.52700137       0.00000000 NULL
P        5.07240666       1.19940867      10.64403428       0.00000000 NULL
P        2.64241671       0.11994188       8.21498503       0.00000000 NULL
P        2.79300392       5.31547875       1.09795212       0.00000000 NULL
P        0.11994188       2.79300392      11.77350148       0.00000000 NULL
P        5.31547875       2.64241671       4.65646857       0.00000000 NULL
P        2.19012760       0.79261961      10.08923830       0.00000000 NULL
P        3.24529303       4.64280102       2.97220538       0.00000000 NULL
P        0.79261961       3.24529303      13.64775475       0.00000000 NULL
P        4.64280102       2.19012760       6.53072184       0.00000000 NULL
20
Lattice="5.226021107169239 0.0 0.0 0.0 5.226021107169239 0.0 0.0 0.0 15.777363455360518" Properties=species:S:1:pos:R:3:initial_magmoms:R:1:castep_labels:S:1 n_minim_iter=3 pbc="T T T"
P        1.68552657       1.75138179       7.82645720       0.00000000 NULL
P        3.54049454       3.47463932      15.71513892       0.00000000 NULL
P        1.75138179       3.54049454      11.77079806       0.00000000 NULL
P        3.47463932       1.68552657       3.88211633       0.00000000 NULL
P        4.03787578       1.40427452       0.35133968       0.00000000 NULL
P        1.18814533       3.82174658       8.24002140       0.00000000 NULL
P        1.40427452       1.18814533       4.29568054       0.00000000 NULL
P        3.82174658       4.03787578      12.18436227       0.00000000 NULL
P        1.13755145       0.34796357      15.72930374       0.00000000 NULL
P        4.08846965       4.87805754       7.84062201       0.00000000 NULL
P        0.34796357       4.08846965       3.89628115       0.00000000 NULL
P        4.87805754       1.13755145      11.78496288       0.00000000 NULL
P        2.52930951       0.11454343       9.09941715       0.00000000 NULL
P        2.69671159       5.11147768       1.21073542       0.00000000 NULL
P        0.11454343       2.69671159      13.04375801       0.00000000 NULL
P        5.11147768       2.52930951       5.15507629       0.00000000 NULL
P        2.09933061       0.76127477      11.20452770       0.00000000 NULL
P        3.12669050       4.46474634       3.31584597       0.00000000 NULL
P        0.76127477       3.12669050      15.14886857       0.00000000 NULL
P        4.46474634       2.09933061       7.26018684       0.00000000 NULL
20
Lattice="5.098108214715577 0.0 0.0 0.0 5.098108214715577 0.0 0.0 0.0 15.863730700492969" Properties=species:S:1:pos:R:3:initial_magmoms:R:1:castep_labels:S:1 n_minim_iter=4 pbc="T T T"
P        1.64140154       1.71192023       7.86216685       0.00000000 NULL
P        3.45670668       3.38618799      15.79403220       0.00000000 NULL
P        1.71192023       3.45670668      11.82809952       0.00000000 NULL
P        3.38618799       1.64140154       3.89623417       0.00000000 NULL
P        3.94489243       1.36986718       0.35692296       0.00000000 NULL
P        1.15321578       3.72824103       8.28878831       0.00000000 NULL
P        1.36986718       1.15321578       4.32285563       0.00000000 NULL
P        3.72824103       3.94489243      12.25472098       0.00000000 NULL
P        1.09561534       0.33837535      15.79856493       0.00000000 NULL
P        4.00249287       4.75973287       7.86669958       0.00000000 NULL
P        0.33837535       4.00249287       3.90076691       0.00000000 NULL
P        4.75973287       1.09561534      11.83263226       0.00000000 NULL
P        2.45866498       0.11502879       9.15847529       0.00000000 NULL
P        2.63944323       4.98307942       1.22660994       0.00000000 NULL
P        0.11502879       2.63944323      13.12440797       0.00000000 NULL
P        4.98307942       2.45866498       5.19254262       0.00000000 NULL
P        2.04223039       0.74039468      11.27693218       0.00000000 NULL
P        3.05587782       4.35771354       3.34506683       0.00000000 NULL
P        0.74039468       3.05587782      15.24286485       0.00000000 NULL
P        4.35771354       2.04223039       7.31099950       0.00000000 NULL
20
Lattice="5.164096050786639 0.0 0.0 0.0 5.164096050786639 0.0 0.0 0.0 16.02164747224386" Properties=species:S:1:pos:R:3:initial_magmoms:R:1:castep_labels:S:1 n_minim_iter=5 pbc="T T T"
P        1.66211405       1.73443198       7.93706603       0.00000000 NULL
P        3.50198200       3.42966407      15.94788976       0.00000000 NULL
P        1.73443198       3.50198200      11.94247790       0.00000000 NULL
P        3.42966407       1.66211405       3.93165416       0.00000000 NULL
P        3.99884054       1.38663387       0.36206441       0.00000000 NULL
P        1.16525552       3.77746218       8.37288815       0.00000000 NULL
P        1.38663387       1.16525552       4.36747628       0.00000000 NULL
P        3.77746218       3.99884054      12.37830002       0.00000000 NULL
P        1.10456591       0.34265209      15.94941615       0.00000000 NULL
P        4.05953014       4.82144396       7.93859241       0.00000000 NULL
P        0.34265209       4.05953014       3.93318054       0.00000000 NULL
P        4.82144396       1.10456591      11.94400428       0.00000000 NULL
P        2.48808093       0.11788782       9.25401425       0.00000000 NULL
P        2.67601512       5.04620823       1.24319052       0.00000000 NULL
P        0.11788782       2.67601512      13.25942612       0.00000000 NULL
P        5.04620823       2.48808093       5.24860239       0.00000000 NULL
P        2.06638513       0.74974481      11.39301293       0.00000000 NULL
P        3.09771092       4.41435124       3.38218919       0.00000000 NULL
P        0.74974481       3.09771092      15.39842479       0.00000000 NULL
P        4.41435124       2.06638513       7.38760106       0.00000000 NULL
20
Lattice="5.140382300931558 0.0 0.0 0.0 5.140382300931558 0.0 0.0 0.0 15.991642736604177" Properties=species:S:1:pos:R:3:initial_magmoms:R:1:castep_labels:S:1 n_minim_iter=6 pbc="T T T"
P        1.65391837       1.72699962       7.92003530       0.00000000 NULL
P        3.48646393       3.41338268      15.91585667       0.00000000 NULL
P        1.72699962       3.48646393      11.91794599       0.00000000 NULL
P        3.41338268       1.65391837       3.92212462       0.00000000 NULL
P        3.98236646       1.37978669       0.36265161       0.00000000 NULL
P        1.15801584       3.76059561       8.35847298       0.00000000 NULL
P        1.37978669       1.15801584       4.36056229       0.00000000 NULL
P        3.76059561       3.98236646      12.35638366       0.00000000 NULL
P        1.09612481       0.34067716      15.91528438       0.00000000 NULL
P        4.04425749       4.79970515       7.91946301       0.00000000 NULL
P        0.34067716       4.04425749       3.92155233       0.00000000 NULL
P        4.79970515       1.09612481      11.91737370       0.00000000 NULL
P        2.47504353       0.11827535       9.23902142       0.00000000 NULL
P        2.66533877       5.02210695       1.24320005       0.00000000 NULL
P        0.11827535       2.66533877      13.23693210       0.00000000 NULL
P        5.02210695       2.47504353       5.24111073       0.00000000 NULL
P        2.05510991       0.74583882      11.37450232       0.00000000 NULL
P        3.08527239       4.39454348       3.37868096       0.00000000 NULL
P        0.74583882       3.08527239      15.37241301       0.00000000 NULL
P        4.39454348       2.05510991       7.37659164       0.00000000 NULL
20
Lattice="5.13484566802112 0.0 0.0 0.0 5.13484566802112 0.0 0.0 0.0 15.990272062803557" Properties=species:S:1:pos:R:3:initial_magmoms:R:1:castep_labels:S:1 n_minim_iter=7 pbc="T T T"
P        1.65157147       1.72563858       7.91670580       0.00000000 NULL
P        3.48327420       3.40920708      15.91184183       0.00000000 NULL
P        1.72563858       3.48327420      11.91427381       0.00000000 NULL
P        3.40920708       1.65157147       3.91913778       0.00000000 NULL
P        3.98041074       1.37759610       0.36413543       0.00000000 NULL
P        1.15443493       3.75724957       8.35927146       0.00000000 NULL
P        1.37759610       1.15443493       4.36170344       0.00000000 NULL
P        3.75724957       3.98041074      12.35683947       0.00000000 NULL
P        1.09098634       0.33990273      15.90891252       0.00000000 NULL
P        4.04385933       4.79494294       7.91377649       0.00000000 NULL
P        0.33990273       4.04385933       3.91620847       0.00000000 NULL
P        4.79494294       1.09098634      11.91134450       0.00000000 NULL
P        2.47061623       0.11925808       9.24105526       0.00000000 NULL
P        2.66422944       5.01558759       1.24591923       0.00000000 NULL
P        0.11925808       2.66422944      13.23862327       0.00000000 NULL
P        5.01558759       2.47061623       5.24348724       0.00000000 NULL
P        2.05077835       0.74459981      11.37684516       0.00000000 NULL
P        3.08406731       4.39024586       3.38170912       0.00000000 NULL
P        0.74459981       3.08406731      15.37441317       0.00000000 NULL
P        4.39024586       2.05077835       7.37927714       0.00000000 NULL
20
Lattice="5.058179279828694 0.0 0.0 0.0 5.058179279828694 0.0 0.0 0.0 15.896320114333646" Properties=species:S:1:pos:R:3:initial_magmoms:R:1:castep_labels:S:1 n_minim_iter=8 pbc="T T T"
P        1.61878907       1.70712998       7.82902874       0.00000000 NULL
P        3.43939021       3.35104930      15.77718880       0.00000000 NULL
P        1.70712998       3.43939021      11.80310877       0.00000000 NULL
P        3.35104930       1.61878907       3.85494871       0.00000000 NULL
P        3.95742351       1.34541654       0.38611536       0.00000000 NULL
P        1.10075577       3.71276274       8.33427542       0.00000000 NULL
P        1.34541654       1.10075577       4.36019539       0.00000000 NULL
P        3.71276274       3.95742351      12.30835545       0.00000000 NULL
P        1.01554971       0.32817986      15.73958140       0.00000000 NULL
P        4.04262957       4.72999942       7.79142134       0.00000000 NULL
P        0.32817986       4.04262957       3.81734131       0.00000000 NULL
P        4.72999942       1.01554971      11.76550137       0.00000000 NULL
P        2.40877960       0.13436485       9.22824577       0.00000000 NULL
P        2.64939968       4.92381443       1.28008572       0.00000000 NULL
P        0.13436485       2.64939968      13.20232580       0.00000000 NULL
P        4.92381443       2.40877960       5.25416575       0.00000000 NULL
P        1.98695121       0.72712752      11.36141241       0.00000000 NULL
P        3.07122807       4.33105176       3.41325235       0.00000000 NULL
P        0.72712752       3.07122807      15.33549244       0.00000000 NULL
P        4.33105176       1.98695121       7.38733238       0.00000000 NULL
20
Lattice="5.389904996367858 0.0 0.0 0.0 5.389904996367858 0.0 0.0 0.0 15.33553601327712" Properties=species:S:1:pos:R:3:initial_magmoms:R:1:castep_labels:S:1 n_minim_iter=9 pbc="T T T"
P        1.72702502       1.82142976       7.52531470       0.00000000 NULL
P        3.66287998       3.56847524      15.19308271       0.00000000 NULL
P        1.82142976       3.66287998      11.35919870       0.00000000 NULL
P        3.56847524       1.72702502       3.69143070       0.00000000 NULL
P        4.25074287       1.41691215       0.39537508       0.00000000 NULL
P        1.13916213       3.97299285       8.06314309       0.00000000 NULL
P        1.41691215       1.13916213       4.22925909       0.00000000 NULL
P        3.97299285       4.25074287      11.89702709       0.00000000 NULL
P        1.05430463       0.34381977      15.14930782       0.00000000 NULL
P        4.33560037       5.04608522       7.48153982       0.00000000 NULL
P        0.34381977       4.33560037       3.64765581       0.00000000 NULL
P        5.04608522       1.05430463      11.31542382       0.00000000 NULL
P        2.56792495       0.15524807       8.90903850       0.00000000 NULL
P        2.82198004       5.23465693       1.24127049       0.00000000 NULL
P        0.15524807       2.82198004      12.74292250       0.00000000 NULL
P        5.23465693       2.56792495       5.07515449       0.00000000 NULL
P        2.08513523       0.77397432      10.99392839       0.00000000 NULL
P        3.30476977       4.61593068       3.32616039       0.00000000 NULL
P        0.77397432       3.30476977      14.82781240       0.00000000 NULL
P        4.61593068       2.08513523       7.16004439       0.00000000 NULL
20
Lattice="5.086486888517924 0.0 0.0 0.0 5.086486888517924 0.0 0.0 0.0 15.071620329748129" Properties=species:S:1:pos:R:3:initial_magmoms:R:1:castep_labels:S:1 n_minim_iter=10 pbc="T T T"
P        1.62870017       1.72071881       7.39551868       0.00000000 NULL
P        3.45778672       3.36576808      14.93132885       0.00000000 NULL
P        1.72071881       3.45778672      11.16342376       0.00000000 NULL
P        3.36576808       1.62870017       3.62761360       0.00000000 NULL
P        4.01255039       1.33730065       0.38997440       0.00000000 NULL
P        1.07393650       3.74918624       7.92578456       0.00000000 NULL
P        1.33730065       1.07393650       4.15787948       0.00000000 NULL
P        3.74918624       4.01255039      11.69368964       0.00000000 NULL
P        0.99376395       0.32280099      14.88698238       0.00000000 NULL
P        4.09272294       4.76368590       7.35117221       0.00000000 NULL
P        0.32280099       4.09272294       3.58326713       0.00000000 NULL
P        4.76368590       0.99376395      11.11907729       0.00000000 NULL
P        2.42236013       0.14675796       8.75330133       0.00000000 NULL
P        2.66412676       4.93972893       1.21749117       0.00000000 NULL
P        0.14675796       2.66412676      12.52120642       0.00000000 NULL
P        4.93972893       2.42236013       4.98539625       0.00000000 NULL
P        1.96510325       0.72876352      10.80764791       0.00000000 NULL
P        3.12138364       4.35772337       3.27183774       0.00000000 NULL
P        0.72876352       3.12138364      14.57555299       0.00000000 NULL
P        4.35772337       1.96510325       7.03974283       0.00000000 NULL
20
Lattice="5.112623231463461 0.0 0.0 0.0 5.112623231463461 0.0 0.0 0.0 15.27163114883928" Properties=species:S:1:pos:R:3:initial_magmoms:R:1:castep_labels:S:1 n_minim_iter=11 pbc="T T T"
P        1.63719754       1.73054141       7.49194544       0.00000000 NULL
P        3.47542569       3.38208182      15.12776102       0.00000000 NULL
P        1.73054141       3.47542569      11.30985323       0.00000000 NULL
P        3.38208182       1.63719754       3.67403766       0.00000000 NULL
P        4.03511555       1.34367256       0.39645764       0.00000000 NULL
P        1.07750768       3.76895067       8.03227321       0.00000000 NULL
P        1.34367256       1.07750768       4.21436543       0.00000000 NULL
P        3.76895067       4.03511555      11.85018100       0.00000000 NULL
P        0.99721082       0.32415528      15.08254637       0.00000000 NULL
P        4.11541241       4.78846795       7.44673079       0.00000000 NULL
P        0.32415528       4.11541241       3.62882301       0.00000000 NULL
P        4.78846795       0.99721082      11.26463858       0.00000000 NULL
P        2.43473851       0.14787014       8.86879788       0.00000000 NULL
P        2.67788472       4.96475309       1.23298231       0.00000000 NULL
P        0.14787014       2.67788472      12.68670567       0.00000000 NULL
P        4.96475309       2.43473851       5.05089009       0.00000000 NULL
P        1.97305302       0.73243939      10.95414410       0.00000000 NULL
P        3.13957021       4.38018384       3.31832853       0.00000000 NULL
P        0.73243939       3.13957021      14.77205189       0.00000000 NULL
P        4.38018384       1.97305302       7.13623631       0.00000000 NULL
20
Lattice="5.09916321301409 0.0 0.0 0.0 5.09916321301409 0.0 0.0 0.0 15.3416051264982" Properties=species:S:1:pos:R:3:initial_magmoms:R:1:castep_labels:S:1 n_minim_iter=12 pbc="T T T"
P        1.63288216       1.72701518       7.52476945       0.00000000 NULL
P        3.46628105       3.37214803      15.19557201       0.00000000 NULL
P        1.72701518       3.46628105      11.36017073       0.00000000 NULL
P        3.37214803       1.63288216       3.68936816       0.00000000 NULL
P        4.02631752       1.33965382       0.39971944       0.00000000 NULL
P        1.07284569       3.75950939       8.07052201       0.00000000 NULL
P        1.33965382       1.07284569       4.23512073       0.00000000 NULL
P        3.75950939       4.02631752      11.90592329       0.00000000 NULL
P        0.99305727       0.32283869      15.14968729       0.00000000 NULL
P        4.10610594       4.77632453       7.47888473       0.00000000 NULL
P        0.32283869       4.10610594       3.64348345       0.00000000 NULL
P        4.77632453       0.99305727      11.31428601       0.00000000 NULL
P        2.42818158       0.14796531       8.90876646       0.00000000 NULL
P        2.67098163       4.95119790       1.23796390       0.00000000 NULL
P        0.14796531       2.67098163      12.74416774       0.00000000 NULL
P        4.95119790       2.42818158       5.07336518       0.00000000 NULL
P        1.96565154       0.73018362      11.00702861       0.00000000 NULL
P        3.13351168       4.36897959       3.33622605       0.00000000 NULL
P        0.73018362       3.13351168      14.84242990       0.00000000 NULL
P        4.36897959       1.96565154       7.17162733       0.00000000 NULL
20
Lattice="5.092062695859165 0.0 0.0 0.0 5.092062695859165 0.0 0.0 0.0 15.433368505205662" Properties=species:S:1:pos:R:3:initial_magmoms:R:1:castep_labels:S:1 n_minim_iter=13 pbc="T T T"
P        1.63072374       1.72653982       7.56673984       0.00000000 NULL
P        3.46133896       3.36552288      15.28342409       0.00000000 NULL
P        1.72653982       3.46133896      11.42508196       0.00000000 NULL
P        3.36552288       1.63072374       3.70839771       0.00000000 NULL
P        4.02442724       1.33672905       0.40509415       0.00000000 NULL
P        1.06763546       3.75533365       8.12177840       0.00000000 NULL
P        1.33672905       1.06763546       4.26343627       0.00000000 NULL
P        3.75533365       4.02442724      11.98012053       0.00000000 NULL
P        0.98873668       0.32158117      15.23636500       0.00000000 NULL
P        4.10332601       4.77048153       7.51968075       0.00000000 NULL
P        0.32158117       4.10332601       3.66133862       0.00000000 NULL
P        4.77048153       0.98873668      11.37802287       0.00000000 NULL
P        2.42462231       0.14885731       8.96109630       0.00000000 NULL
P        2.66744038       4.94320538       1.24441205       0.00000000 NULL
P        0.14885731       2.66744038      12.81943843       0.00000000 NULL
P        4.94320538       2.42462231       5.10275418       0.00000000 NULL
P        1.95859500       0.72852527      11.07781368       0.00000000 NULL
P        3.13346770       4.36353743       3.36112942       0.00000000 NULL
P        0.72852527       3.13346770      14.93615580       0.00000000 NULL
P        4.36353743       1.95859500       7.21947155       0.00000000 NULL
20
Lattice="5.085329885511868 0.0 0.0 0.0 5.085329885511868 0.0 0.0 0.0 15.433105627611363" Properties=species:S:1:pos:R:3:initial_magmoms:R:1:castep_labels:S:1 n_minim_iter=14 pbc="T T T"
P        1.62886889       1.72699743       7.56227374       0.00000000 NULL
P        3.45646100       3.35833245      15.27882655       0.00000000 NULL
P        1.72699743       3.45646100      11.42055014       0.00000000 NULL
P        3.35833245       1.62886889       3.70399733       0.00000000 NULL
P        4.02459870       1.33330398       0.40972064       0.00000000 NULL
P        1.06073118       3.75202591       8.12627346       0.00000000 NULL
P        1.33330398       1.06073118       4.26799705       0.00000000 NULL
P        3.75202591       4.02459870      11.98454986       0.00000000 NULL
P        0.98338667       0.32007055      15.23038377       0.00000000 NULL
P        4.10194322       4.76525934       7.51383096       0.00000000 NULL
P        0.32007055       4.10194322       3.65555455       0.00000000 NULL
P        4.76525934       0.98338667      11.37210736       0.00000000 NULL
P        2.42127236       0.15047964       8.95995294       0.00000000 NULL
P        2.66405753       4.93485025       1.24340013       0.00000000 NULL
P        0.15047964       2.66405753      12.81822935       0.00000000 NULL
P        4.93485025       2.42127236       5.10167654       0.00000000 NULL
P        1.94974447       0.72649639      11.08404124       0.00000000 NULL
P        3.13558542       4.35883350       3.36748842       0.00000000 NULL
P        0.72649639       3.13558542      14.94231764       0.00000000 NULL
P        4.35883350       1.94974447       7.22576483       0.00000000 NULL
20
Lattice="5.1004195544322855 0.0 0.0 0.0 5.1004195544322855 0.0 0.0 0.0 15.400705964751454" Properties=species:S:1:pos:R:3:initial_magmoms:R:1:castep_labels:S:1 n_minim_iter=15 pbc="T T T"
P        1.63427968       1.73550071       7.54116872       0.00000000 NULL
P        3.46613987       3.36491884      15.24152170       0.00000000 NULL
P        1.73550071       3.46613987      11.39134521       0.00000000 NULL
P        3.36491884       1.63427968       3.69099223       0.00000000 NULL
P        4.04329550       1.33521900       0.41469876       0.00000000 NULL
P        1.05712406       3.76520055       8.11505174       0.00000000 NULL
P        1.33521900       1.05712406       4.26487525       0.00000000 NULL
P        3.76520055       4.04329550      11.96522823       0.00000000 NULL
P        0.98163368       0.31991597      15.19160075       0.00000000 NULL
P        4.11878588       4.78050359       7.49124777       0.00000000 NULL
P        0.31991597       4.11878588       3.64107128       0.00000000 NULL
P        4.78050359       0.98163368      11.34142426       0.00000000 NULL
P        2.42835282       0.15323643       8.94013397       0.00000000 NULL
P        2.67206674       4.94718312       1.23978098       0.00000000 NULL
P        0.15323643       2.67206674      12.79031046       0.00000000 NULL
P        4.94718312       2.42835282       5.08995748       0.00000000 NULL
P        1.94803233       0.72727356      11.06798038       0.00000000 NULL
P        3.15238723       4.37314599       3.36762739       0.00000000 NULL
P        0.72727356       3.15238723      14.91815687       0.00000000 NULL
P        4.37314599       1.94803233       7.21780389       0.00000000 NULL
20
Lattice="5.084657893295806 0.0 0.0 0.0 5.084657893295806 0.0 0.0 0.0 15.359624062732166" Properties=species:S:1:pos:R:3:initial_magmoms:R:1:castep_labels:S:1 n_minim_iter=16 pbc="T T T"
P        1.62935900       1.73148273       7.51930058       0.00000000 NULL
P        3.45529890       3.35317517      15.19911261       0.00000000 NULL
P        1.73148273       3.45529890      11.35920659       0.00000000 NULL
P        3.35317517       1.62935900       3.67939456       0.00000000 NULL
P        4.03311972       1.33041984       0.41579395       0.00000000 NULL
P        1.05153817       3.75423805       8.09560598       0.00000000 NULL
P        1.33041984       1.05153817       4.25569997       0.00000000 NULL
P        3.75423805       4.03311972      11.93551200       0.00000000 NULL
P        0.97700608       0.31848014      15.14869500       0.00000000 NULL
P        4.10765182       4.76617775       7.46888297       0.00000000 NULL
P        0.31848014       4.10765182       3.62897695       0.00000000 NULL
P        4.76617775       0.97700608      11.30878898       0.00000000 NULL
P        2.42070827       0.15356344       8.91571264       0.00000000 NULL
P        2.66394962       4.93109445       1.23590061       0.00000000 NULL
P        0.15356344       2.66394962      12.75561866       0.00000000 NULL
P        4.93109445       2.42070827       5.07580663       0.00000000 NULL
P        1.93928966       0.72438097      11.04096143       0.00000000 NULL
P        3.14536823       4.36027692       3.36114940       0.00000000 NULL
P        0.72438097       3.14536823      14.88086745       0.00000000 NULL
P        4.36027692       1.93928966       7.20105542       0.00000000 NULL
20
Lattice="5.091794815642649 0.0 0.0 0.0 5.091794815642649 0.0 0.0 0.0 15.358150688780958" Properties=species:S:1:pos:R:3:initial_magmoms:R:1:castep_labels:S:1 n_minim_iter=17 pbc="T T T"
P        1.63181627       1.73475831       7.51738363       0.00000000 NULL
P        3.45997854       3.35703650      15.19645898       0.00000000 NULL
P        1.73475831       3.45997854      11.35692131       0.00000000 NULL
P        3.35703650       1.63181627       3.67784596       0.00000000 NULL
P        4.04033666       1.33184063       0.41716854       0.00000000 NULL
P        1.05145816       3.75995418       8.09624388       0.00000000 NULL
P        1.33184063       1.05145816       4.25670621       0.00000000 NULL
P        3.75995418       4.04033666      11.93578155       0.00000000 NULL
P        0.97736136       0.31872925      15.14571561       0.00000000 NULL
P        4.11443346       4.77306556       7.46664026       0.00000000 NULL
P        0.31872925       4.11443346       3.62710259       0.00000000 NULL
P        4.77306556       0.97736136      11.30617793       0.00000000 NULL
P        2.42406086       0.15430565       8.91457884       0.00000000 NULL
P        2.66773395       4.93748916       1.23550350       0.00000000 NULL
P        0.15430565       2.66773395      12.75411651       0.00000000 NULL
P        4.93748916       2.42406086       5.07504117       0.00000000 NULL
P        1.94031059       0.72503278      11.04148832       0.00000000 NULL
P        3.15148423       4.36676204       3.36241297       0.00000000 NULL
P        0.72503278       3.15148423      14.88102599       0.00000000 NULL
P        4.36676204       1.94031059       7.20195065       0.00000000 NULL
20
Lattice="5.091876813236099 0.0 0.0 0.0 5.091876813236099 0.0 0.0 0.0 15.346025669700234" Properties=species:S:1:pos:R:3:initial_magmoms:R:1:castep_labels:S:1 n_minim_iter=18 pbc="T T T"
P        1.63198877       1.73569925       7.51023585       0.00000000 NULL
P        3.45988804       3.35617756      15.18324869       0.00000000 NULL
P        1.73569925       3.45988804      11.34674227       0.00000000 NULL
P        3.35617756       1.63198877       3.67372943       0.00000000 NULL
P        4.04199813       1.33140796       0.41834004       0.00000000 NULL
P        1.04987868       3.76046885       8.09135287       0.00000000 NULL
P        1.33140796       1.04987868       4.25484645       0.00000000 NULL
P        3.76046885       4.04199813      11.92785929       0.00000000 NULL
P        0.97632736       0.31850105      15.13217351       0.00000000 NULL
P        4.11554945       4.77337576       7.45916068       0.00000000 NULL