14
Lattice="3.196918236394578 -0.02208555745920665 0.5193264869760454 -0.2302226072016913 7.560709746641386 1.7117113076109753 1.6626762754743467 1.3984820050398377 17.84597607340747" Properties=species:S:1:pos:R:3:initial_magmoms:R:1:castep_labels:S:1:forces:R:3 n_minim_iter=19 energy=-74.606308786854 stress="-1.2234542790471084e-06 -9.079949894496677e-05 4.2317124475276456e-05 -9.079949894496677e-05 -0.0001765852342757993 -1.8135910489404196e-05 4.2317124475276456e-05 -1.8135910489404196e-05 -4.358855735350188e-05" free_energy=-74.606308786854 pbc="T T T"
P        1.71554705       5.52950985       4.83927484       0.00000000 NULL      -0.00630100      -0.00148500      -0.00066600
P        2.91382485       3.40759634      15.23773903       0.00000000 NULL       0.00630100       0.00148500       0.00066600
P        2.04119821       4.85541784       2.78643012       0.00000000 NULL       0.00446500       0.00803300       0.00132800
P        2.58817370       4.08168835      17.29058375       0.00000000 NULL      -0.00446500      -0.00803300      -0.00132800
P        0.34596864       6.53083926       3.20123346       0.00000000 NULL       0.00230600       0.00105500       0.00388300
P        4.28340327       2.40626694      16.87578041       0.00000000 NULL      -0.00230600      -0.00105500      -0.00388300
P        1.92987767       1.41833357       3.33910972       0.00000000 NULL      -0.00255300      -0.00801800      -0.00305900
P        2.69949423       7.51877262      16.73790415       0.00000000 NULL       0.00255300       0.00801800       0.00305900
P        4.20349893       5.82193980      17.51497107       0.00000000 NULL      -0.00209400      -0.00187100       0.00786800
P        0.42587298       3.11516640       2.56204280       0.00000000 NULL       0.00209400       0.00187100      -0.00786800
P        4.54261760       6.47205617      15.44177327       0.00000000 NULL       0.00360700       0.00491700      -0.00771500
P        0.08675430       2.46505002       4.63524059       0.00000000 NULL      -0.00360700      -0.00491800       0.00771500
P        3.11582501       5.34798648      14.07925323       0.00000000 NULL      -0.00315100      -0.00464400       0.00108500
P        1.51354689       3.58911971       5.99776064       0.00000000 NULL       0.00315100       0.00464400      -0.00108500
