8
Lattice="5.379444841206939 1.9082595250341925 0.537519483925718 4.149262554783835 9.229701916195522 2.2144894365659735 2.6677450892722665 3.147521994088065 4.69535253092925" Properties=species:S:1:pos:R:3:initial_magmoms:R:1:castep_labels:S:1:forces:R:3 n_minim_iter=1 energy=-42.451178764514 stress="2.336205977181416e-05 3.700012084279468e-05 6.238036902421583e-06 3.700012084279468e-05 0.0001387045852420799 6.238036902421583e-05 6.238036902421583e-06 6.238036902421583e-05 9.785155925367188e-05" free_energy=-42.451178764514 pbc="T T T"
P        6.54688483       9.95176740       4.28090074       0.00000000 NULL       0.00033300      -0.00264300       0.00256000
P        3.00844783       7.92135584       2.41594429       0.00000000 NULL       0.00292900       0.00098900       0.00108600
P        9.32874129       5.68424693       4.64781094       0.00000000 NULL       0.00052400      -0.00209500      -0.00309200
P        3.62517221       4.01699107       1.80986382       0.00000000 NULL       0.00192400      -0.00024100       0.00273200
P        5.28441267       5.00167299       2.84198516       0.00000000 NULL      -0.00146800      -0.00009100      -0.00259500
P        8.52597241       7.63747116       3.83131012       0.00000000 NULL      -0.00447200       0.00755100       0.00083400
P        8.69689197       9.66873705       5.11506151       0.00000000 NULL      -0.00168300      -0.00120100       0.00174600
P        6.28281607       7.70283508       4.20374845       0.00000000 NULL       0.00191500      -0.00226800      -0.00327100
