10
Lattice="5.393259649210862 4.532953890159003e-18 1.0557865877235821 7.801107147684791e-17 5.077847351526854 -1.1849362972035797e-16 0.45324891308750914 2.8321295397087157e-16 6.779389474185053" Properties=species:S:1:pos:R:3:initial_magmoms:R:1:castep_labels:S:1:forces:R:3 n_minim_iter=1 energy=-55.318177183236 stress="0.0003163758470576863 -0.0 8.508365457356096e-05 -0.0 0.00032734558058513064 0.0 8.508365457356096e-05 0.0 0.00026589324251596473" free_energy=-55.318177183236 pbc="T T T"
P        2.24351193       3.86264639       3.02473008       0.00000000 NULL       0.00380700       0.00195200       0.00100800
P        2.24351193       1.21520096       3.02473008       0.00000000 NULL       0.00380700      -0.00195200       0.00100800
P        2.84464590       1.16343530       6.35862448       0.00000000 NULL      -0.00085000      -0.00308800      -0.00138200
P        2.84464590       3.91441206       6.35862448       0.00000000 NULL      -0.00085000       0.00308800      -0.00138200
P        1.03045695       3.71595522       4.92045097       0.00000000 NULL      -0.00062800       0.00096700       0.00203900
P        1.03045695       1.36189213       4.92045097       0.00000000 NULL      -0.00062800      -0.00096700       0.00203900
P        4.32233689       1.34863856       4.49292467       0.00000000 NULL      -0.00379100       0.00232100       0.00027600
P        4.32233689       3.72920879       4.49292467       0.00000000 NULL      -0.00379100      -0.00232100       0.00027600
P        0.41469889       3.92080720       1.57711174       0.00000000 NULL       0.00146200      -0.00567500      -0.00194100
P        0.41469889       1.15704016       1.57711174       0.00000000 NULL       0.00146200       0.00567500      -0.00194100
