18
Lattice="5.761502104774181 0.08822480881003077 0.0 -2.4259223900580866 6.723198087686899 0.0 0.0 0.0 10.216518058366011" Properties=species:S:1:pos:R:3:initial_magmoms:R:1:castep_labels:S:1:forces:R:3 n_minim_iter=17 energy=-97.784946703242 stress="0.00014733718336925987 -3.1311978590840495e-05 0.0 -3.1311978590840495e-05 -8.4763486185317e-05 -0.0 0.0 -0.0 0.00012137789453752775" free_energy=-97.784946703242 pbc="T T T"
P        0.63033974       3.50070932       9.10935620       0.00000000 NULL      -0.00259000      -0.00369800       0.00290000
P        0.63033974       3.50070932       1.10716186       0.00000000 NULL      -0.00259000      -0.00369800      -0.00290000
P       -1.27655304       4.75248911       3.98599906       0.00000000 NULL       0.00238100       0.00214800       0.00139000
P       -1.27655304       4.75248911       6.23051899       0.00000000 NULL       0.00238100       0.00214800      -0.00139000
P        1.86418026       0.41361332       9.11506091       0.00000000 NULL       0.00004600       0.00042100       0.00360700
P        1.86418026       0.41361332       1.10145715       0.00000000 NULL       0.00004600       0.00042100      -0.00360700
P        2.26388027       0.29608853       6.24062060       0.00000000 NULL       0.00403500       0.00733600       0.00117100
P        2.26388027       0.29608853       3.97589746       0.00000000 NULL       0.00403500       0.00733600      -0.00117100
P        3.36952867       2.55910617       3.98068351       0.00000000 NULL       0.00035600       0.00177100       0.00594700
P        3.36952867       2.55910617       6.23583455       0.00000000 NULL       0.00035600       0.00177100      -0.00594700
P       -0.12961640       1.41276667       9.02062250       0.00000000 NULL      -0.00366600      -0.00042700      -0.00411100
P       -0.12961640       1.41276667       1.19589556       0.00000000 NULL      -0.00366600      -0.00042700       0.00411100
P        0.78512524       3.72926539       6.24711888       0.00000000 NULL       0.00243300       0.00150300      -0.00608200
P        0.78512524       3.72926539       3.96939917       0.00000000 NULL       0.00243300       0.00150300       0.00608200
P        1.92112402       6.02547693       6.23348002       0.00000000 NULL      -0.00152400      -0.00520600       0.00083100
P        1.92112402       6.02547693       3.98303804       0.00000000 NULL      -0.00152400      -0.00520600      -0.00083100
P        5.45171638       1.57072493       6.25731643       0.00000000 NULL      -0.00147200      -0.00384800      -0.00731500
P        5.45171638       1.57072493       3.95920163       0.00000000 NULL      -0.00147200      -0.00384800       0.00731500
