32
Lattice="8.909401310679941 -0.9540593188540464 0.10725159422413513 -2.426095905175859 8.625643138776766 0.10725159422413201 -2.8188283327628487 -3.335471102503446 8.77486389304983" Properties=species:S:1:pos:R:3:initial_magmoms:R:1:castep_labels:S:1:forces:R:3 n_minim_iter=14 energy=-171.204161292339 stress="5.597724051383442e-06 -4.160470578730937e-06 -2.6173142186198257e-06 -4.160470578730937e-06 4.190728546576253e-06 -3.1014417041448805e-06 -2.6173142186198257e-06 -3.1014417041448805e-06 6.5205920706655774e-06" free_energy=-171.204161292339 pbc="T T T"
P        0.69163685       3.37624676       2.35448268       0.00000000 NULL      -0.00007300      -0.00127900      -0.00082200
P        3.21368205       1.24484995       2.35448268       0.00000000 NULL      -0.00124900      -0.00028500      -0.00082200
P        0.60530279      -0.98310671       3.83915027       0.00000000 NULL       0.00277200      -0.00563500       0.00179300
P       -1.07026420       0.43292586       3.83915027       0.00000000 NULL      -0.00601800       0.00179400       0.00179300
P        3.11134306       5.28730912       3.59733450       0.00000000 NULL      -0.00028500      -0.00112200      -0.00285700
P        4.69457993       3.94930534       3.59733450       0.00000000 NULL      -0.00106000      -0.00046700      -0.00285700
P        2.54419465       5.46540325       0.01778816       0.00000000 NULL       0.00057100       0.00220300      -0.00430000
P        4.96473734       3.41978687       0.01778816       0.00000000 NULL       0.00207800       0.00092900      -0.00429900
P        2.69400363       1.43295672       5.51900593       0.00000000 NULL       0.00034600      -0.00521000      -0.00050900
P        0.96375249       2.89520321       5.51900593       0.00000000 NULL      -0.00519500      -0.00052700      -0.00050900
P       -3.28120660       0.96139467       7.87026610       0.00000000 NULL       0.00090500       0.00314700       0.00652300
P        1.49498699      -3.07499761       7.87026610       0.00000000 NULL       0.00295300       0.00141700       0.00652400
P        1.48515002       3.48343492       9.08958019       0.00000000 NULL      -0.00193500       0.00590200       0.00025700
P        3.18707423       2.04512770       9.08958019       0.00000000 NULL       0.00614000      -0.00092300       0.00025600
P        3.86046656       2.80009140       6.90905676       0.00000000 NULL      -0.00337800       0.00102900      -0.00079900
P        2.11727822       4.27327121       6.90905676       0.00000000 NULL       0.00157800      -0.00316000      -0.00079900
P        6.23554213       2.06710583       1.35298481       0.00000000 NULL      -0.00291800       0.00211000      -0.00636800
P        0.99857512       6.49290073       1.35298481       0.00000000 NULL       0.00256600      -0.00252500      -0.00636800
P        1.45275506      -0.06259107       1.96991471       0.00000000 NULL       0.00451600      -0.00118000      -0.00179600
P       -0.30392068       1.42198704       1.96991471       0.00000000 NULL      -0.00191700       0.00425600      -0.00179600
P        0.97281753       6.86128773      -0.81047775       0.00000000 NULL       0.00492100      -0.00374400       0.00505900
P        6.60306754       2.10312682      -0.81047775       0.00000000 NULL      -0.00451200       0.00422800       0.00505900
P        4.82601605       0.17275286       1.22574293       0.00000000 NULL       0.00101800      -0.00112000       0.00027700
P       -0.63426608       4.78727282       1.22574293       0.00000000 NULL      -0.00127400       0.00081700       0.00027800
P        5.57549958       3.80587459       5.55871339       0.00000000 NULL      -0.00133800       0.00046200       0.00328000
P        2.82305143       6.13198642       5.55871339       0.00000000 NULL       0.00068000      -0.00124300       0.00327900
P       -2.09158012       3.08048182       4.55883803       0.00000000 NULL       0.00217000      -0.00173100      -0.00091300
P        3.38607900      -1.54872355       4.55883803       0.00000000 NULL      -0.00206800       0.00185000      -0.00091400
P        4.25236705       0.47008140       4.20870327       0.00000000 NULL       0.00364500      -0.00351600       0.00691100
P       -0.24545927       4.27122368       4.20870327       0.00000000 NULL      -0.00407400       0.00300800       0.00691100
P       -0.89110601       1.59973195       5.74782301       0.00000000 NULL       0.00181100      -0.00108900      -0.00573600
P        1.72590873      -0.61192424       5.74782301       0.00000000 NULL      -0.00137500       0.00160500      -0.00573600
