24
Lattice="6.301445150669802 -0.24336508843488244 0.0 -2.4066752450731257 5.826422359476222 0.0 0.0 0.0 16.521439451753256" Properties=species:S:1:pos:R:3:initial_magmoms:R:1:castep_labels:S:1:forces:R:3 n_minim_iter=9 energy=-130.907350848651 stress="2.8145135118259028e-06 4.67410279642516e-06 -0.0 4.67410279642516e-06 1.340244529440906e-06 -0.0 -0.0 -0.0 -1.2229731331148268e-06" free_energy=-130.907350848651 pbc="T T T"
P       -1.27204242       0.42397519       9.37255646       0.00000000 NULL      -0.00165600      -0.00393100       0.00502500
P       -1.27204242       0.42397519       7.14888299       0.00000000 NULL      -0.00165600      -0.00393100      -0.00502500
P       -0.97995568       6.27525107      11.40612441       0.00000000 NULL       0.00432000       0.00064300       0.00286300
P       -0.97995568       6.27525107       5.11531504       0.00000000 NULL       0.00432000       0.00064300      -0.00286300
P       -0.66692411       6.05354314      14.55340154       0.00000000 NULL      -0.00014500      -0.00251100      -0.00225000
P       -0.66692411       6.05354314       1.96803791       0.00000000 NULL      -0.00014500      -0.00251100       0.00225000
P        4.78921699       4.46942067       3.59747108       0.00000000 NULL      -0.00039900       0.00178100      -0.00210300
P        4.78921699       4.46942067      12.92396837       0.00000000 NULL      -0.00039900       0.00178100       0.00210300
P        1.75217729       4.37215836       4.88728514       0.00000000 NULL       0.00110200       0.00411000      -0.00253900
P        1.75217729       4.37215836      11.63415431       0.00000000 NULL       0.00110200       0.00411000       0.00253900
P        0.52082592       2.99473407       7.14849581       0.00000000 NULL      -0.00258900       0.00042000       0.00256800
P        0.52082592       2.99473407       9.37294364       0.00000000 NULL      -0.00258900       0.00042000      -0.00256800
P        2.70610232       1.48736043       3.59375724       0.00000000 NULL       0.00526700      -0.00360200       0.00140700
P        2.70610232       1.48736043      12.92768221       0.00000000 NULL       0.00526700      -0.00360200      -0.00140700
P        4.59053095       2.39658346       9.42294606       0.00000000 NULL       0.00130500       0.00240000       0.00061500
P        4.59053095       2.39658346       7.09849339       0.00000000 NULL       0.00130500       0.00240000      -0.00061500
P        0.51062232       5.24072995      10.00995668       0.00000000 NULL      -0.00296100      -0.00055900       0.00251100
P        0.51062232       5.24072995       6.51148277       0.00000000 NULL      -0.00296100      -0.00055900      -0.00251100
P        0.34234062       3.39079912      13.06085936       0.00000000 NULL      -0.00361500      -0.00345900       0.00721300
P        0.34234062       3.39079912       3.46058009       0.00000000 NULL      -0.00361500      -0.00345900      -0.00721300
P        1.20527567       4.74789746       1.85593856       0.00000000 NULL       0.00013300       0.00097800      -0.00784100
P        1.20527567       4.74789746      14.66550089       0.00000000 NULL       0.00013300       0.00097800       0.00784100
P        2.18263410       6.03130433       3.45515559       0.00000000 NULL      -0.00076200       0.00372900      -0.00092300
P        2.18263410       6.03130433      13.06628386       0.00000000 NULL      -0.00076200       0.00372900       0.00092300
