4
Lattice="3.5909183914579237 0.4765894361854633 -0.2118738365391171 -0.5225424382375063 3.695893293272315 -0.13501563973470704 -2.2706448341263026 -1.0025249435883339 7.244216379632028" Properties=species:S:1:pos:R:3:initial_magmoms:R:1:castep_labels:S:1:forces:R:3 n_minim_iter=15 energy=-20.27353066185 stress="0.0002684976744307064 -1.4939753869101563e-05 7.522113836190996e-05 -1.4939753869101563e-05 -1.23279087870908e-05 0.00014647227219916358 7.522113836190996e-05 0.00014647227219916358 0.00014908411728117434" free_energy=-20.27353066185 pbc="T T T"
P        2.22492351       3.24906475       1.37707972       0.00000000 NULL       0.00283100       0.00211200       0.00560600
P       -1.25925808       3.01246102       3.72217366       0.00000000 NULL      -0.00055800      -0.00374000      -0.00185300
P        0.62242521       1.52659846       1.36010634       0.00000000 NULL      -0.00392700      -0.00049400      -0.00003900
P        0.95462982       1.53566958       6.58521070       0.00000000 NULL       0.00165400       0.00212100      -0.00371400
