48
Lattice="8.731091684508124 1.4465157905507408e-40 4.488984189560759e-39 -2.6481302622572093e-40 11.389010112895837 2.588222744057063e-13 -4.882952315170946e-39 -5.694505056448144 9.863172081725542" Properties=species:S:1:pos:R:3:initial_magmoms:R:1:castep_labels:S:1:forces:R:3 n_minim_iter=18 energy=-256.105052112584 stress="2.334878773269457e-05 -0.0 -0.0 -0.0 -2.4766028560137602e-05 0.0 -0.0 0.0 -2.4766028560137602e-05" free_energy=-256.105052112584 pbc="T T T"
P        8.39160192       7.14661671       5.59305476       0.00000000 NULL      -0.00015900       0.00337000       0.00000900
P        2.57087413       6.96492420       0.87749308       0.00000000 NULL      -0.00016200      -0.00167700      -0.00292300
P        5.48123802       2.97197425       3.39262425       0.00000000 NULL      -0.00016200      -0.00169300       0.00291400
P        1.91972527       8.50935417       2.37320871       0.00000000 NULL      -0.00092300      -0.00051000      -0.00014900
P        4.83008916       3.49508700       1.30725085       0.00000000 NULL      -0.00092300       0.00012600       0.00051600
P        7.74045306       5.07907400       6.18271253       0.00000000 NULL      -0.00092100       0.00038300      -0.00036800
P        3.33512560       6.53535845      10.17546155       0.00000000 NULL      -0.00390100      -0.00315900       0.00055800
P        6.24548949      -0.14997609      -0.88434514       0.00000000 NULL      -0.00390100       0.00206300       0.00245700
P        9.15585339      -6.38538237      10.43522775       0.00000000 NULL      -0.00390200       0.00109600      -0.00301500
P        2.10917378       2.30365151       1.50877949       0.00000000 NULL      -0.00040700       0.00237500       0.00270700
P        5.01953767       5.84932067       7.11376161       0.00000000 NULL      -0.00040600       0.00115600      -0.00341000
P        7.92990157       8.93054299       1.24063098       0.00000000 NULL      -0.00040600      -0.00353100       0.00070300
P        0.68216768       0.57068645       3.79047640       0.00000000 NULL       0.00127900       0.00210700       0.00149900
P        3.59253157      -2.69719943       7.47370492       0.00000000 NULL       0.00128000       0.00024500      -0.00257400
P        6.50289547       2.12651298       8.46216285       0.00000000 NULL       0.00128000      -0.00235100       0.00107500
P        8.80358769      -3.53671104       7.73171757       0.00000000 NULL       0.00314100       0.00710400       0.00151400
P        2.98285990       2.76971428       9.06019490       0.00000000 NULL       0.00314200      -0.00224000      -0.00690900
P        5.89322380       0.76699675       2.93443170       0.00000000 NULL       0.00314300      -0.00486200       0.00539500
P        5.49964600      -3.40044436       6.54268941       0.00000000 NULL       0.00058600      -0.00395300       0.00327400
P       -0.32108179       1.67185236       9.53669858       0.00000000 NULL       0.00058600       0.00481300       0.00178700
P        2.58928211       1.72859200       3.64695618       0.00000000 NULL       0.00058500      -0.00085900      -0.00506100
P        8.35576455       5.54688398       8.33267832       0.00000000 NULL      -0.00226500       0.00026900       0.00015800
P        2.53503676      10.13737417       0.89309049       0.00000000 NULL      -0.00226500       0.00000200      -0.00031200
P        5.44540065       1.39925702       0.63740328       0.00000000 NULL      -0.00226500      -0.00027100       0.00015500
P        3.01455537       6.54766477       7.96294497       0.00000000 NULL       0.00150600       0.00502400       0.00553300
P        5.92491927       9.31678530       0.21125558       0.00000000 NULL       0.00150700       0.00227900      -0.00711800
P        8.83528316       1.21906510       1.68897154       0.00000000 NULL       0.00150600      -0.00730400       0.00158500
P        0.72458941       3.67218753       5.84188483       0.00000000 NULL       0.00597000       0.00017000      -0.00189200
P        3.63495331       8.91763195       3.76202198       0.00000000 NULL       0.00597200      -0.00172400       0.00079900
P        6.54531720       4.49369568       0.25926528       0.00000000 NULL       0.00597300       0.00155300       0.00109300
P        5.29813412       0.14341715       5.06132721       0.00000000 NULL      -0.00369600       0.00182000      -0.00127500
P       -0.52259367      -1.38297570       7.20830558       0.00000000 NULL      -0.00369600      -0.00201400      -0.00093900
P        2.38777022       1.23955854       7.45671138       0.00000000 NULL      -0.00369600       0.00019400       0.00221400
P        1.81647718       6.73628316       5.26780840       0.00000000 NULL       0.00302200       0.00102600       0.00324100
P        4.72684108       6.88841937       1.39547554       0.00000000 NULL       0.00302500       0.00229400      -0.00250900
P        7.63720497       3.45881264       3.19988814       0.00000000 NULL       0.00302500      -0.00332000      -0.00073100
P        6.79611948      -2.63095824       8.26378621       0.00000000 NULL      -0.00094000      -0.00352900      -0.00094200
P        0.97539169       2.77762285       8.00975565       0.00000000 NULL      -0.00094200       0.00094800       0.00352700
P        3.88575558      -0.14666462       3.45280231       0.00000000 NULL      -0.00094100       0.00258000      -0.00258500
P        5.27875780       0.38713586       9.20360775       0.00000000 NULL      -0.00028800       0.00252700      -0.00245800
P       -0.54196999       2.08248513       4.92609872       0.00000000 NULL      -0.00028600      -0.00339100      -0.00095900
P        2.36839390      -2.46962099       5.59663770       0.00000000 NULL      -0.00028800       0.00086500       0.00341700
P        7.81057550       5.65350936       3.11997655       0.00000000 NULL      -0.00151500       0.00291700       0.00441300
P        1.98984771       5.56972933       3.40710109       0.00000000 NULL      -0.00151400       0.00236400      -0.00473300
P        4.90021160       5.86027648       3.33609445       0.00000000 NULL      -0.00151500      -0.00528100       0.00032000
P       -0.24899529       4.55495045       1.37739109       0.00000000 NULL      -0.00141500      -0.00391100      -0.00310700
P        2.66136860       4.60988550       5.22977373       0.00000000 NULL      -0.00141500      -0.00073600       0.00494000
P        5.57173250       7.91867921       3.25600727       0.00000000 NULL      -0.00141500       0.00464600      -0.00183300
