24
Lattice="6.1702184559796525 0.6956258224225171 0.2990548792640819 -2.4024309116834988 5.72571539581916 0.2990548792640837 -0.46636205387425095 -0.7948085830104876 12.591969867370512" Properties=species:S:1:pos:R:3:initial_magmoms:R:1:castep_labels:S:1:forces:R:3 n_minim_iter=17 energy=-131.405564588958 stress="-6.811149347655927e-05 2.754759964857081e-05 1.8393517348619705e-05 2.754759964857081e-05 -3.732048937672374e-05 3.132445877931987e-05 1.8393517348619705e-05 3.132445877931987e-05 -1.9161692087077143e-05" free_energy=-131.405564588958 pbc="T T T"
P       -0.91742746       2.51751995       6.50652273       0.00000000 NULL      -0.00411800       0.00151900      -0.00045100
P        2.41203406       0.02969876      12.80250766       0.00000000 NULL       0.00333500      -0.00285400      -0.00045100
P        1.86708840       5.49794772       2.28417200       0.00000000 NULL       0.00570600       0.00299600      -0.00332900
P        3.65563046       3.91427677       8.58015693       0.00000000 NULL      -0.00016800       0.00644300      -0.00332900
P        4.29422269       2.52205461      10.20591562       0.00000000 NULL       0.00136800      -0.00717600       0.00253800
P        0.34023202       5.37632466       3.90993069       0.00000000 NULL      -0.00693200      -0.00230600       0.00253800
P        2.18786017       2.68787422       4.51294248       0.00000000 NULL       0.00247700      -0.00061700      -0.00578900
P        1.04606027       2.82361133      10.80892741       0.00000000 NULL      -0.00174600       0.00186100      -0.00578900
P       -0.35236795       2.88613533      12.52649135       0.00000000 NULL      -0.00161600       0.00493600      -0.00270500
P        2.92456266       1.49758846       6.23050642       0.00000000 NULL       0.00509800       0.00099700      -0.00270700
P        0.08479463       1.87713322       4.46471714       0.00000000 NULL      -0.00280300       0.00039700       0.00110100
P        1.36413593       0.59224101      10.76070208       0.00000000 NULL       0.00171400      -0.00225400       0.00110200
P       -0.67634119       3.54461911       3.09356287       0.00000000 NULL      -0.00200500       0.00350800       0.00435100
P        3.19106276       0.74115471       9.38954781       0.00000000 NULL       0.00404000      -0.00004000       0.00435100
P        6.25502258       1.59725969       8.01063099       0.00000000 NULL       0.00313800      -0.00286300       0.00151500
P       -1.42351759       6.63694720       1.71464606       0.00000000 NULL      -0.00403100       0.00134400       0.00151400
P        2.91566806       3.45970740      11.75572537       0.00000000 NULL      -0.00180600      -0.00101300      -0.00100300
P        1.83120033       4.63025556       5.45974043       0.00000000 NULL      -0.00000200      -0.00207000      -0.00100500
P        1.18898911       0.06588535       5.92451977       0.00000000 NULL      -0.00052900      -0.00326400       0.00363300
P       -0.75562666       0.67268287      12.22050471       0.00000000 NULL      -0.00259100      -0.00205600       0.00363400
P        1.33063213       3.28702940       1.76262695       0.00000000 NULL      -0.00420800       0.00042900       0.00023900
P        1.98723982       2.36753249       8.05861189       0.00000000 NULL       0.00242700      -0.00346300       0.00024000
P        0.48549481       4.11708982       7.17201686       0.00000000 NULL       0.00430800       0.00119900      -0.00009700
P        3.59045680       2.82944731       0.87603193       0.00000000 NULL      -0.00105500       0.00434700      -0.00009900
