24
Lattice="8.251647136514965 5.422541976191694e-07 8.657848646623522e-07 -7.535838436482765e-07 7.731344237752023 2.3400202293428207 -4.125824134301787 -1.7040329967028531 6.462132310305665" Properties=species:S:1:pos:R:3:initial_magmoms:R:1:castep_labels:S:1:forces:R:3 n_minim_iter=16 energy=-129.680659861527 stress="-0.00011162191505895512 0.0 -0.0 0.0 4.748817235553051e-05 -3.4549105526398266e-05 -0.0 -3.4549105526398266e-05 -4.108602991403279e-05" free_energy=-129.680659861527 pbc="T T T"
P        3.00367866      -0.94348856       2.90483007       0.00000000 NULL      -0.00044100      -0.00456200       0.00191300
P       -1.12214574       6.97079900       5.89732135       0.00000000 NULL      -0.00043900       0.00456200      -0.00191400
P        4.76028090       5.49250672       4.51026335       0.00000000 NULL      -0.00111300      -0.00372400      -0.00732300
P        0.63445768       0.53480395       4.29188844       0.00000000 NULL      -0.00111200       0.00372300       0.00732300
P       -1.23008690       5.10818022       7.13505793       0.00000000 NULL       0.00423200      -0.00190400       0.00305500
P        2.89573751       0.91913021       1.66709347       0.00000000 NULL       0.00423200       0.00190300      -0.00305500
P        6.15154652       2.88555714       0.66748880       0.00000000 NULL       0.00049100      -0.00376900       0.00617000
P        2.02572215       3.14175371       8.13466328       0.00000000 NULL       0.00049000       0.00376900      -0.00617000
P       -0.29635945       6.48903206       3.89587698       0.00000000 NULL      -0.00343500       0.00109600       0.00453800
P        3.82946447      -0.46172151       4.90627461       0.00000000 NULL      -0.00343300      -0.00109600      -0.00453700
P        1.82564788       6.40595932       7.21502024       0.00000000 NULL      -0.00476400       0.00039000      -0.00391200
P       -2.30017465      -0.37864903       1.58713093       0.00000000 NULL      -0.00476300      -0.00038900       0.00391100
P        4.98750812       4.44798410       6.53595172       0.00000000 NULL      -0.00021300      -0.00104100       0.00348800
P        0.86168519       1.57932660       2.26620011       0.00000000 NULL      -0.00021200       0.00104400      -0.00348700
P       -0.03050056       1.42635455       6.26027039       0.00000000 NULL      -0.00194900       0.00112100       0.00032700
P        4.09532319       4.60095603       2.54188126       0.00000000 NULL      -0.00195000      -0.00112000      -0.00032700
P        1.05583419       3.71679646       2.81110554       0.00000000 NULL       0.00060700      -0.00210200      -0.00127900
P        5.18165752       2.31051426       5.99104634       0.00000000 NULL       0.00060800       0.00209800       0.00127700
P        6.10746596       2.18069950       3.96897972       0.00000000 NULL       0.00046300      -0.00221500      -0.00384300
P        1.98164219       3.84661134       4.83317235       0.00000000 NULL       0.00046300       0.00221700       0.00384400
P        3.08761253       1.84403188       5.11125089       0.00000000 NULL      -0.00014600      -0.00414600      -0.00294800
P       -1.03821104       4.18327856       3.69090055       0.00000000 NULL      -0.00014600       0.00414500       0.00294800
P        0.01522997       3.66083648       5.81762992       0.00000000 NULL       0.00626500      -0.00205300      -0.00199000
P        4.14105393       2.36647411       2.98452174       0.00000000 NULL       0.00626500       0.00205300       0.00199000
