30
Lattice="5.188199362674365 0.0 0.0 0.0 7.64771990584072 0.47884066521568613 0.0 -0.3136966892394144 14.376281133677306" Properties=species:S:1:pos:R:3:initial_magmoms:R:1:castep_labels:S:1:forces:R:3 n_minim_iter=3 energy=-161.227418453954 stress="2.0465691024636436e-05 0.0 0.0 0.0 -9.928223592875383e-05 -1.5231095972141745e-06 0.0 -1.5231095972141745e-06 4.735645356855565e-05" free_energy=-161.227418453954 pbc="T T T"
P        3.17424180       1.49108393       7.11055435       0.00000000 NULL       0.00184100       0.00090300       0.00823700
P        0.58014212       5.84293930       7.74456745       0.00000000 NULL       0.00184300      -0.00090400      -0.00823600
P        4.51952523       5.76132391       9.59196896       0.00000000 NULL      -0.00233400      -0.00009600      -0.00133500
P        1.92542554       1.57269931       5.26315284       0.00000000 NULL      -0.00233300       0.00009500       0.00133600
P        3.04613557       3.89507243       9.63722633       0.00000000 NULL       0.00131900       0.00098800      -0.00290500
P        5.64023525       3.43895079       5.21789547       0.00000000 NULL       0.00132000      -0.00098900       0.00290600
P        4.06342797       5.33356748       2.73678936       0.00000000 NULL      -0.00349400       0.00455000       0.00582400
P        1.46932829       2.00045574      12.11833244       0.00000000 NULL      -0.00349200      -0.00455000      -0.00582500
P        3.49542698       7.55678025      10.49580549       0.00000000 NULL      -0.00208100       0.00541100       0.00351800
P        0.90132730      -0.22275703       4.35931630       0.00000000 NULL      -0.00207900      -0.00541100      -0.00351800
P       -0.63965546       2.65674672      12.41281668       0.00000000 NULL      -0.00059200       0.00240800      -0.00538900
P        1.95444422       4.67727650       2.44230512       0.00000000 NULL      -0.00058900      -0.00240800       0.00538900
P        4.43556543       6.65908676       6.15430021       0.00000000 NULL       0.00074200       0.00263200       0.00528400
P        1.84146575       0.67493646       8.70082159       0.00000000 NULL       0.00074500      -0.00263200      -0.00528400
P        0.46018147       3.66172217       7.36675029       0.00000000 NULL       0.00560600      -0.00609800       0.00454300
P        3.05428115       3.67230105       7.48837151       0.00000000 NULL       0.00560600       0.00609700      -0.00454300
P       -0.09576035       4.76680753      12.71565696       0.00000000 NULL      -0.00000600       0.00005500      -0.00496900
P        2.49833933       2.56721569       2.13946484       0.00000000 NULL      -0.00000500      -0.00005500       0.00496800
P        0.55019298       1.88092621       1.27493039       0.00000000 NULL      -0.00091500      -0.00557700      -0.00142500
P        3.14429266       5.45309701      13.58019141       0.00000000 NULL      -0.00091700       0.00557700       0.00142400
P        4.77756963       1.09015423       3.13170145       0.00000000 NULL      -0.00185600      -0.00232100      -0.00336100
P        2.18346995       6.24386899      11.72342035       0.00000000 NULL      -0.00185400       0.00232100       0.00336100
P        3.47519495       0.10623918      -0.01556762       0.00000000 NULL      -0.00160500       0.00072100       0.00075100
P        0.88109527       7.22778404      14.87068942       0.00000000 NULL      -0.00160500      -0.00072200      -0.00075200
P        1.18769707       5.18530342       0.27807671       0.00000000 NULL      -0.00204200      -0.00417300      -0.00030700
P        3.78179676       2.14871980      14.57704508       0.00000000 NULL      -0.00204400       0.00417400       0.00030700
P        3.29295992       7.39963970       2.67390423       0.00000000 NULL       0.00119200      -0.00210300      -0.00115900
P        5.88705961      -0.06561647      12.18121757       0.00000000 NULL       0.00119300       0.00210300       0.00115900
P        3.83538713       4.83861994       4.96028431       0.00000000 NULL       0.00421700      -0.00469200      -0.00434700
P        1.24128745       2.49540328       9.89483749       0.00000000 NULL       0.00421900       0.00469300       0.00434700
