20
Lattice="4.676153114093422 0.0 0.0 0.0 4.676153114093422 0.0 0.0 0.0 16.702846871964475" Properties=species:S:1:pos:R:3:initial_magmoms:R:1:castep_labels:S:1:forces:R:3 n_minim_iter=17 energy=-109.162384020029 stress="6.902476198388389e-05 -0.0 -0.0 -0.0 6.902476198388389e-05 0.0 -0.0 0.0 -1.5551790879351864e-05" free_energy=-109.162384020029 pbc="T T T"
P       -0.17141937       2.42065881       8.21451318       0.00000000 NULL      -0.00134100      -0.00163700       0.00321200
P        4.84757249       2.25549430      16.56593661       0.00000000 NULL       0.00134100       0.00163700       0.00321300
P        2.42065881       4.84757249      12.39022490       0.00000000 NULL      -0.00163700       0.00134100       0.00321200
P        2.25549430      -0.17141937       4.03880146       0.00000000 NULL       0.00163700      -0.00134100       0.00321200
P        5.77612458       0.81566130       1.23867042       0.00000000 NULL       0.00245000      -0.00013200      -0.00403900
P       -1.09997147       3.86049182       9.59009385       0.00000000 NULL      -0.00245000       0.00013200      -0.00403800
P        0.81566130      -1.09997147       5.41438214       0.00000000 NULL      -0.00013200      -0.00245000      -0.00403800
P        3.86049182       5.77612458      13.76580557       0.00000000 NULL       0.00013200       0.00245000      -0.00403800
P        2.61919331       0.06760395      16.55468153       0.00000000 NULL      -0.00016900      -0.00197700       0.00163700
P        2.05695981       4.60854916       8.20325809       0.00000000 NULL       0.00016900       0.00197700       0.00163700
P        0.06760395       2.05695981       4.02754637       0.00000000 NULL      -0.00197700       0.00016900       0.00163700
P        4.60854916       2.61919331      12.37896981       0.00000000 NULL       0.00197700      -0.00016900       0.00163700
P        0.51237252       0.79403564       9.55574424       0.00000000 NULL       0.00416800       0.00382000      -0.00160500
P        4.16378059       3.88211747       1.20432081       0.00000000 NULL      -0.00416800      -0.00382000      -0.00160600
P        0.79403564       4.16378059      13.73145596       0.00000000 NULL       0.00382000      -0.00416800      -0.00160500
P        3.88211747       0.51237252       5.38003253       0.00000000 NULL      -0.00382000       0.00416800      -0.00160500
P        1.61658914       1.84063815      11.24079605       0.00000000 NULL      -0.00167400      -0.00127300       0.00079400
P        3.05956397       2.83551496       2.88937261       0.00000000 NULL       0.00167400       0.00127300       0.00079400
P        1.84063815       3.05956397      15.41650777       0.00000000 NULL      -0.00127300       0.00167400       0.00079500
P        2.83551496       1.61658914       7.06508433       0.00000000 NULL       0.00127300      -0.00167400       0.00079400
