27
Lattice="3.374433494564885 9.379325319746123e-42 5.297178729229023e-42 -1.4669427507479381e-41 14.9554167779723 -9.919576364297583e-14 -1.495320788978927e-41 -7.4777083889860645 12.951770853908076" Properties=species:S:1:pos:R:3:initial_magmoms:R:1:castep_labels:S:1:forces:R:3 n_minim_iter=10 energy=-141.259153651095 stress="2.784472252362605e-06 -0.0 -0.0 -0.0 1.4151850733161591e-05 0.0 -0.0 0.0 1.4151850733161591e-05" free_energy=-141.259153651095 pbc="T T T"
P        0.92434476       0.71184083       2.60092365       0.00000000 NULL      -0.00185900       0.00158200       0.00130300
P        0.92434476       4.86932276      12.26777997       0.00000000 NULL      -0.00185900      -0.00191800       0.00071900
P        0.92434476      -5.58116136      11.03483677       0.00000000 NULL      -0.00185900       0.00033600      -0.00202200
P        2.60974680       0.45242526      10.32800258       0.00000000 NULL      -0.00069900       0.00696400       0.00353700
P        2.60974680      -1.69281611       8.17958003       0.00000000 NULL      -0.00069900      -0.00654500       0.00426300
P        2.60974680       1.24039308       7.39595778       0.00000000 NULL      -0.00069900      -0.00041900      -0.00779900
P        2.60989311       7.59930814       8.76051935       0.00000000 NULL       0.00118100       0.00164200       0.00428800
P        2.60989311       3.56893113       2.20093293       0.00000000 NULL       0.00118100      -0.00453400      -0.00072200
P        2.60989311      11.26488812       1.99031726       0.00000000 NULL       0.00118100       0.00289200      -0.00356600
P        2.61098502       1.85150546       5.15566205       0.00000000 NULL      -0.00247300       0.00694300      -0.00362800
P        2.61098502       2.08702209      11.97738930       0.00000000 NULL      -0.00247300      -0.00032900       0.00782700
P        2.61098502      -3.93852532       8.77048905       0.00000000 NULL      -0.00247300      -0.00661400      -0.00419900
P        0.92238655      -0.72892222      11.06272048       0.00000000 NULL       0.00152400      -0.00339600      -0.00135700
P        0.92238655      -1.73842674       6.78914415       0.00000000 NULL       0.00152400       0.00287300      -0.00226300
P        0.92238655       2.46735119       8.05167576       0.00000000 NULL       0.00152400       0.00052300       0.00362000
P        0.92346931      -5.71531585       8.76302714       0.00000000 NULL      -0.00038100      -0.00169700      -0.00365700
P        0.92346931       2.74636293       3.62064727       0.00000000 NULL      -0.00038100       0.00401600       0.00035900
P        0.92346931       2.96895515      13.51986599       0.00000000 NULL      -0.00038100      -0.00232000       0.00329900
P        2.61175789       1.41885034       1.12461201       0.00000000 NULL      -0.00289800       0.00145100      -0.00301200
P        2.61175789      13.27204977       0.66645313       0.00000000 NULL      -0.00289800       0.00188200       0.00276100
P        2.61175789       7.74222728      11.16070440       0.00000000 NULL      -0.00289800      -0.00333200       0.00024900
P        2.60152361       5.60095094       3.00060410       0.00000000 NULL       0.00470400       0.00395500      -0.00111300
P        2.60152361       9.55634266       3.35026245       0.00000000 NULL       0.00470400      -0.00101400       0.00398200
P        2.60152361       7.27583379       6.60090299       0.00000000 NULL       0.00470400      -0.00294100      -0.00286900
P        2.61119755      -3.87304348      10.96508675       0.00000000 NULL       0.00090100      -0.00023800      -0.00152500
P        2.61119755      -0.08181282       4.11507213       0.00000000 NULL       0.00090100       0.00143900       0.00055700
P        2.61119755       3.95485853      10.82338151       0.00000000 NULL       0.00090100      -0.00120200       0.00096900
