8
Lattice="7.1041803478130205 -1.93195589003323 7.739462966558208e-07 -3.204809544096791 6.628048563593433 7.739462978381368e-07 -1.94968633293506 -2.348047458095268 5.747435593704247" Properties=species:S:1:pos:R:3:initial_magmoms:R:1:castep_labels:S:1:forces:R:3 n_minim_iter=10 energy=-41.682542596829 stress="-2.3442502327200872e-05 5.190535905478233e-06 0.0 5.190535905478233e-06 -2.1442869642303518e-05 0.0 0.0 0.0 -1.2040341485658523e-05" free_energy=-41.682542596829 pbc="T T T"
P       -1.39347110       1.14548960       2.87385265       0.00000000 NULL      -0.00025700      -0.00242400      -0.00215700
P        3.33178332       1.18885978       2.87358449       0.00000000 NULL      -0.00233800      -0.00070000       0.00215800
P        1.38209792      -1.15918656       2.87385265       0.00000000 NULL      -0.00233400      -0.00070100      -0.00215700
P        0.55621430       3.49353594       2.87358449       0.00000000 NULL      -0.00026100      -0.00242000       0.00215800
P       -1.72181250       3.17126361       1.75126363       0.00000000 NULL       0.00440700      -0.00101900       0.00070500
P       -1.72078615       3.17041064       3.99617342       0.00000000 NULL      -0.00181000       0.00414400      -0.00070500
P        3.43370916      -1.10959114       1.75126363       0.00000000 NULL      -0.00181200       0.00414100       0.00070500
P        3.43268209      -1.10873906       3.99617342       0.00000000 NULL       0.00440500      -0.00102200      -0.00070600
