22
Lattice="5.089264843207678 0.0 0.0 0.0 6.693352574702353 -0.3019869904875693 0.0 -5.058019943340231 12.409701884615123" Properties=species:S:1:pos:R:3:initial_magmoms:R:1:castep_labels:S:1:forces:R:3 n_minim_iter=10 energy=-122.192440053051 stress="-4.434231507007508e-05 0.0 -0.0 0.0 -1.9520258264543923e-05 8.241886822807434e-06 -0.0 8.241886822807434e-06 -4.308916268765992e-05" free_energy=-122.192440053051 pbc="T T T"
P        1.19648355       6.84778190       3.14764633       0.00000000 NULL      -0.00253800       0.00143100      -0.00232200
P        3.89278129       6.84778190       3.14764633       0.00000000 NULL       0.00253800       0.00143100      -0.00232200
P        3.70751782      -3.66379597       9.20675655       0.00000000 NULL      -0.00289500       0.00192000       0.00268700
P        1.38174702      -3.66379597       9.20675655       0.00000000 NULL       0.00289500       0.00192000       0.00268700
P        1.36810472       3.38562739       2.32225480       0.00000000 NULL       0.00035100      -0.00100500      -0.00120500
P        3.72116012       3.38562739       2.32225480       0.00000000 NULL      -0.00035100      -0.00100500      -0.00120500
P        3.74196142      -3.82856602      12.47710716       0.00000000 NULL      -0.00039700      -0.00740600       0.00346100
P        1.34730342      -3.82856602      12.47710716       0.00000000 NULL       0.00039700      -0.00740600       0.00346100
P        3.84541928       5.41372050       1.45959279       0.00000000 NULL      -0.00186800      -0.00329200      -0.00238400
P        1.24384556       5.41372050       1.45959279       0.00000000 NULL       0.00186800      -0.00329200      -0.00238400
P        3.70526315      -1.02798868       5.29974312       0.00000000 NULL       0.00019000      -0.00070900      -0.00053100
P        1.38400169      -1.02798868       5.29974312       0.00000000 NULL      -0.00019000      -0.00070900      -0.00053100
P        1.36334140      -2.09426394      11.07476972       0.00000000 NULL       0.00141900       0.00029000      -0.00058800
P        3.72592345      -2.09426394      11.07476972       0.00000000 NULL      -0.00141900       0.00029000      -0.00058800
P        1.16469314      -0.24278502       8.56806018       0.00000000 NULL      -0.00079600       0.00733300       0.00307300
P        3.92457170      -0.24278502       8.56806018       0.00000000 NULL       0.00079600       0.00733300       0.00307300
P        1.18268387       1.32613392      10.38668573       0.00000000 NULL       0.00165500      -0.00184900      -0.00357200
P        3.90658097       1.32613392      10.38668573       0.00000000 NULL      -0.00165500      -0.00184900      -0.00357200
P        1.16392470       3.52895838       4.50413403       0.00000000 NULL      -0.00084300      -0.00093700       0.00361500
P        3.92534014       3.52895838       4.50413403       0.00000000 NULL       0.00084300      -0.00093700       0.00361500
P        3.71125485       1.42513737       7.10947113       0.00000000 NULL       0.00177500       0.00422400      -0.00223400
P        1.37800999       1.42513737       7.10947113       0.00000000 NULL      -0.00177500       0.00422400      -0.00223400
