32
Lattice="6.996584886549007 -0.4539809151187492 1.4104823460003393 0.538403394325686 6.990595148551842 1.410482346000336 3.952304265173703 3.428630191790267 14.620637441118001" Properties=species:S:1:pos:R:3:initial_magmoms:R:1:castep_labels:S:1:forces:R:3 n_minim_iter=16 energy=-174.57047199596 stress="2.9151294686556447e-05 9.536483020137425e-06 -7.059474443478353e-06 9.536483020137425e-06 2.6426585252231464e-05 -6.115114923627083e-06 -7.059474443478353e-06 -6.115114923627083e-06 2.060561509708265e-05" free_energy=-174.57047199596 pbc="T T T"
P        6.92952534       3.20409208       5.09979925       0.00000000 NULL      -0.00330800       0.00287600       0.00424700
P        7.33692805       3.55751457      12.34180289       0.00000000 NULL      -0.00238000       0.00368100      -0.00424700
P        5.17073094       4.81434092      13.67439644       0.00000000 NULL       0.00234000       0.00292500       0.00158300
P        5.99113086       5.52603915       3.76720570       0.00000000 NULL      -0.00322600      -0.00190400      -0.00158300
P        8.78737600       3.75568983      15.73636666       0.00000000 NULL      -0.00010000      -0.00272800       0.00005500
P        6.52854882       1.79615368       1.70523548       0.00000000 NULL       0.00271600      -0.00028500      -0.00005500
P        7.89430967       1.44758334       6.02491145       0.00000000 NULL      -0.00269000      -0.00306800       0.00082700
P        8.93962503       2.35439606      11.41669069       0.00000000 NULL       0.00341900       0.00223100      -0.00082500
P        4.53293475       3.99455641       7.64287557       0.00000000 NULL      -0.00438900       0.00290600       0.00200800
P        6.89275281       6.04170230       9.79872656       0.00000000 NULL      -0.00225700       0.00475500      -0.00200800
P        7.57790985       1.49691836       9.95408988       0.00000000 NULL      -0.00439000       0.00229900      -0.00372800
P        8.93545620       2.67459196       7.48751225       0.00000000 NULL      -0.00165700       0.00466900       0.00372600
P        3.31396591       5.47369864       1.68572298       0.00000000 NULL       0.00170900       0.00141100       0.00148500
P        5.60053179       7.45729815      15.75587916       0.00000000 NULL      -0.00163800      -0.00149300      -0.00148500
P        9.89422042       6.97935816      15.16982003       0.00000000 NULL       0.00300200      -0.00501100       0.00449200
P        3.18089920       1.15554140       2.27178211       0.00000000 NULL       0.00453900      -0.00367800      -0.00449100
P        6.20386274       8.03447117      12.61701888       0.00000000 NULL       0.00023900       0.00599000       0.00286800
P        2.65739125       4.95790154       4.82458325       0.00000000 NULL      -0.00596400       0.00060900      -0.00286800
P        4.46854485       5.12887985      11.60576875       0.00000000 NULL      -0.00320600      -0.00463200      -0.00199200
P        5.77888328       6.26560051       5.83583339       0.00000000 NULL       0.00503800       0.00251900       0.00199200
P        6.12784686       4.09293764      10.53933639       0.00000000 NULL       0.00346000      -0.00584700       0.00372500
P        6.57017398       4.47665712       6.90226575       0.00000000 NULL       0.00530000      -0.00425100      -0.00372500
P        4.98869711       2.37461891       4.52139184       0.00000000 NULL       0.00093000      -0.00090600      -0.00457700
P        8.43211462       5.36178904      12.92021029       0.00000000 NULL       0.00076500      -0.00104900       0.00457700
P        4.21497607       4.21049526       3.46374136       0.00000000 NULL       0.00555200       0.00148300       0.00279900
P        6.72386915       6.38696396      13.97786077       0.00000000 NULL      -0.00225200      -0.00528700      -0.00279900
P        1.72921754       6.84425821       9.58366290       0.00000000 NULL      -0.00085000       0.00078200       0.00654700
P        4.46744956       9.21967881       7.85793923       0.00000000 NULL      -0.00065400       0.00095200      -0.00654700
P        3.70979806       5.83054006       6.56363484       0.00000000 NULL      -0.00191800       0.00145300      -0.00638400
P        5.19137803       7.11581302      10.87796730       0.00000000 NULL      -0.00116700       0.00210400       0.00638400
P        2.18544383       6.69389335       3.16899553       0.00000000 NULL       0.00350700      -0.00002800      -0.00138600
P        4.55189432       8.74679288      14.27260660       0.00000000 NULL      -0.00047000      -0.00347900       0.00138500
