5
Lattice="3.2169429859429375 0.25593725651442656 -0.5186542170834447 -0.16233247816606217 4.245281959590269 1.069633611762141 -2.164666018861705 2.0429953661284292 8.169763630089749" Properties=species:S:1:pos:R:3:initial_magmoms:R:1:castep_labels:S:1:forces:R:3 n_minim_iter=19 energy=-26.452095131817 stress="-0.0001331048519560944 0.00010542064763063693 -2.226772956612883e-05 0.00010542064763063693 -3.7313492786486144e-05 -0.00010050569831198686 -2.226772956612883e-05 -0.00010050569831198686 6.539891746448646e-05" free_energy=-26.452095131817 pbc="T T T"
P       -0.30213616       1.14031225       2.01539908       0.00000000 NULL      -0.00048300      -0.00612300      -0.00358700
P        0.33412901       4.68336490       7.68293079       0.00000000 NULL      -0.00456600       0.00134300       0.00062700
P        1.39835642       2.24472538       2.80929485       0.00000000 NULL       0.00117600       0.00545200       0.00058000
P        0.10336244       3.59832972       5.72865899       0.00000000 NULL      -0.00442500      -0.00286900       0.00291300
P       -1.22326670       2.89961497       7.46171378       0.00000000 NULL       0.00829800       0.00219700      -0.00053300
