28
Lattice="12.845903351020729 2.802941760811913 2.774325626519849 8.548641141043055 8.806138182315975 0.732322696366553 8.548641141043081 0.8226477465889147 8.798159858895986" Properties=species:S:1:pos:R:3:initial_magmoms:R:1:castep_labels:S:1:forces:R:3 n_minim_iter=13 energy=-150.095451832639 stress="8.695321078022873e-06 -7.76958347275808e-07 -7.604273186103653e-07 -7.76958347275808e-07 7.141404383471257e-06 -5.124618886287245e-07 -7.604273186103653e-07 -5.124618886287245e-07 7.174466440802143e-06" free_energy=-150.095451832639 pbc="T T T"
P        8.92094222       5.62209205       1.79921521       0.00000000 NULL       0.00543200       0.00628500       0.00370600
P       21.02224341      10.57491648       6.70147466       0.00000000 NULL      -0.00543200      -0.00377100      -0.00624600
P       11.61307580       7.70060179       2.59424729       0.00000000 NULL      -0.00082100      -0.00161500      -0.00246800
P       18.33010983       9.75859777       4.63123253       0.00000000 NULL       0.00082000       0.00248100       0.00158900
P       19.91205434       8.79011653       5.90282436       0.00000000 NULL       0.00263600       0.00824900       0.00214200
P       10.03113129       6.43901491       3.57572589       0.00000000 NULL      -0.00263600      -0.00222600      -0.00822700
P       10.57048170       9.59864816       3.44114356       0.00000000 NULL      -0.00275000      -0.00207200       0.00648700
P       19.37270393       8.89226941       2.74197645       0.00000000 NULL       0.00275000      -0.00646500       0.00213900
P       23.41422882       8.00576258      10.12807598       0.00000000 NULL       0.00164800       0.00065800       0.00190500
P        6.52895681       2.22203435       4.40339569       0.00000000 NULL      -0.00164700      -0.00191000      -0.00063800
P       16.17428996       4.19420630       7.22142357       0.00000000 NULL      -0.00428100      -0.00035600       0.00091200
P       13.76889567       5.16764575       8.18492487       0.00000000 NULL       0.00428100      -0.00090800       0.00036600
P       13.58113616      10.27406290       2.38455232       0.00000000 NULL      -0.00410600      -0.00035600       0.00076000
P       16.36204946       9.94187430       2.05575513       0.00000000 NULL       0.00410600      -0.00075900       0.00036400
P        2.98877770       2.31160215       1.35919327       0.00000000 NULL       0.00372500      -0.00415500      -0.00706000
P       26.95440793      11.04888562      10.00727500       0.00000000 NULL      -0.00372400       0.00710200       0.00408300
P        8.17601932       1.26773521       5.52446643       0.00000000 NULL       0.00356000       0.00046500       0.00116700
P       21.76716630       6.89454334      11.09382866       0.00000000 NULL      -0.00356000      -0.00117200      -0.00045300
P       16.14367804       6.20637008       6.11392328       0.00000000 NULL      -0.00258600      -0.00049900      -0.00143900
P       13.79950758       6.25444004       6.16150249       0.00000000 NULL       0.00258600       0.00144400       0.00048400
P       10.33468974       3.03694258       3.55108163       0.00000000 NULL      -0.00195900      -0.00080300      -0.00260500
P       19.60849589       8.84966963       9.30446469       0.00000000 NULL       0.00196000       0.00261300       0.00077900
P       12.44999382       2.99292563       4.06394663       0.00000000 NULL      -0.00143500      -0.00380200       0.00014500
P       17.49319181       8.33728332       9.35374205       0.00000000 NULL       0.00143500      -0.00010700       0.00380500
P        5.29026244       0.46970029       3.69433451       0.00000000 NULL       0.00182900      -0.00019100      -0.00498500
P       24.65292319       8.73276788      11.87304179       0.00000000 NULL      -0.00182900       0.00498700       0.00013700
P        6.71874601       2.89003929       2.22014077       0.00000000 NULL      -0.00016000      -0.00103200       0.00209600
P       23.22443962      10.18204786       9.43770288       0.00000000 NULL       0.00016000      -0.00208600       0.00105500
