12
Lattice="6.24141 0.0 0.0 3.1207007855318345 6.755450173902623 0.0 3.1207007855318345 1.8619492228327041 6.493785655815388" Properties=species:S:1:pos:R:3:initial_magmoms:R:1:castep_labels:S:1 pbc="T T T"
P        7.30826236       7.83528162       4.80429744       0.00000000 NULL
P        5.17454922       1.83961655       0.28616360       0.00000000 NULL
P       11.41595335       7.83528162       4.80429744       0.00000000 NULL
P        1.06685822       1.83961655       0.28616360       0.00000000 NULL
P        4.23882820       1.55295683       2.85605655       0.00000000 NULL
P        8.24398337       5.44394015       5.78817221       0.00000000 NULL
P        2.00257718       1.55295683       2.85605655       0.00000000 NULL
P       10.48023439       5.44394015       5.78817221       0.00000000 NULL
P        7.48492905       3.23856227       1.96195123       0.00000000 NULL
P        4.99788253       5.83882376       3.92142183       0.00000000 NULL
P        4.99788507       3.23856227       1.96195123       0.00000000 NULL
P        7.48492650       5.83882376       3.92142183       0.00000000 NULL
42
Lattice="9.54312 0.0 0.0 -4.771559999999997 8.264584351363352 0.0 0.0 0.0 11.19206" Properties=species:S:1:pos:R:3:initial_magmoms:R:1:castep_labels:S:1 pbc="T T T"
P        1.03030864       2.10751694       7.63650035       0.00000000 NULL
P       -3.46155111       6.31855243       3.90581405       0.00000000 NULL
P        2.43124247       8.10309933       0.17512664       0.00000000 NULL
P        9.28888651       0.13682185       2.50126984       0.00000000 NULL
P        0.24560889       0.15176174       9.96264355       0.00000000 NULL
P        4.78018603       7.97599994       6.23195725       0.00000000 NULL
P       -1.07285807       8.08038743       6.34352866       0.00000000 NULL
P        2.76268982       5.15351298       2.61284237       0.00000000 NULL
P       -1.68983175       3.29526830      10.07421607       0.00000000 NULL
P        4.09041695       6.88254750      10.91184775       0.00000000 NULL
P        8.68681250       1.28090561       7.18116146       0.00000000 NULL
P        1.53745055       0.10113124       3.45047516       0.00000000 NULL
P        1.01363203       2.17886675      10.08924253       0.00000000 NULL
P       -3.39142206       6.29731988       6.35855624       0.00000000 NULL
P        2.37779002       8.05298207       2.62786883       0.00000000 NULL
P        3.81647310       4.73307622      10.13168059       0.00000000 NULL
P        6.96228769       2.59288359       6.40099429       0.00000000 NULL
P        3.53591921       0.93862455       2.67030688       0.00000000 NULL
P        1.88572242       3.37888771       4.83521615       0.00000000 NULL
P       -2.78821862       4.94205698       1.10452873       0.00000000 NULL
P        0.90249620       8.20822402       8.56590244       0.00000000 NULL
P        6.68768442       1.09782524       9.87631247       0.00000000 NULL
P        2.37846234       1.92396714       6.14562618       0.00000000 NULL
P        5.24853325       5.24279198       2.41493877       0.00000000 NULL
P        2.55077243       2.65705147       3.08361511       0.00000000 NULL
P        5.79724786       4.72702489      10.54498881       0.00000000 NULL
P        5.96665971       0.88050799       6.81430140       0.00000000 NULL
P        6.62059533       1.25760279       4.89446803       0.00000000 NULL
P        2.55037830       1.90217921       1.16378062       0.00000000 NULL
P        5.14370637       5.10480235       8.62515432       0.00000000 NULL
P        3.84109960       5.27226844       0.92977143       0.00000000 NULL
P        7.41692861       2.30196030       8.39114402       0.00000000 NULL
P        3.05665179       0.69035561       4.66045772       0.00000000 NULL
P        4.28577893       3.47739164       2.39948029       0.00000000 NULL
P        5.64018003       2.81429511       9.86085400       0.00000000 NULL
P        4.38872104       1.97289761       6.13016659       0.00000000 NULL
P        1.84656795       6.09920375       7.92999309       0.00000000 NULL
P       -0.41277764       3.61580772       4.19930568       0.00000000 NULL
P       -1.43378889       6.81415641       0.46861939       0.00000000 NULL
P        4.52254755       2.75630334       4.28551364       0.00000000 NULL
P        4.89731494       2.96979161       0.55482735       0.00000000 NULL
P        4.89481751       2.53848940       8.01620105       0.00000000 NULL
12
Lattice="6.33942 0.0 0.0 -1.2843197622897562 6.207960106556097 0.0 0.0 0.0 6.54629" Properties=species:S:1:pos:R:3:initial_magmoms:R:1:castep_labels:S:1 pbc="T T T"
P        3.66247043       2.85943112       2.26633280       0.00000000 NULL
P        2.05814588       4.16582183       4.27995720       0.00000000 NULL
P        2.05814588       4.16582183       2.26633280       0.00000000 NULL
P        3.66247043       2.85943112       4.27995720       0.00000000 NULL
P        0.98824607       2.83960662       1.18911001       0.00000000 NULL
P        2.58051063       1.54303629       5.35717999       0.00000000 NULL
P        2.58051063       1.54303629       1.18911001       0.00000000 NULL
P        0.98824607       2.83960662       5.35717999       0.00000000 NULL
P        1.98487231       6.17895341       4.29051375       0.00000000 NULL
P        5.64870060       3.19552263       2.25577625       0.00000000 NULL
P        5.64870060       3.19552263       4.29051375       0.00000000 NULL
P        1.98487231       6.17895341       2.25577625       0.00000000 NULL
20
Lattice="3.33935 0.0 0.0 -0.6183725470055492 11.526554801414424 0.0 0.0 0.0 11.80793" Properties=species:S:1:pos:R:3:initial_magmoms:R:1:castep_labels:S:1 pbc="T T T"
P        1.45635461      10.60584934       7.38134486       0.00000000 NULL
P        1.26462284       0.92070547       7.38134486       0.00000000 NULL
P        1.26462284       0.92070547       4.42658514       0.00000000 NULL
P        1.45635461      10.60584934       4.42658514       0.00000000 NULL
P        0.25089864       9.06213128       6.92307792       0.00000000 NULL
P        2.47007881       2.46442352       6.92307792       0.00000000 NULL
P        2.47007881       2.46442352       4.88485208       0.00000000 NULL
P        0.25089864       9.06213128       4.88485208       0.00000000 NULL
P        2.28441156       6.44773114       1.45907639       0.00000000 NULL
P        0.43656589       5.07882366       1.45907639       0.00000000 NULL
P        0.43656589       5.07882366      10.34885361       0.00000000 NULL
P        2.28441156       6.44773114      10.34885361       0.00000000 NULL
P       -0.09633279       7.86422254       2.50540068       0.00000000 NULL
P        2.81731024       3.66233226       2.50540068       0.00000000 NULL
P        2.81731024       3.66233226       9.30252932       0.00000000 NULL
P       -0.09633279       7.86422254       9.30252932       0.00000000 NULL
P        1.76678069       1.52148333       2.54416730       0.00000000 NULL
P        0.95419676      10.00507147       2.54416730       0.00000000 NULL
P        0.95419676      10.00507147       9.26376270       0.00000000 NULL
P        1.76678069       1.52148333       9.26376270       0.00000000 NULL
45
Lattice="9.83323 0.0 0.0 0.17169246075208391 9.831730973324124 0.0 0.17169246075208391 0.16872035649295852 9.830283178684416" Properties=species:S:1:pos:R:3:initial_magmoms:R:1:castep_labels:S:1 pbc="T T T"
P        3.77567303       0.30232066       0.02863267       0.00000000 NULL
P        0.36819946       0.09332155       3.76877230       0.00000000 NULL
P        0.09973625       3.77450699       0.30178478       0.00000000 NULL
P        8.30810817       1.64945596       5.34821668       0.00000000 NULL
P        1.79426768       5.48948692       8.18504275       0.00000000 NULL
P        5.51997877       8.21297897       1.55743339       0.00000000 NULL
P        4.15634905       7.84965880       3.34138895       0.00000000 NULL
P        7.92103382       3.40986027       3.96072431       0.00000000 NULL
P        3.54764514       4.09502990       7.79116198       0.00000000 NULL
P        8.30015000       0.68155553       0.97927512       0.00000000 NULL
P        0.82637585       1.12134218       8.26895896       0.00000000 NULL
P        1.13560012       8.28158441       0.66465002       0.00000000 NULL
P        1.69998651       3.25742505       8.08105212       0.00000000 NULL
P        3.28661097       8.10805476       1.50393207       0.00000000 NULL
P        8.16420438       1.55767342       3.11826806       0.00000000 NULL
P        6.49151991       1.41197751       4.50581548       0.00000000 NULL
P        1.52510702       4.61611157       6.38760103       0.00000000 NULL
P        4.64203690       6.41144532       1.33444620       0.00000000 NULL
P        4.92670721       8.58241776       5.06390228       0.00000000 NULL
P        8.66713185       5.14511833       4.68849950       0.00000000 NULL
P        5.29566587       4.83497965       8.49425332       0.00000000 NULL
P        8.50397695       6.78800795       2.96613165       0.00000000 NULL
P        6.93545628       3.10957373       8.33202318       0.00000000 NULL
P        3.23019576       8.44886431       6.73610718       0.00000000 NULL
P        3.48098517       1.70241870       2.56001709       0.00000000 NULL
P        1.76293868       2.61885738       3.40628946       0.00000000 NULL
P        2.64923983       3.43525198       1.65823606       0.00000000 NULL
P        8.46060981       2.20818286       7.32520656       0.00000000 NULL
P        2.35557215       7.46863491       8.29381778       0.00000000 NULL
P        7.50862566       8.33077593       2.08215130       0.00000000 NULL
P        2.56030518       9.63233592       3.50553108       0.00000000 NULL
P        9.67557155       3.54605887       2.33122020       0.00000000 NULL
P        3.71445796       2.49582961       9.57075977       0.00000000 NULL
P        0.51555897       7.03812024       9.23510475       0.00000000 NULL
P        7.04604919       9.24048200       0.23405216       0.00000000 NULL
P        9.36210041       0.35214632       6.87860205       0.00000000 NULL
P        0.99975572       8.95676089       8.56448775       0.00000000 NULL
P        8.97285165       8.57769680       0.69611676       0.00000000 NULL
P        8.73305905       0.84740190       8.80846850       0.00000000 NULL
P        6.96498267       4.82545980       7.15223093       0.00000000 NULL
P        4.94633580       7.26923828       6.75591520       0.00000000 NULL
P        7.35449529       6.83761235       4.70201122       0.00000000 NULL
P        6.14567809       7.96585143       3.56343342       0.00000000 NULL
P        8.07194328       3.66597049       5.94361826       0.00000000 NULL
P        3.80635127       6.08014444       7.90352703       0.00000000 NULL
20
Lattice="4.00221 0.0 0.0 0.0 8.64582 0.0 -0.5493583439379582 0.0 12.07135602293486" Properties=species:S:1:pos:R:3:initial_magmoms:R:1:castep_labels:S:1 pbc="T T T"
P        1.02094207       5.59845290       8.84572673       0.00000000 NULL
P        3.29672625       3.04736710       2.81004872       0.00000000 NULL
P        0.44765537       8.57797020       2.98699911       0.00000000 NULL
P        2.17408120       0.06784980       9.02267712       0.00000000 NULL
P        0.67822968       6.21375602       4.82938740       0.00000000 NULL
P        2.40465551       2.43206398      10.86506542       0.00000000 NULL
P        0.64916214       1.72612759       2.03948819       0.00000000 NULL
P        2.37558797       6.91969241       8.07516620       0.00000000 NULL
P        3.11161868       0.01711527       1.39363685       0.00000000 NULL
P        0.83583450       8.62870473       7.42931486       0.00000000 NULL
P        3.00515604       6.10375612       2.41369057       0.00000000 NULL
P        0.72937187       2.54206388       8.44936858       0.00000000 NULL
P        2.34933600       6.61067265       5.92282532       0.00000000 NULL
P        0.07355183       2.03514735      11.95850333       0.00000000 NULL
P        0.16374386       8.20983378       9.27201339       0.00000000 NULL
P        2.43952803       0.43598622       3.23633538       0.00000000 NULL
P        1.92029042       7.24198610      10.38375510       0.00000000 NULL
P        0.19386460       1.40383390       4.34807709       0.00000000 NULL
P       -0.22867951       5.38007418      11.74731858       0.00000000 NULL
P        2.04710466       3.26574582       5.71164057       0.00000000 NULL
30
Lattice="8.74852 0.0 0.0 -0.30792226471680934 8.759659581501538 0.0 -0.30792226471680934 -3.1469552183025162 8.17485833747535" Properties=species:S:1:pos:R:3:initial_magmoms:R:1:castep_labels:S:1 pbc="T T T"
P        7.09863833       2.32110235       0.73866794       0.00000000 NULL
P        1.03403714       5.75721904       5.74334401       0.00000000 NULL
P        0.05038048       5.71024120       3.96739282       0.00000000 NULL
P        8.08229499       3.96161270       1.42052960       0.00000000 NULL
P        7.46429648       5.88369666       1.71139760       0.00000000 NULL
P        0.66837899       6.12931085       2.06913267       0.00000000 NULL
P        2.45767052       6.82984072       1.34963151       0.00000000 NULL
P        5.67500495       6.80683256       1.31612031       0.00000000 NULL
P        4.22394083       0.61840793       8.09436296       0.00000000 NULL
P        3.90873464      -1.71910664       4.68979197       0.00000000 NULL
P        5.14123377      -0.17865233       3.17824350       0.00000000 NULL
P        2.99144170       2.58246090       7.19978249       0.00000000 NULL
P        2.25335295       0.76053539       6.61263392       0.00000000 NULL
P        5.87932252      -0.28523884       5.08947224       0.00000000 NULL
P        4.61531481       4.04634434       7.34871451       0.00000000 NULL
P        3.51736066       0.20826653       1.75858534       0.00000000 NULL
P        5.83578336       6.79540146       3.87692902       0.00000000 NULL
P        2.29689211       4.43588678       0.44031504       0.00000000 NULL
P        0.66294859       0.11227961       3.92577952       0.00000000 NULL
P        7.46972688       1.98934980       6.65971701       0.00000000 NULL
P        2.55435479       0.97025113       3.35944250       0.00000000 NULL
P        5.57832068       2.82610867       6.06248394       0.00000000 NULL
P        3.32879281       5.73390002       6.39159065       0.00000000 NULL
P        4.80388266       1.70775563       0.52754405       0.00000000 NULL
P        2.01259500       4.68030574       2.45548465       0.00000000 NULL
P        6.12008047       5.00257488       2.92486703       0.00000000 NULL
P        5.57860506       5.33090570       5.27674353       0.00000000 NULL
P        2.55407041       2.60339686       1.30414905       0.00000000 NULL
P        2.35170721      -0.48415643       4.94465871       0.00000000 NULL
P        5.78096826       0.82421884       6.85029667       0.00000000 NULL
12
Lattice="4.00855 0.0 0.0 -0.020800715288727095 7.689961867938193 0.0 -0.26893556581526673 -3.5009473397514297 8.457017261814416" Properties=species:S:1:pos:R:3:initial_magmoms:R:1:castep_labels:S:1 pbc="T T T"
P        1.56629160       5.86717123       1.04587594       0.00000000 NULL
P        1.16798922       3.17213265       4.25491398       0.00000000 NULL
P        0.43511032       5.22496139       3.23464757       0.00000000 NULL
P        2.86446405       3.42887455       6.03753143       0.00000000 NULL
P        2.44894486       1.81982514       2.34690517       0.00000000 NULL
P        2.28320537      -2.26486935       8.11771158       0.00000000 NULL
P        0.89331117       1.26175556       3.53043429       0.00000000 NULL
P        3.08434247       0.12346199       1.30601041       0.00000000 NULL
P        0.16313399       1.92506301       5.64224453       0.00000000 NULL
P        0.55138710      -1.71544554       5.87754835       0.00000000 NULL
P        2.47676155       5.22002391       2.77214345       0.00000000 NULL
P        0.45857993       3.65330761       0.44330754       0.00000000 NULL
3
Lattice="3.32615 0.0 0.0 0.3479524004089198 4.302733862958487 0.0 0.875449702455289 1.2596543653810046 4.551309584630289" Properties=species:S:1:pos:R:3:initial_magmoms:R:1:castep_labels:S:1 pbc="T T T"
P        4.02529080       4.89680307       3.80091196       0.00000000 NULL
P        0.78482996       1.98019123       2.33018403       0.00000000 NULL
P        2.37382019       4.21372767       2.83252891       0.00000000 NULL
52
Lattice="8.65064 0.0 0.0 0.0 8.65064 0.0 0.0 0.0 15.75939" Properties=species:S:1:pos:R:3:initial_magmoms:R:1:castep_labels:S:1 pbc="T T T"
P        3.88301537       5.47407655       8.38120922       0.00000000 NULL
P        4.76762463       3.17656345       0.50151422       0.00000000 NULL
P        3.17656345       3.88301537      12.32105672       0.00000000 NULL
P        5.47407655       4.76762463       4.44136172       0.00000000 NULL
P        6.32756686       1.24487813      15.05746204       0.00000000 NULL
P        2.32307314       7.40576187       7.17776704       0.00000000 NULL
P        7.40576187       6.32756686       3.23791954       0.00000000 NULL
P        1.24487813       2.32307314      11.11761454       0.00000000 NULL
P        8.53498700       1.16883468       8.64556984       0.00000000 NULL
P        0.11565300       7.48180532       0.76587484       0.00000000 NULL
P        7.48180532       8.53498700      12.58541734       0.00000000 NULL
P        1.16883468       0.11565300       4.70572234       0.00000000 NULL
P        1.56311442       3.40668864       1.06771601       0.00000000 NULL
P        7.08752558       5.24395136       8.94741101       0.00000000 NULL
P        5.24395136       1.56311442       5.00756351       0.00000000 NULL
P        3.40668864       7.08752558      12.88725851       0.00000000 NULL
P        4.98767009       2.56099169      14.32932464       0.00000000 NULL
P        3.66296991       6.08964831       6.44962964       0.00000000 NULL
P        6.08964831       4.98767009       2.50978214       0.00000000 NULL
P        2.56099169       3.66296991      10.38947714       0.00000000 NULL
P        0.26945186       7.67943784       3.23236278       0.00000000 NULL
P        8.38118814       0.97120216      11.11205778       0.00000000 NULL
P        0.97120216       0.26945186       7.17221028       0.00000000 NULL
P        7.67943784       8.38118814      15.05190528       0.00000000 NULL
P        5.47480147       5.58372428       0.64940034       0.00000000 NULL
P        3.17583853       3.06691572       8.52909534       0.00000000 NULL
P        3.06691572       5.47480147       4.58924784       0.00000000 NULL
P        5.58372428       3.17583853      12.46894284       0.00000000 NULL
P        2.55916122       7.48726041      11.11245177       0.00000000 NULL
P        6.09147878       1.16337959       3.23275677       0.00000000 NULL
P        1.16337959       2.55916122      15.05229927       0.00000000 NULL
P        7.48726041       6.09147878       7.17260427       0.00000000 NULL
P        7.95765107       7.60449215      10.83129006       0.00000000 NULL
P        0.69298893       1.04614785       2.95159506       0.00000000 NULL
P        1.04614785       7.95765107      14.77113756       0.00000000 NULL
P        7.60449215       0.69298893       6.89144256       0.00000000 NULL
P        5.70720092       5.31731571       6.35537273       0.00000000 NULL
P        2.94343908       3.33332429      14.23506773       0.00000000 NULL
P        3.33332429       5.70720092      10.29522023       0.00000000 NULL
P        5.31731571       2.94343908       2.41552523       0.00000000 NULL
P        7.34125577       5.68207773       5.13191140       0.00000000 NULL
P        1.30938423       2.96856227      13.01160640       0.00000000 NULL
P        2.96856227       7.34125577       9.07175890       0.00000000 NULL
P        5.68207773       1.30938423       1.19206390       0.00000000 NULL
P        1.58164842       5.23737601      11.23791227       0.00000000 NULL
P        7.06899158       3.41326399       3.35821727       0.00000000 NULL
P        3.41326399       1.58164842      15.17775977       0.00000000 NULL
P        5.23737601       7.06899158       7.29806477       0.00000000 NULL
P        4.21988946       8.27939519       5.98200599       0.00000000 NULL
P        4.43075054       0.37124481      13.86170099       0.00000000 NULL
P        0.37124481       4.21988946       9.92185349       0.00000000 NULL
P        8.27939519       4.43075054       2.04215849       0.00000000 NULL
45
Lattice="7.18666 0.0 0.0 0.0 12.84623 0.0 0.0 -6.423114999999997 11.125161522857772" Properties=species:S:1:pos:R:3:initial_magmoms:R:1:castep_labels:S:1 pbc="T T T"
P        3.90777225      -0.26850612       6.19101110       0.00000000 NULL
P        3.90777225      -0.92728905       8.26218909       0.00000000 NULL
P        3.90777225       1.19579517       7.79712285       0.00000000 NULL
P        3.68923238       8.12682313       3.27317827       0.00000000 NULL
P        3.68923238       5.19435897       2.45053710       0.00000000 NULL
P        3.68923238       5.94816290       5.40144615       0.00000000 NULL
P        1.28120612       9.07442786       3.54761153       0.00000000 NULL
P        1.28120612       4.95822278       1.49267071       0.00000000 NULL
P        1.28120612       5.23669436       6.08487928       0.00000000 NULL
P        4.11111448      -0.50814740       2.30543941       0.00000000 NULL
P        4.11111448      -4.17247220      10.41251038       0.00000000 NULL
P        4.11111448       4.68061960       9.53237326       0.00000000 NULL
P        5.03596288       2.77814497       2.72976976       0.00000000 NULL
P        5.03596288       7.39809247       7.35433253       0.00000000 NULL
P        5.03596288       9.09310756       1.04105924       0.00000000 NULL
P        3.44719861       2.98264218       8.63816170       0.00000000 NULL
P        3.44719861      -0.43356861       4.22303678       0.00000000 NULL
P        3.44719861      -2.54907357       9.38912457       0.00000000 NULL
P        1.12229039       0.82916505       9.37138661       0.00000000 NULL
P        1.12229039       1.27816135       5.72139022       0.00000000 NULL
P        1.12229039      -2.10732640       7.15754622       0.00000000 NULL
P        6.65514038       3.35140156       3.78942137       0.00000000 NULL
P        6.65514038       8.02914939       6.32805195       0.00000000 NULL
P        6.65514038       7.88879405       1.00768821       0.00000000 NULL
P        6.26858215       5.84043377      10.06463436       0.00000000 NULL
P        6.26858215      12.21912715       1.03488033       0.00000000 NULL
P        6.26858215       1.20978408       0.02564683       0.00000000 NULL
P        1.44752125      -2.78080671       9.59507356       0.00000000 NULL
P        1.44752125       3.27686581       8.73587400       0.00000000 NULL
P        1.44752125      -0.49605910       3.91937549       0.00000000 NULL
P        5.38254818       4.30843606      11.06755210       0.00000000 NULL
P        5.38254818       1.00744825       1.86017039       0.00000000 NULL
P        5.38254818      -5.31588431       9.32260055       0.00000000 NULL
P        0.42710680       3.63248863       0.19792997       0.00000000 NULL
P        0.42710680       4.77828307       7.88036910       0.00000000 NULL
P        0.42710680      10.85857330       3.04686245       0.00000000 NULL
P        4.59179208       9.37647227       4.56334990       0.00000000 NULL
P        4.59179208       5.68685581       0.72322339       0.00000000 NULL
P        4.59179208       4.20601692       5.83858823       0.00000000 NULL
P        6.52271610       5.62824938       1.41731888       0.00000000 NULL
P        6.52271610       4.83642446       5.54229514       0.00000000 NULL
P        6.52271610       8.80467116       4.16554750       0.00000000 NULL
P        0.77807740       2.50309305      10.47783732       0.00000000 NULL
P        0.77807740       1.39941306       3.71850069       0.00000000 NULL
P        0.77807740      -3.90250418       8.05398392       0.00000000 NULL
2
Lattice="2.83611 0.0 0.0 0.7677510009268748 3.3980265953897106 0.0 0.34980739495546126 1.344532423498246 4.468008002342477" Properties=species:S:1:pos:R:3:initial_magmoms:R:1:castep_labels:S:1 pbc="T T T"
P        3.07966744       1.31536976       2.25017015       0.00000000 NULL
P        3.73329726       4.24305476       4.32001060       0.00000000 NULL
39
Lattice="9.83963 0.0 0.0 -4.919814999999997 8.521369543839477 0.0 0.0 0.0 10.37845" Properties=species:S:1:pos:R:3:initial_magmoms:R:1:castep_labels:S:1 pbc="T T T"
P        1.10713844       5.96202903       8.53997089       0.00000000 NULL
P       -0.31011562       4.58154501       1.62100492       0.00000000 NULL
P       -0.79702282       6.49916504       5.08048790       0.00000000 NULL
P       -0.04499663       0.76061915       8.40441277       0.00000000 NULL
P       -4.23860118       8.18002819       1.48544575       0.00000000 NULL
P        4.28359781       8.10209175       4.94492978       0.00000000 NULL
P       -1.95047984       7.86251515       6.39376970       0.00000000 NULL
P        2.86456376       6.27927707       9.85325269       0.00000000 NULL
P       -0.91408244       2.90094602       2.93428671       0.00000000 NULL
P       -0.47209167       7.44372988       3.18926966       0.00000000 NULL
P        1.76269001       5.20834798       6.64875265       0.00000000 NULL
P       -1.29059834       4.39066122      10.10823668       0.00000000 NULL
P        1.27087677       4.65515090       3.83246165       0.00000000 NULL
P       -1.52377543       5.09318253       7.29194567       0.00000000 NULL
P        0.25289719       7.29440652       0.37297866       0.00000000 NULL
P        8.20736920       2.32439783       9.03220209       0.00000000 NULL
P        2.82911797       0.25138040       2.11323612       0.00000000 NULL
P        3.72295783       5.94559131       5.57271911       0.00000000 NULL
P        2.70423978       4.46836333       0.33132683       0.00000000 NULL
P        7.43741127       3.94524753       3.79080981       0.00000000 NULL
P        4.61779395       0.10775868       7.25029280       0.00000000 NULL
P        4.58452666       7.27351893      10.32093574       0.00000000 NULL
P        8.92660286       0.91429353       3.40196873       0.00000000 NULL
P        1.24831401       0.33355793       6.86145276       0.00000000 NULL
P        2.78902640       2.46926111       9.91105235       0.00000000 NULL
P        5.66374465       4.87137128       2.99208534       0.00000000 NULL
P        6.30667395       1.18073715       6.45156833       0.00000000 NULL
P        3.97686309       4.77398225       1.91369900       0.00000000 NULL
P        7.06577336       2.69031396       5.37318199       0.00000000 NULL
P        3.71680855       1.05707334       8.83266498       0.00000000 NULL
P       -2.80732417       6.71464662       4.81863131       0.00000000 NULL
P        2.29890163       7.59526028       8.27811533       0.00000000 NULL
P        0.50842254       2.73283219       1.35914832       0.00000000 NULL
P        2.41554799       0.69131741       4.08134103       0.00000000 NULL
P        4.31073944       6.08378492       7.54082402       0.00000000 NULL
P        8.03315757       1.74626722       0.62185804       0.00000000 NULL
P       -0.06257365       6.43569873       6.97837015       0.00000000 NULL
P        0.68495042       5.35771055       0.05940313       0.00000000 NULL
P       -0.62237677       5.24932981       3.51888716       0.00000000 NULL
32
Lattice="8.27896 0.0 0.0 0.0 8.27896 0.0 0.0 0.0 10.38537" Properties=species:S:1:pos:R:3:initial_magmoms:R:1:castep_labels:S:1 pbc="T T T"
P        2.33676461       7.80523211       0.60809457       0.00000000 NULL
P        5.94219539       0.47372789       0.60809457       0.00000000 NULL
P        7.80523211       5.94219539       5.80077957       0.00000000 NULL
P        0.47372789       2.33676461       5.80077957       0.00000000 NULL
P        8.21238143       2.25255517       2.64539364       0.00000000 NULL
P        0.06657857       6.02640483       2.64539364       0.00000000 NULL
P        2.25255517       0.06657857       7.83807864       0.00000000 NULL
P        6.02640483       8.21238143       7.83807864       0.00000000 NULL
P        2.18837501       7.65375115       4.67320879       0.00000000 NULL
P        6.09058499       0.62520885       4.67320879       0.00000000 NULL
P        7.65375115       6.09058499       9.86589379       0.00000000 NULL
P        0.62520885       2.18837501       9.86589379       0.00000000 NULL
P        3.09352033       7.16049651       9.21700445       0.00000000 NULL
P        5.18543967       1.11846349       9.21700445       0.00000000 NULL
P        7.16049651       5.18543967       4.02431945       0.00000000 NULL
P        1.11846349       3.09352033       4.02431945       0.00000000 NULL
P        7.29794546       1.00403336       6.24061868       0.00000000 NULL
P        0.98101454       7.27492664       6.24061868       0.00000000 NULL
P        1.00403336       0.98101454       1.04793368       0.00000000 NULL
P        7.27492664       7.29794546       1.04793368       0.00000000 NULL
P        6.08168510       6.47286017       6.78388985       0.00000000 NULL
P        2.19727490       1.80609983       6.78388985       0.00000000 NULL
P        6.47286017       2.19727490       1.59120485       0.00000000 NULL
P        1.80609983       6.08168510       1.59120485       0.00000000 NULL
P        6.51038124       7.52818748       3.23056251       0.00000000 NULL
P        1.76857876       0.75077252       3.23056251       0.00000000 NULL
P        7.52818748       1.76857876       8.42324751       0.00000000 NULL