40
Lattice="10.564999999999923 -1.258690995038666e-06 -2.766483105352072e-13 1.2586909950386952e-06 10.564999999999765 1.8531930600527235e-06 -5.28250262293466 -5.282500734898126 7.777514511115929" Properties=species:S:1:pos:R:3:initial_magmoms:R:1:castep_labels:S:1 n_minim_iter=1 pbc="T T T"
P       -0.30660039       5.27219476       4.00502705       0.00000000 NULL
P        5.58909903      -0.01030590       3.77248931       0.00000000 NULL
P        2.42974159       0.20151364       7.34382333       0.00000000 NULL
P        2.85275709       5.48401481       0.43369311       0.00000000 NULL
P       -0.42304898      -3.37832995       6.54978582       0.00000000 NULL
P        5.70554682       1.90417025       1.22772936       0.00000000 NULL
P        0.80924471      -1.89967341       7.17949806       0.00000000 NULL
P        4.47325347       3.38282731       0.59801764       0.00000000 NULL
P        5.78478681       9.01459649       0.93898957       0.00000000 NULL
P       -0.50228728       3.73209620       6.83852811       0.00000000 NULL
P        4.62716106       6.83290250       0.75990801       0.00000000 NULL
P        0.65533795       1.55040188       7.01760890       0.00000000 NULL
P        6.53282072       2.10470198       3.11066900       0.00000000 NULL
P       -1.25032158       7.38720264       4.66684811       0.00000000 NULL
P        3.02778677       3.16997102       1.97405609       0.00000000 NULL
P        2.25471137      -2.11252956       5.80345954       0.00000000 NULL
P        7.05605281       5.16338465       2.72374904       0.00000000 NULL
P       -1.77355419      -0.11911471       5.05376729       0.00000000 NULL
P        3.43252611       0.11911264       2.61123316       0.00000000 NULL
P        1.84997255       5.40161238       5.16628325       0.00000000 NULL
P        7.86501958      -2.15271698       3.54254668       0.00000000 NULL
P       -2.58252146       3.12978414       4.23496893       0.00000000 NULL
P        2.87639671       7.43521441       3.80229094       0.00000000 NULL
P        2.40610245       2.15271444       3.97522618       0.00000000 NULL
P        5.81296158       1.27918160       5.48922518       0.00000000 NULL
P       -0.53046264       6.56168292       2.28829163       0.00000000 NULL
P        1.55616245       3.99607147       0.77636007       0.00000000 NULL
P        3.72633589      -1.28642988       7.00115584       0.00000000 NULL
P        5.23750854       7.77754349       3.14012111       0.00000000 NULL
P        0.04499070       2.49504385       4.63739613       0.00000000 NULL
P       -2.13277563       2.78745424       7.71127405       0.00000000 NULL
P        7.41527493       8.06995444       0.06624330       0.00000000 NULL
P        5.05747519       3.01227340       4.80173901       0.00000000 NULL
P        0.22502417       8.29477429       2.97577842       0.00000000 NULL
P       -3.25899786      -2.98635612       7.45269865       0.00000000 NULL
P        8.54149578       2.29614373       0.32481667       0.00000000 NULL
P        1.15307716      -1.00484912       4.21763833       0.00000000 NULL
P        4.12942124       4.27765064       3.55987768       0.00000000 NULL
P        7.71575125       1.02827862       1.67265909       0.00000000 NULL
P       -2.43325237       6.31077905       6.10485764       0.00000000 NULL
40
Lattice="10.618668263815259 -1.2637206077859506e-06 -0.007777873741196033 1.2642828580576355e-06 10.611936089125644 1.8614260590456405e-06 -5.315062516283319 -5.305968782396536 7.8163642559911315" Properties=species:S:1:pos:R:3:initial_magmoms:R:1:castep_labels:S:1 n_minim_iter=2 pbc="T T T"
P       -0.31096369       5.29559238       4.02336568       0.00000000 NULL
P        5.61457070      -0.01037633       3.78522256       0.00000000 NULL
P        2.43651914       0.20256400       7.37518851       0.00000000 NULL
P        2.86708792       5.50853321       0.43339980       0.00000000 NULL
P       -0.43005644      -3.39364982       6.57954997       0.00000000 NULL
P        5.73366265       1.91231843       1.22903709       0.00000000 NULL
P        0.80818126      -1.90779888       7.21127239       0.00000000 NULL
P        4.49542530       3.39816988       0.59731519       0.00000000 NULL
P        5.81347260       9.05488088       0.93927613       0.00000000 NULL
P       -0.50986469       3.74891255       6.86931343       0.00000000 NULL
P        4.64999725       6.86311070       0.76036841       0.00000000 NULL
P        0.65361014       1.55714203       7.04822039       0.00000000 NULL
P        6.56366499       2.11404713       3.12005689       0.00000000 NULL
P       -1.26005747       7.42001584       4.68853210       0.00000000 NULL
P        3.04155398       3.18388770       1.98109436       0.00000000 NULL
P        2.26205253      -2.12208092       5.82749314       0.00000000 NULL
P        7.08992521       5.18615062       2.73085683       0.00000000 NULL
P       -1.78631822      -0.11981677       5.07773137       0.00000000 NULL
P        3.44806743       0.11977386       2.62059343       0.00000000 NULL
P        1.85553962       5.42574164       5.18799486       0.00000000 NULL
P        7.90230538      -2.16203351       3.55272159       0.00000000 NULL
P       -2.59869888       3.14393566       4.25586590       0.00000000 NULL
P        2.88814952       7.46814738       3.81728825       0.00000000 NULL
P        2.41545801       2.16217936       3.99130076       0.00000000 NULL
P        5.83849294       1.28457824       5.50981534       0.00000000 NULL
P       -0.53488562       6.59054761       2.29877336       0.00000000 NULL
P        1.56301262       4.01386447       0.77882283       0.00000000 NULL
P        3.74059409      -1.29210493       7.02976497       0.00000000 NULL
P        5.26178209       7.81208131       3.15042435       0.00000000 NULL
P        0.04182553       2.50611362       4.65816478       0.00000000 NULL
P       -2.14959835       2.79986484       7.74752720       0.00000000 NULL
P        7.45320603       8.10583309       0.06106203       0.00000000 NULL
P        5.07961321       3.02574685       4.81966546       0.00000000 NULL
P        0.22399452       8.33171580       2.98892385       0.00000000 NULL
P       -3.28119442      -2.99963994       7.48863877       0.00000000 NULL
P        8.58480072       2.30632795       0.31994842       0.00000000 NULL
P        1.15600400      -1.00907899       4.23586847       0.00000000 NULL
P        4.14760278       4.29688882       3.57271942       0.00000000 NULL
P        7.75371677       1.03261419       1.67455569       0.00000000 NULL
P       -2.45010951       6.33858267       6.13403292       0.00000000 NULL
40
Lattice="11.034323062249504 -1.301202792441491e-06 -0.07640627234949837 1.307397267826284e-06 10.973822955778333 1.924904168805023e-06 -5.573411400217738 -5.486912237695252 8.11709894244744" Properties=species:S:1:pos:R:3:initial_magmoms:R:1:castep_labels:S:1 n_minim_iter=3 pbc="T T T"
P       -0.34777805       5.47607570       4.16349172       0.00000000 NULL
P        5.80869102      -0.01083646       3.87720287       0.00000000 NULL
P        2.48305054       0.21073214       7.61219659       0.00000000 NULL
P        2.97786248       5.69764482       0.42849808       0.00000000 NULL
P       -0.48958836      -3.51196994       6.80678524       0.00000000 NULL
P        5.95050049       1.97494174       1.23390813       0.00000000 NULL
P        0.79437556      -1.97022251       7.45274745       0.00000000 NULL
P        4.66653694       3.51668971       0.58794646       0.00000000 NULL
P        6.03490222       9.36559423       0.93657496       0.00000000 NULL
P       -0.57398833       3.87868245       7.10412100       0.00000000 NULL
P        4.82617048       7.09596519       0.76014044       0.00000000 NULL
P        0.63474288       1.60905307       7.28055472       0.00000000 NULL
P        6.80002384       2.18603603       3.18605216       0.00000000 NULL
P       -1.33911035       7.67294818       4.85464321       0.00000000 NULL
P        3.14647246       3.29107797       2.03243364       0.00000000 NULL
P        2.31443999      -2.19583411       6.00826019       0.00000000 NULL
P        7.35016559       5.36148029       2.77884853       0.00000000 NULL
P       -1.88925264      -0.12543052       5.26184603       0.00000000 NULL
P        3.56642801       0.12503571       2.68908811       0.00000000 NULL
P        1.89448500       5.61194692       5.35160653       0.00000000 NULL
P        8.18824237      -2.23365691       3.62342644       0.00000000 NULL
P       -2.72732993       3.25325573       4.41726737       0.00000000 NULL
P        2.97609456       7.72198014       3.92910910       0.00000000 NULL
P        2.48481895       2.23506869       4.11158628       0.00000000 NULL
P        6.03184842       1.32594311       5.66166026       0.00000000 NULL
P       -0.57093513       6.81285595       2.37903480       0.00000000 NULL
P        1.61513235       4.15107440       0.79636661       0.00000000 NULL
P        3.84578031      -1.33583847       7.24432751       0.00000000 NULL
P        5.44721452       8.07839648       3.22430183       0.00000000 NULL
P        0.01369907       2.59148537       4.81639368       0.00000000 NULL
P       -2.28611375       2.89557449       8.02570955       0.00000000 NULL
P        7.74702741       8.38248618       0.01498607       0.00000000 NULL
P        5.24725104       3.12966638       4.95177762       0.00000000 NULL
P        0.21366268       8.61657879       3.08891808       0.00000000 NULL
P       -3.45911838      -3.10205812       7.76545113       0.00000000 NULL
P        8.92003062       2.38485319       0.27524238       0.00000000 NULL
P        1.17550026      -1.04158516       4.37388680       0.00000000 NULL
P        4.28541246       4.44532607       3.66680743       0.00000000 NULL
P        8.04635853       1.06593202       1.68223643       0.00000000 NULL
P       -2.58544530       6.55284394       6.35845854       0.00000000 NULL
40
Lattice="11.087117490533114 -1.294394962479235e-06 -0.1510755542623762 1.3134087343623975e-06 11.024281046145406 1.9337549575203586e-06 -5.654777060152849 -5.51214128091871 8.1611882431705" Properties=species:S:1:pos:R:3:initial_magmoms:R:1:castep_labels:S:1 n_minim_iter=4 pbc="T T T"
P       -0.37624565       5.50199728       4.16981068       0.00000000 NULL
P        5.80858740      -0.01014392       3.84030394       0.00000000 NULL
P        2.44218622       0.21225275       7.60232577       0.00000000 NULL
P        2.99015558       5.72439447       0.40778893       0.00000000 NULL
P       -0.53844075      -3.52970419       6.81583021       0.00000000 NULL
P        5.97078165       1.98243654       1.19428318       0.00000000 NULL
P        0.74879093      -1.97743489       7.45364349       0.00000000 NULL
P        4.68355035       3.53470637       0.55647044       0.00000000 NULL
P        6.05725106       9.40938390       0.89812697       0.00000000 NULL
P       -0.62490838       3.89724308       7.11198903       0.00000000 NULL
P        4.84339334       7.12819851       0.73074685       0.00000000 NULL
P        0.58894879       1.61605735       7.27936834       0.00000000 NULL
P        6.81028060       2.19564065       3.14431358       0.00000000 NULL
P       -1.37793833       7.70778185       4.86580182       0.00000000 NULL
P        3.14653648       3.30526140       2.01561415       0.00000000 NULL
P        2.28580474      -2.20687972       5.99449971       0.00000000 NULL
P        7.36677321       5.38457403       2.73195796       0.00000000 NULL
P       -1.93443150      -0.12756583       5.27815662       0.00000000 NULL
P        3.56584981       0.12686862       2.66872543       0.00000000 NULL
P        1.86649197       5.63900888       5.34138924       0.00000000 NULL
P        8.20228659      -2.24226203       3.57189940       0.00000000 NULL
P       -2.76994537       3.26987965       4.43821444       0.00000000 NULL
P        2.96337487       7.75681332       3.91269241       0.00000000 NULL
P        2.46896741       2.24467282       4.09742300       0.00000000 NULL
P        6.02205493       1.32996417       5.62594468       0.00000000 NULL
P       -0.58971286       6.84210605       2.38417041       0.00000000 NULL
P        1.61486147       4.17037292       0.78697859       0.00000000 NULL
P        3.81747996      -1.34176899       7.22313557       0.00000000 NULL
P        5.45063650       8.11571674       3.18988392       0.00000000 NULL
P       -0.01829413       2.60357658       4.82023162       0.00000000 NULL
P       -2.35206297       2.90902555       8.04752856       0.00000000 NULL
P        7.78440541       8.42116628      -0.03741291       0.00000000 NULL
P        5.23865881       3.14432890       4.91999474       0.00000000 NULL
P        0.19368368       8.65647035       3.09012099       0.00000000 NULL
P       -3.52883901      -3.11626867       7.79522234       0.00000000 NULL
P        8.96118001       2.39587169       0.21489119       0.00000000 NULL
P        1.15283183      -1.04543201       4.37042887       0.00000000 NULL
P        4.27950967       4.46670827       3.63968538       0.00000000 NULL
P        8.07261155       1.06993461       1.62961383       0.00000000 NULL
P       -2.64026955       6.58207558       6.38050117       0.00000000 NULL
40
Lattice="11.115425790042396 -1.278845505492245e-06 -0.2589495901129474 1.3178546598180577e-06 11.061598547001202 1.9403007723562846e-06 -5.748343614931334 -5.530800025402886 8.190853775987105" Properties=species:S:1:pos:R:3:initial_magmoms:R:1:castep_labels:S:1 n_minim_iter=5 pbc="T T T"
P       -0.41546142       5.52208621       4.16158351       0.00000000 NULL
P        5.78254491      -0.00871373       3.77032262       0.00000000 NULL
P        2.37184447       0.21374248       7.55621031       0.00000000 NULL
P        2.99523908       5.74454294       0.37569589       0.00000000 NULL
P       -0.60724297      -3.54437834       6.80055054       0.00000000 NULL
P        5.97432562       1.98642114       1.13135435       0.00000000 NULL
P        0.67969812      -1.98090403       7.42353195       0.00000000 NULL
P        4.68738490       3.54989597       0.50837348       0.00000000 NULL
P        6.06351305       9.44224256       0.83883226       0.00000000 NULL
P       -0.69642862       3.91144299       7.09307524       0.00000000 NULL
P        4.84732745       7.15175710       0.68551479       0.00000000 NULL
P        0.51975644       1.62095719       7.24639191       0.00000000 NULL
P        6.79528175       2.20209953       3.07113218       0.00000000 NULL
P       -1.42819772       7.73289947       4.86077472       0.00000000 NULL
P        3.13272775       3.31464866       1.98349889       0.00000000 NULL
P        2.23435522      -2.21615120       5.94840646       0.00000000 NULL
P        7.35902417       5.39993114       2.65252350       0.00000000 NULL
P       -1.99194070      -0.13086748       5.27938258       0.00000000 NULL
P        3.54979522       0.12958055       2.62841679       0.00000000 NULL
P        1.81728831       5.66037956       5.30348938       0.00000000 NULL
P        8.18667507      -2.24678119       3.48237131       0.00000000 NULL
P       -2.81959211       3.28401923       4.44953403       0.00000000 NULL
P        2.93189220       7.78190840       3.87262257       0.00000000 NULL
P        2.43519183       2.25110915       4.05928435       0.00000000 NULL
P        5.98138466       1.33080256       5.55039054       0.00000000 NULL
P       -0.61430085       6.86160317       2.38151606       0.00000000 NULL
P        1.60674174       4.18500617       0.77023188       0.00000000 NULL
P        3.76034144      -1.34579448       7.16167377       0.00000000 NULL
P        5.43156038       8.14350151       3.12624378       0.00000000 NULL
P       -0.06447626       2.61270259       4.80566327       0.00000000 NULL
P       -2.43750799       2.91921074       8.04519454       0.00000000 NULL
P        7.80459218       8.45001023      -0.11328739       0.00000000 NULL
P        5.20341298       3.15527624       4.85294852       0.00000000 NULL
P        0.16367127       8.68607643       3.07895872       0.00000000 NULL
P       -3.61486637      -3.12669710       7.80567761       0.00000000 NULL
P        8.98194912       2.40410202       0.12622742       0.00000000 NULL
P        1.11519050      -1.04727326       4.34734136       0.00000000 NULL
P        4.25189274       4.48352577       3.58456440       0.00000000 NULL
P        8.07525074       1.07221300       1.54640819       0.00000000 NULL
P       -2.70816698       6.60301271       6.38549831       0.00000000 NULL
40
Lattice="11.111374026234841 -1.2540546952599272e-06 -0.3975293188511128 1.3224715178974157e-06 11.100350795071432 1.9470982543084167e-06 -5.84833439142094 -5.550176140654783 8.208694761167527" Properties=species:S:1:pos:R:3:initial_magmoms:R:1:castep_labels:S:1 n_minim_iter=6 pbc="T T T"
P       -0.46243245       5.54461659       4.14151958       0.00000000 NULL
P        5.72547341      -0.00555947       3.66964781       0.00000000 NULL
P        2.27089458       0.21571312       7.47917718       0.00000000 NULL
P        2.99214643       5.76588968       0.33199029       0.00000000 NULL
P       -0.69456156      -3.56267545       6.76511907       0.00000000 NULL
P        5.95760167       1.98750016       1.04604707       0.00000000 NULL
P        0.58976122      -1.98085943       7.36643164       0.00000000 NULL
P        4.67327927       3.56931669       0.44473505       0.00000000 NULL
P        6.05043951       9.47713380       0.76246438       0.00000000 NULL
P       -0.78739761       3.92695811       7.04870439       0.00000000 NULL
P        4.83470530       7.17563399       0.62858926       0.00000000 NULL
P        0.42833604       1.62545797       7.18257871       0.00000000 NULL
P        6.75032482       2.20727775       2.97240997       0.00000000 NULL
P       -1.48728334       7.75745380       4.83875819       0.00000000 NULL
P        3.10260995       3.32182071       1.94105193       0.00000000 NULL
P        2.16043048      -2.22835527       5.87011468       0.00000000 NULL
P        7.32323952       5.41237574       2.54441807       0.00000000 NULL
P       -2.06019860      -0.13779902       5.26674928       0.00000000 NULL
P        3.51736756       0.13505034       2.57215186       0.00000000 NULL
P        1.74567343       5.68522548       5.23901558       0.00000000 NULL
P        8.13558552      -2.24748383       3.35974930       0.00000000 NULL
P       -2.87254510       3.30269269       4.45141731       0.00000000 NULL
P        2.88001310       7.80668665       3.81231871       0.00000000 NULL
P        2.38302839       2.25651128       3.99884947       0.00000000 NULL
P        5.90648868       1.32770501       5.43976532       0.00000000 NULL
P       -0.64344740       6.87788173       2.37140253       0.00000000 NULL
P        1.58667361       4.20129570       0.74769390       0.00000000 NULL
P        3.67636703      -1.34888106       7.06347302       0.00000000 NULL
P        5.38615927       8.17257849       3.03581664       0.00000000 NULL
P       -0.12311768       2.62240344       4.77535167       0.00000000 NULL
P       -2.53940602       2.93050953       8.02168078       0.00000000 NULL
P        7.80244768       8.48068514      -0.21051236       0.00000000 NULL
P        5.13921572       3.16649848       4.75411379       0.00000000 NULL
P        0.12382599       8.71667477       3.05705472       0.00000000 NULL
P       -3.71362075      -3.13738168       7.79993645       0.00000000 NULL
P        8.97666097       2.41279357       0.01122984       0.00000000 NULL
P        1.06409762      -1.04679661       4.30826594       0.00000000 NULL
P        4.19894309       4.50337856       3.50290109       0.00000000 NULL
P        8.04819223       1.07350312       1.43577730       0.00000000 NULL
P       -2.78515102       6.62367894       6.37539047       0.00000000 NULL
40
Lattice="11.08802004777372 -1.2485227645939166e-06 -0.41320464478086627 1.3280216335378833e-06 11.146936471853271 1.9552697879575415e-06 -5.848196926295448 -5.573468982033485 8.225634648085167" Properties=species:S:1:pos:R:3:initial_magmoms:R:1:castep_labels:S:1 n_minim_iter=7 pbc="T T T"
P       -0.46206063       5.57095651       4.14932605       0.00000000 NULL
P        5.70188508      -0.00251237       3.66310591       0.00000000 NULL
P        2.25124413       0.21729848       7.48755750       0.00000000 NULL
P        2.98858037       5.79076789       0.32487454       0.00000000 NULL
P       -0.70450451      -3.58372547       6.77654173       0.00000000 NULL
P        5.94432811       1.98974298       1.03588898       0.00000000 NULL
P        0.58214443      -1.98186731       7.37461300       0.00000000 NULL
P        4.65767955       3.59160166       0.43781826       0.00000000 NULL
P        6.03879014       9.51859327       0.76113774       0.00000000 NULL
P       -0.79896475       3.94512474       7.05129560       0.00000000 NULL
P        4.82340323       7.20442749       0.63121299       0.00000000 NULL
P        0.41642162       1.63095863       7.18121955       0.00000000 NULL
P        6.72956153       2.21337364       2.97515124       0.00000000 NULL
P       -1.48973655       7.78684253       4.83728150       0.00000000 NULL
P        3.09092391       3.33029664       1.94914035       0.00000000 NULL
P        2.14890001      -2.24317217       5.86329082       0.00000000 NULL
P        7.30625148       5.42808709       2.53980767       0.00000000 NULL
P       -2.06642706      -0.14538050       5.27262424       0.00000000 NULL
P        3.50915964       0.14091947       2.57625345       0.00000000 NULL
P        1.73066485       5.71438745       5.23617856       0.00000000 NULL
P        8.11065737      -2.24854385       3.35633067       0.00000000 NULL
P       -2.87083346       3.32492550       4.45610050       0.00000000 NULL
P        2.86682750       7.83680664       3.81515349       0.00000000 NULL
P        2.37299749       2.26333844       3.99727927       0.00000000 NULL
P        5.88457437       1.32557897       5.43971288       0.00000000 NULL
P       -0.64474960       6.89904852       2.37271954       0.00000000 NULL
P        1.57252601       4.22132190       0.74876040       0.00000000 NULL
P        3.66729812      -1.35214770       7.06367109       0.00000000 NULL
P        5.36768424       8.20704933       3.03055974       0.00000000 NULL
P       -0.12785916       2.63358144       4.78187315       0.00000000 NULL
P       -2.54742949       2.94438751       8.03287926       0.00000000 NULL
P        7.78725465       8.51785597      -0.22044627       0.00000000 NULL
P        5.12185529       3.17926020       4.75186623       0.00000000 NULL
P        0.11796992       8.75272933       3.06056684       0.00000000 NULL
P       -3.71939876      -3.15018801       7.81410882       0.00000000 NULL
P        8.95922247       2.42328009      -0.00167796       0.00000000 NULL
P        1.05971272      -1.04597542       4.31559026       0.00000000 NULL
P        4.18011148       4.52749259       3.49684133       0.00000000 NULL
P        8.02651729       1.07579461       1.42780846       0.00000000 NULL
P       -2.78669258       6.64926326       6.38462388       0.00000000 NULL
40
Lattice="11.031086954360179 -1.2394624160615983e-06 -0.4261884029993415 1.3249093723222902e-06 11.120813269658626 1.950687550660292e-06 -5.829288472351768 -5.560407379834046 8.206508873507309" Properties=species:S:1:pos:R:3:initial_magmoms:R:1:castep_labels:S:1 n_minim_iter=8 pbc="T T T"
P       -0.46305092       5.55925079       4.13754374       0.00000000 NULL
P        5.66485073      -0.00115649       3.64277869       0.00000000 NULL
P        2.22778472       0.21688569       7.46175957       0.00000000 NULL
P        2.97401514       5.77729349       0.31856293       0.00000000 NULL
P       -0.71063054      -3.57765356       6.75669950       0.00000000 NULL
P        5.91242950       1.98275329       1.02362167       0.00000000 NULL
P        0.57087413      -1.97429164       7.35027939       0.00000000 NULL
P        4.63092521       3.58611572       0.43004234       0.00000000 NULL
P        6.00742164       9.49686387       0.75319070       0.00000000 NULL
P       -0.80562089       3.93645694       7.02713311       0.00000000 NULL
P        4.79761442       7.18712949       0.62636759       0.00000000 NULL
P        0.40418578       1.62672223       7.15395540       0.00000000 NULL
P        6.68971782       2.20679566       2.96039866       0.00000000 NULL
P       -1.48791748       7.76720295       4.81992454       0.00000000 NULL
P        3.07125748       3.32025930       1.94300869       0.00000000 NULL
P        2.13054180      -2.24014791       5.83731295       0.00000000 NULL
P        7.26597364       5.41231725       2.52331437       0.00000000 NULL
P       -2.06417387      -0.14808875       5.25700800       0.00000000 NULL
P        3.48873488       0.14283639       2.56599371       0.00000000 NULL
P        1.71306497       5.70324277       5.21432876       0.00000000 NULL
P        8.06300877      -2.23966541       3.33677868       0.00000000 NULL
P       -2.86120949       3.32074234       4.44354296       0.00000000 NULL
P        2.84613455       7.81729486       3.80015907       0.00000000 NULL
P        2.35566580       2.25688825       3.98016415       0.00000000 NULL
P        5.84602433       1.31936137       5.41528482       0.00000000 NULL
P       -0.64422420       6.87976931       2.36503807       0.00000000 NULL
P        1.55958244       4.21239823       0.74533233       0.00000000 NULL
P        3.64221705      -1.34800976       7.03498962       0.00000000 NULL
P        5.33468258       8.18785847       3.01324657       0.00000000 NULL
P       -0.13288214       2.62745218       4.76707677       0.00000000 NULL
P       -2.54575614       2.93813203       8.00968497       0.00000000 NULL
P        7.74755665       8.49853888      -0.22936151       0.00000000 NULL
P        5.08908460       3.17147695       4.72957681       0.00000000 NULL
P        0.11271597       8.73188447       3.05074673       0.00000000 NULL
P       -3.71166963      -3.14256512       7.79382255       0.00000000 NULL
P        8.91346869       2.41784138      -0.01350123       0.00000000 NULL
P        1.04999044      -1.04139284       4.30186798       0.00000000 NULL
P        4.15180912       4.51901357       3.47845407       0.00000000 NULL
P        7.98204140       1.07243696       1.41339002       0.00000000 NULL
P       -2.78024134       6.63284401       6.36693278       0.00000000 NULL
40
Lattice="11.02668157280571 -1.237952737240237e-06 -0.4318028977016152 1.3266527915030093e-06 11.135446903870454 1.9532544176049113e-06 -5.831218940083661 -5.56772419894322 8.219240576817263" Properties=species:S:1:pos:R:3:initial_magmoms:R:1:castep_labels:S:1 n_minim_iter=9 pbc="T T T"
P       -0.46348487       5.56738657       4.14358641       0.00000000 NULL
P        5.65894884      -0.00033753       3.64385322       0.00000000 NULL
P        2.22189501       0.21724347       7.47084213       0.00000000 NULL
P        2.97356900       5.78496809       0.31659758       0.00000000 NULL
P       -0.71412909      -3.58401981       6.76611231       0.00000000 NULL
P        5.90959220       1.98370386       1.02132607       0.00000000 NULL
P        0.56807606      -1.97480835       7.35925506       0.00000000 NULL
P        4.62738743       3.59291584       0.42818388       0.00000000 NULL
P        6.00518453       9.50988327       0.75301873       0.00000000 NULL
P       -0.80971963       3.94215953       7.03442228       0.00000000 NULL
P        4.79537045       7.19620936       0.62730440       0.00000000 NULL
P        0.40009390       1.62848528       7.16013581       0.00000000 NULL
P        6.68473573       2.20873197       2.96340200       0.00000000 NULL
P       -1.48927124       7.77645606       4.82403841       0.00000000 NULL
P        3.06830656       3.32304114       1.94681045       0.00000000 NULL
P        2.12715687      -2.24468289       5.84062840       0.00000000 NULL
P        7.26230901       5.41732918       2.52385483       0.00000000 NULL
P       -2.06684508      -0.15039364       5.26358475       0.00000000 NULL
P        3.48673810       0.14456845       2.56928798       0.00000000 NULL
P        1.70872590       5.71229165       5.21815171       0.00000000 NULL
P        8.05715223      -2.24002864       3.33833077       0.00000000 NULL
P       -2.86168880       3.32769591       4.44910808       0.00000000 NULL
P        2.84248476       7.82675013       3.80418753       0.00000000 NULL
P        2.35297975       2.25902671       3.98325290       0.00000000 NULL
P        5.84036032       1.31896348       5.41987034       0.00000000 NULL
P       -0.64489604       6.88668824       2.36756976       0.00000000 NULL
P        1.55583528       4.21863282       0.74624584       0.00000000 NULL
P        3.63962836      -1.34909198       7.04119332       0.00000000 NULL
P        5.33023072       8.19863752       3.01416202       0.00000000 NULL
P       -0.13476613       2.63091441       4.77327854       0.00000000 NULL
P       -2.54939959       2.94247759       8.02037860       0.00000000 NULL
P        7.74486425       8.51020127      -0.23293793       0.00000000 NULL
P        5.08467169       3.17543045       4.73290326       0.00000000 NULL
P        0.11079303       8.74315479       3.05453749       0.00000000 NULL
P       -3.71478491      -3.14654617       7.80524173       0.00000000 NULL
P        8.91024812       2.42117715      -0.01780320       0.00000000 NULL
P        1.04845847      -1.04118038       4.30773656       0.00000000 NULL
P        4.14700524       4.52654285       3.47970271       0.00000000 NULL
P        7.97740517       1.07319656       1.41182385       0.00000000 NULL
P       -2.78194096       6.64092043       6.37561616       0.00000000 NULL
40