42
Lattice="7.882380826812725 9.679949557588914e-16 5.586069298711286e-41 -3.9411904134063644 6.826342038323206 1.0712139436617547e-39 -1.2528454001909394e-40 -2.8465265584933437e-39 17.678628805596496" Properties=species:S:1:pos:R:3:initial_magmoms:R:1:castep_labels:S:1:forces:R:3 n_minim_iter=1 energy=-214.035456109168 stress="0.0004103553842994407 0.0 -0.0 0.0 0.0004103448718008036 -0.0 -0.0 -0.0 0.0006072229462765286" free_energy=-214.035456109168 pbc="T T T"
P        4.21534980       5.03812474       6.36079688       0.00000000 NULL      -0.25593500      -0.03076000      -0.07519400
P        1.41156192       1.13153765      12.25367315       0.00000000 NULL       0.15460600      -0.20626600      -0.07519500
P        6.19665952       0.65667966       0.46792061       0.00000000 NULL       0.10133000       0.23702700      -0.07519600
P       -0.91547181       3.16167359      14.01797227       0.00000000 NULL      -0.04075300       0.04091000      -0.19199200
P        1.66083667       4.45268340       2.23221974       0.00000000 NULL      -0.01505300      -0.05574800      -0.19199200
P       -0.74536486       6.03832709       8.12509601       0.00000000 NULL       0.05580600       0.01483900      -0.19199100
P        4.13718962       1.18460922       7.60386694       0.00000000 NULL      -0.05509400       0.25139600      -0.05872700
P        4.78788434       2.99060671      13.49674321       0.00000000 NULL      -0.19016800      -0.17341100      -0.05872600
P        2.89849727       2.65112612       1.71099067       0.00000000 NULL       0.24526300      -0.07798500      -0.05872800
P       -0.64601766       3.48513443       5.28523543       0.00000000 NULL       0.24912500       0.29787600       0.06697400
P        1.24598429       4.52430712      11.17811170       0.00000000 NULL      -0.38253100       0.06681100       0.06697300
P       -0.59996663       5.64324253      17.07098797       0.00000000 NULL       0.13340500      -0.36468800       0.06697400
P       -0.57863461       1.17874362      16.31576825       0.00000000 NULL       0.42161200      -0.43535200       0.16810500
P        3.20968580       5.73585796       4.53001571       0.00000000 NULL       0.16621900       0.58280400       0.16810400
P       -2.63105119       6.73808250      10.42289198       0.00000000 NULL      -0.58783200      -0.14745200       0.16810400
P        0.92480922       5.83824605       4.89631779       0.00000000 NULL      -0.24596500      -0.63241900       0.20654000
P       -1.57728359       4.70812730      10.78919406       0.00000000 NULL       0.67067300       0.10319700       0.20654000
P        0.65247436       3.10631074      16.68207032       0.00000000 NULL      -0.42470900       0.52922200       0.20654100
P        4.12867675       4.81957693      14.86389346       0.00000000 NULL       0.20051600       0.47844300       0.18549200
P        1.64416640       1.16575049       3.07814092       0.00000000 NULL      -0.51460200      -0.06557000       0.18549200
P        6.05072809       0.84101463       8.97101719       0.00000000 NULL       0.31408500      -0.41287500       0.18549200
P        3.68932707       4.98939730      17.08303293       0.00000000 NULL      -0.67748200      -0.11148100      -0.20348300
P        1.71677248       0.70035233       5.29728039       0.00000000 NULL       0.43528600      -0.53097700      -0.20348300
P        6.41747168       1.13659242      11.19015666       0.00000000 NULL       0.24219600       0.64245700      -0.20348300
P       -0.18121015       3.58312847       1.04358917       0.00000000 NULL       0.28093900      -0.11333700      -0.17770000
P        0.92871521       4.87784521       6.93646544       0.00000000 NULL      -0.04231600       0.29996900      -0.17769900
P       -0.74750506       5.19171040      12.82934171       0.00000000 NULL      -0.23862300      -0.18663300      -0.17769800
P        0.66002749       6.26712278       9.89730532       0.00000000 NULL      -0.13522900      -0.10310000      -0.15125600
P       -1.81631087       4.26438123      15.79018159       0.00000000 NULL       0.15690200      -0.06556200      -0.15125500
P        1.15628337       3.12118008       4.00442906       0.00000000 NULL      -0.02167300       0.16866300      -0.15125500
P        5.37874220       2.64073506      -0.03358027       0.00000000 NULL      -0.08994800       0.45699000      -0.22252400
P        2.90606608       3.33775987       5.85929600       0.00000000 NULL      -0.35079100      -0.30639200      -0.22252400
P        3.53876295       0.84784713      11.75217227       0.00000000 NULL       0.44074000      -0.15059700      -0.22252400
P        3.89949647       1.13563219       5.35415154       0.00000000 NULL       0.14162800       0.55762200       0.12900100
P        4.94914627       2.80924692      11.24702781       0.00000000 NULL      -0.55372800      -0.15615800       0.12900200
P        2.97492850       2.88146294      17.13990407       0.00000000 NULL       0.41210100      -0.40146400       0.12900300
P        5.60096254       1.19158982      14.67276620       0.00000000 NULL      -0.01018800      -0.13591900       0.16864300
P        4.04995250       4.25478094       2.88701366       0.00000000 NULL       0.12280300       0.05913600       0.16864300
P        2.17265620       1.37997129       8.77988993       0.00000000 NULL      -0.11261600       0.07678200       0.16864300
P        0.79004129       2.62942866       6.80127362       0.00000000 NULL      -0.10068900      -0.26840900       0.15611900
P        1.26901774       6.19582354      12.69414989       0.00000000 NULL       0.28279300       0.04700600       0.15611900
P       -2.05905905       4.82743188       0.90839735       0.00000000 NULL      -0.18210400       0.22140300       0.15611800
42
Lattice="7.841660699411213 2.449691191121139e-15 6.326573382241824e-41 -3.9208303497056094 6.791077373548158 1.0810673174482525e-39 -1.0746632061976175e-40 -2.776117993524006e-39 17.543653324580532" Properties=species:S:1:pos:R:3:initial_magmoms:R:1:castep_labels:S:1:forces:R:3 n_minim_iter=2 energy=-214.100994563014 stress="-0.0062061989798978395 0.0 1.0703683356181567e-08 0.0 -0.006206209683581195 -0.0 1.0703683356181567e-08 -0.0 -0.007243353786061764" free_energy=-214.100994563014 pbc="T T T"
P        4.19019506       5.01169192       6.31124238       0.00000000 NULL      -0.12146900      -0.02788000       0.09912600
P        1.40631065       1.12296941      12.15912683       0.00000000 NULL       0.08487900      -0.09125400       0.09912700
P        6.16598533       0.65641605       0.46335794       0.00000000 NULL       0.03659000       0.11913500       0.09912700
P       -0.91128046       3.14588051      13.90841771       0.00000000 NULL       0.12323900      -0.03586400      -0.22883800
P        1.65205814       4.42894510       2.21264882       0.00000000 NULL      -0.03056200       0.12466300      -0.22883800
P       -0.74077769       6.00732915       8.06053326       0.00000000 NULL      -0.09268100      -0.08879900      -0.22883800
P        4.11508978       1.18180802       7.54503850       0.00000000 NULL      -0.00555000       0.34961100       0.00404200
P        4.76064004       2.97286828      13.39292295       0.00000000 NULL      -0.29999300      -0.17961200       0.00404300
P        2.88676122       2.63640108       1.69715406       0.00000000 NULL       0.30554600      -0.16999800       0.00404500
P       -0.63939187       3.47106234       5.24576478       0.00000000 NULL      -0.01000500       0.32561000       0.03295600
P        1.23449812       4.50181661      11.09364922       0.00000000 NULL      -0.27698400      -0.17147100       0.03295500
P       -0.59510626       5.60927580      16.94153366       0.00000000 NULL       0.28699000      -0.15414000       0.03295500
P       -0.57008006       1.16690757      16.19341163       0.00000000 NULL       0.54851000      -0.49138500       0.04584800
P        3.19529878       5.71391978       4.49764275       0.00000000 NULL       0.15129800       0.72071600       0.04584900
P       -2.62521872       6.70132741      10.34552719       0.00000000 NULL      -0.69980800      -0.22933200       0.04584800
P        0.91678491       5.79973785       4.86165423       0.00000000 NULL      -0.26742300      -0.52727100       0.03294300
P       -1.56028242       4.68516748      10.70953867       0.00000000 NULL       0.59034100       0.03204000       0.03294400
P        0.64349750       3.09724943      16.55742311       0.00000000 NULL      -0.32291800       0.49523000       0.03294200
P        4.10999498       4.80099466      14.75285078       0.00000000 NULL       0.09961200       0.57028200       0.03110300
P        1.62887988       1.15886274       3.05708190       0.00000000 NULL      -0.54368400      -0.19887700       0.03110200
P        6.02361619       0.83121999       8.90496634       0.00000000 NULL       0.44407400      -0.37140600       0.03110200
P        3.66132528       4.96215068      16.94992546       0.00000000 NULL      -0.73185200       0.01064100      -0.11870600
P        1.71364951       0.68972537       5.25415658       0.00000000 NULL       0.35671100      -0.63912400      -0.11870600
P        6.38751625       1.13920133      11.10204102       0.00000000 NULL       0.37514200       0.62848300      -0.11870600
P       -0.17656559       3.56312208       1.03328159       0.00000000 NULL       0.23743000      -0.12591700       0.02848200
P        0.92335891       4.85660605       6.88116603       0.00000000 NULL      -0.00966700       0.26857800       0.02848000
P       -0.74679332       5.16242662      12.72905048       0.00000000 NULL      -0.22776300      -0.14266200       0.02848000
P        0.65483277       6.23338608       9.81974824       0.00000000 NULL      -0.15997100      -0.09937400      -0.16282300
P       -1.80485673       4.24148615      15.66763268       0.00000000 NULL       0.16604300      -0.08885300      -0.16282400
P        1.15002396       3.10728252       3.97186380       0.00000000 NULL      -0.00607400       0.18822600      -0.16282300
P        5.34976846       2.63312543      -0.03625394       0.00000000 NULL      -0.15284400       0.43865300      -0.21191000
P        2.88642295       3.31647269       5.81163050       0.00000000 NULL      -0.30346300      -0.35169200      -0.21190900
P        3.52629962       0.84147927      11.65951494       0.00000000 NULL       0.45630600      -0.08695800      -0.21190900
P        3.88122130       1.13712623       5.31497146       0.00000000 NULL       0.25484800       0.57202600      -0.00465400
P        4.91626985       2.79267314      11.16285591       0.00000000 NULL      -0.62281300      -0.06530700      -0.00465400
P        2.96499989       2.86127802      17.01074035       0.00000000 NULL       0.36796500      -0.50671800      -0.00465600
P        5.57189366       1.18363996      14.56296092       0.00000000 NULL      -0.05731300      -0.21482500       0.18111500
P        4.03065159       4.23358148       2.86719203       0.00000000 NULL       0.21470000       0.05777800       0.18111600
P        2.15994579       1.37385594       8.71507647       0.00000000 NULL      -0.15738800       0.15704700       0.18111500
P        0.78463086       2.61230209       6.75140189       0.00000000 NULL      -0.06442600      -0.37375200       0.27131500
P        1.26619494       6.16443659      12.59928633       0.00000000 NULL       0.35589200       0.13108200       0.27131600
P       -2.05082581       4.80541607       0.90351745       0.00000000 NULL      -0.29146700       0.24267000       0.27131600
42
Lattice="7.889044627773429 4.8593220920590665e-15 5.773347602780231e-41 -3.9445223138867194 6.832113059240938 1.0757804059040552e-39 -1.1969908969634884e-40 -2.7976199460126892e-39 17.445393700704166" Properties=species:S:1:pos:R:3:initial_magmoms:R:1:castep_labels:S:1:forces:R:3 n_minim_iter=3 energy=-214.794650306433 stress="0.00030247160157757303 0.0 -1.0635055081662848e-08 0.0 0.00030246096652249133 -0.0 -1.0635055081662848e-08 -0.0 -0.01010813064258678" free_energy=-214.794650306433 pbc="T T T"
P        4.18799913       5.03856255       6.26898212       0.00000000 NULL      -0.26990200      -0.32116400       0.12900100
P        1.43152189       1.10763237      12.08411336       0.00000000 NULL       0.41308800      -0.07316000       0.12900100
P        6.21404591       0.68591815       0.45385089       0.00000000 NULL      -0.14318300       0.39432600       0.12899700
P       -0.92003034       3.16884680      13.80908783       0.00000000 NULL      -0.13017900      -0.13291300      -0.32571400
P        1.66023566       4.45092002       2.17882536       0.00000000 NULL       0.18019400      -0.04628000      -0.32571400
P       -0.74020533       6.04445931       7.99395659       0.00000000 NULL      -0.05001700       0.17919300      -0.32571300
P        4.13419679       1.21781477       7.49680567       0.00000000 NULL      -0.02434600       0.16361200       0.41494600
P        4.76728771       2.97141207      13.31193691       0.00000000 NULL      -0.12951700      -0.10289000       0.41494700
P        2.93208244       2.64288623       1.68167444       0.00000000 NULL       0.15386500      -0.06072100       0.41494400
P       -0.61749553       3.52553155       5.22349184       0.00000000 NULL      -0.13235200       0.27558400       0.02102800
P        1.20007019       4.53458047      11.03862308       0.00000000 NULL      -0.17248700      -0.25241200       0.02102800
P       -0.58257467       5.60411410      16.85375431       0.00000000 NULL       0.30483700      -0.02317300       0.02102900
P       -0.52541659       1.12488139      16.12026594       0.00000000 NULL       0.56630900      -0.23770300      -0.20713100
P        3.23305475       5.81464826       4.49000348       0.00000000 NULL      -0.07729900       0.60929100      -0.20713500
P       -2.70763817       6.72469648      10.30513471       0.00000000 NULL      -0.48901200      -0.37158900      -0.20713500
P        0.89467836       5.76497936       4.85580561       0.00000000 NULL      -0.01084300      -0.02610600      -0.64337500
P       -1.49543545       4.72443757      10.67093684       0.00000000 NULL       0.02803000       0.00366300      -0.64337500
P        0.60075708       3.17480920      16.48606808       0.00000000 NULL      -0.01718900       0.02244400      -0.64337200
P        4.15642293       4.88418162      14.68943592       0.00000000 NULL       0.19483500       0.42391400      -0.05056900
P        1.58100780       1.15747704       3.05917345       0.00000000 NULL      -0.46453700      -0.04322700      -0.05057000
P        6.09613620       0.79045440       8.87430468       0.00000000 NULL       0.26970300      -0.38068800      -0.05057000
P        3.60733841       4.98065687      16.83324983       0.00000000 NULL      -0.48466000      -0.11952700       0.06882800
P        1.77200005       0.63371827       5.20298736       0.00000000 NULL       0.34584300      -0.35996600       0.06882800
P        6.45422848       1.21773793      11.01811859       0.00000000 NULL       0.13881800       0.47949100       0.06882800
P       -0.14659798       3.57189204       1.00954515       0.00000000 NULL      -0.27076700       0.18394500       0.76283700
P        0.92447206       4.91920947       6.82467638       0.00000000 NULL      -0.02391700      -0.32646400       0.76284000
P       -0.77787408       5.17312462      12.63980762       0.00000000 NULL       0.29468500       0.14251800       0.76284000
P        0.64348665       6.25956500       9.74800262       0.00000000 NULL      -0.18892300       0.03190800      -0.04284900
P       -1.79816332       4.25960635      15.56313385       0.00000000 NULL       0.06682700      -0.17956600      -0.04284800
P        1.15467666       3.14505478       3.93287139       0.00000000 NULL       0.12209500       0.14765900      -0.04284900
P        5.37154543       2.69993715      -0.06047117       0.00000000 NULL      -0.12661100       0.31962400      -0.16257400
P        2.86505775       3.30192623       5.75466006       0.00000000 NULL      -0.21349600      -0.26946000      -0.16257400
P        3.59696375       0.83024969      11.56979130       0.00000000 NULL       0.34010800      -0.05016100      -0.16257400
P        3.92139778       1.20640042       5.29835914       0.00000000 NULL       0.01785900       0.44251100      -0.23763600
P        4.88357233       2.79282990      11.11349037       0.00000000 NULL      -0.39215600      -0.20578900      -0.23763600
P        3.02859682       2.83288275      16.92862160       0.00000000 NULL       0.37429700      -0.23672200      -0.23763400
P        5.60404820       1.17497989      14.50006406       0.00000000 NULL       0.04104400      -0.13012000       0.19773100
P        4.06945809       4.26575817       2.86980159       0.00000000 NULL       0.09216600       0.10060600       0.19773100
P        2.16006064       1.39137501       8.68493282       0.00000000 NULL      -0.13321000       0.02951500       0.19773100
P        0.77841427       2.59726433       6.73168374       0.00000000 NULL       0.21636500      -0.23181400       0.07547800
P        1.30601829       6.20760743      12.54681497       0.00000000 NULL       0.09257400       0.30328500       0.07547800
P       -2.08443257       4.85935437       0.91655251       0.00000000 NULL      -0.30893800      -0.07147200       0.07547600
42
Lattice="7.782788871360373 5.9318143504741256e-15 8.352379157568847e-41 -3.891394435680192 6.7400928748889 1.1144249659907166e-39 -6.419709034248454e-41 -2.6977369621147776e-39 17.874662429832476" Properties=species:S:1:pos:R:3:initial_magmoms:R:1:castep_labels:S:1:forces:R:3 n_minim_iter=4 energy=-215.114501538303 stress="-0.0035496972194983345 1.0665003844230597e-08 1.0665003844230597e-08 1.0665003844230597e-08 -0.0035496972194983345 -0.0 1.0665003844230597e-08 -0.0 -0.0019432063604341917" free_energy=-215.114501538303 pbc="T T T"
P        4.11716959       4.96760194       6.42006978       0.00000000 NULL      -0.30748500      -0.22835900      -0.06705900
P        1.42213460       1.08177250      12.37829059       0.00000000 NULL       0.35150700      -0.15211200      -0.06706000
P        6.13487911       0.69071845       0.46184897       0.00000000 NULL      -0.04402300       0.38046800      -0.06705600
P       -0.91015178       3.12757707      14.13704731       0.00000000 NULL      -0.05175000      -0.26176300      -0.16103000
P        1.63790913       4.38808979       2.22060569       0.00000000 NULL       0.25256800       0.08606600      -0.16103000
P       -0.72775736       5.96451890       8.17882650       0.00000000 NULL      -0.20081800       0.17569900      -0.16103000
P        4.07559443       1.21541239       7.68017919       0.00000000 NULL       0.10243700       0.18231200       0.23482600
P        4.69241365       2.92186212      13.63840000       0.00000000 NULL      -0.20910600      -0.00244300       0.23482600
P        2.90617522       2.60281837       1.72195838       0.00000000 NULL       0.10666900      -0.17987100       0.23482800
P       -0.59715310       3.49489846       5.35565127       0.00000000 NULL      -0.32874000       0.15210200       0.01062800
P        1.16330013       4.47549390      11.31387208       0.00000000 NULL       0.03264500      -0.36074800       0.01062700
P       -0.56614704       5.50979340      17.27209289       0.00000000 NULL       0.29609600       0.20864700       0.01062600
P       -0.49354970       1.08585087      16.52476041       0.00000000 NULL       0.43808800      -0.24646300      -0.04413000
P        3.19779485       5.76974087       4.60831879       0.00000000 NULL      -0.00559900       0.50262600      -0.04412700
P       -2.70424516       6.62459402      10.56653960       0.00000000 NULL      -0.43248600      -0.25616100      -0.04412600
P        0.86972580       5.65437991       4.98305016       0.00000000 NULL       0.02472500      -0.04174500      -0.61795500
P       -1.44030511       4.66610756      10.94127097       0.00000000 NULL       0.02379100       0.04228500      -0.61795500
P        0.57057930       3.15969829      16.89949178       0.00000000 NULL      -0.04851300      -0.00054000      -0.61796000
P        4.11166880       4.84543997      15.06034435       0.00000000 NULL      -0.02097200       0.33465700       0.16076100
P        1.53068037       1.13808966       3.14390273       0.00000000 NULL      -0.27933600      -0.18549300       0.16076000
P        6.03183413       0.75656326       9.10212354       0.00000000 NULL       0.30030600      -0.14916700       0.16076100
P        3.52109964       4.90736697      17.23703271       0.00000000 NULL      -0.27277500       0.05756900      -0.17179700
P        1.77233459       0.59567827       5.32059109       0.00000000 NULL       0.08653200      -0.26501500      -0.17179600
P        6.38074907       1.23704765      11.27881190       0.00000000 NULL       0.18624300       0.20744600      -0.17179700
P       -0.13129749       3.51871525       1.02877233       0.00000000 NULL      -0.43127600       0.05187000       0.67060000
P        0.90974639       4.86702830       6.98699314       0.00000000 NULL       0.17071800      -0.39943000       0.67059600
P       -0.77844890       5.09444222      12.94521395       0.00000000 NULL       0.26055800       0.34756100       0.67059600
P        0.62685570       6.17003504       9.97957409       0.00000000 NULL      -0.31454800       0.00524800      -0.04358500
P       -1.76544050       4.19794832      15.93779490       0.00000000 NULL       0.15273100      -0.27503100      -0.04358500
P        1.13858480       3.11220239       4.02135328       0.00000000 NULL       0.16181800       0.26978600      -0.04358400
P        5.29383373       2.68886304      -0.07458918       0.00000000 NULL      -0.08994400       0.33049600      -0.13446800
P        2.80724830       3.24016299       5.88363163       0.00000000 NULL      -0.24124600      -0.24314100      -0.13446800
P        3.57310126       0.81106686      11.84185244       0.00000000 NULL       0.33119000      -0.08735400      -0.13446800
P        3.87619914       1.22130541       5.43431866       0.00000000 NULL       0.19853500       0.41762400       0.01968000
P        4.78700779       2.74623423      11.39253947       0.00000000 NULL      -0.46094100      -0.03687500       0.01968000
P        3.01097637       2.77255325      17.35076028       0.00000000 NULL       0.26240600      -0.38074900       0.01967800
P        5.52816600       1.15135645      14.86680939       0.00000000 NULL       0.04115100      -0.12798000       0.15818000
P        4.02160193       4.21185398       2.95036777       0.00000000 NULL       0.09025800       0.09962800       0.15818000
P        2.12441536       1.37688246       8.90858858       0.00000000 NULL      -0.13140900       0.02835200       0.15818000
P        0.76373788       2.54706781       6.90617268       0.00000000 NULL       0.25917100      -0.14216000      -0.01464900
P        1.30370007       6.12797539      12.86439349       0.00000000 NULL      -0.00647200       0.29552800      -0.01464900
P       -2.06743796       4.80514257       0.94795187       0.00000000 NULL      -0.25270100      -0.15336800      -0.01464700
42
Lattice="7.776174955615036 1.0003935271018894e-14 7.309995996336989e-41 -3.8880874778075265 6.734365055834944 1.0927101729510986e-39 -8.552312258297623e-41 -2.7258973413601898e-39 17.637024242272876" Properties=species:S:1:pos:R:3:initial_magmoms:R:1:castep_labels:S:1:forces:R:3 n_minim_iter=5 energy=-216.02216766778 stress="-0.00416549810119005 1.0827096738717515e-08 0.0 1.0827096738717515e-08 -0.0041655089282867895 -0.0 0.0 -0.0 -0.00143189437079213" free_energy=-216.02216766778 pbc="T T T"
P        4.04164731       4.92658881       6.31349036       0.00000000 NULL      -0.35747700      -0.26338300       0.07424300
P        1.48880023       1.03687485      12.19249844       0.00000000 NULL       0.40683500      -0.17789300       0.07424200
P        6.13381488       0.77090141       0.43448228       0.00000000 NULL      -0.04935900       0.44127500       0.07424500
P       -0.93114549       3.09981341      13.90666561       0.00000000 NULL      -0.05787000      -0.45084500      -0.26394100
P        1.66914306       4.37806271       2.14864945       0.00000000 NULL       0.41937800       0.17530600      -0.26394100
P       -0.73799758       5.99085400       8.02765753       0.00000000 NULL      -0.36150800       0.27554000      -0.26394100
P        4.07547825       1.25637933       7.60706916       0.00000000 NULL       0.16739400       0.14862200       0.34822200
P        4.65037941       2.90127804      13.48607724       0.00000000 NULL      -0.21240700       0.07065600       0.34822200
P        2.93840476       2.57670769       1.72806108       0.00000000 NULL       0.04501400      -0.21927900       0.34822300
P       -0.60057141       3.54132002       5.29421241       0.00000000 NULL      -0.17417700       0.04121100       0.01258900
P        1.12150008       4.44359496      11.17322049       0.00000000 NULL       0.05139800      -0.17144800       0.01258900
P       -0.52092868       5.48381514      17.05222857       0.00000000 NULL       0.12277900       0.13023700       0.01258900
P       -0.39838105       1.01492455      16.31689050       0.00000000 NULL       0.32568000      -0.09481700      -0.22174500
P        3.20832756       5.88189468       4.55887433       0.00000000 NULL      -0.08072500       0.32945500      -0.22174400
P       -2.80994652       6.57191089      10.43788241       0.00000000 NULL      -0.24495300      -0.23463700      -0.22174300
P        0.85054458       5.58143851       4.85675385       0.00000000 NULL       0.22544300      -0.30392800       0.04505700
P       -1.37085235       4.68023903      10.73576193       0.00000000 NULL       0.15048800       0.34720300       0.04505700
P        0.52030776       3.20705259      16.61477001       0.00000000 NULL      -0.37593000      -0.04327500       0.04505600
P        4.13421011       4.92785524      14.90325870       0.00000000 NULL       0.12654200       0.19464600      -0.24106400
P        1.44142207       1.11640337       3.14524254       0.00000000 NULL      -0.23183900       0.01226500      -0.24106400
P        6.08863024       0.69010646       9.02425062       0.00000000 NULL       0.10529500      -0.20691300      -0.24106400
P        3.41711181       4.89003330      16.96610040       0.00000000 NULL      -0.28530700      -0.06479900       0.24116000
P        1.83272599       0.51428899       5.20808424       0.00000000 NULL       0.19877100      -0.21468400       0.24116000
P        6.41442463       1.33004277      11.08709232       0.00000000 NULL       0.08653600       0.27948300       0.24116000
P       -0.15914615       3.51663688       1.08510202       0.00000000 NULL      -0.27338100      -0.03620100      -0.06173600
P        0.92216368       4.83822202       6.96411010       0.00000000 NULL       0.16804200      -0.21865400      -0.06173800
P       -0.76301754       5.11387123      12.84311818       0.00000000 NULL       0.10533900       0.25485500      -0.06173800
P        0.57511364       6.15668188       9.82755727       0.00000000 NULL      -0.18433800      -0.16040900       0.26125900
P       -1.73131226       4.15408714      15.70656535       0.00000000 NULL       0.23108900      -0.07943800       0.26125900
P        1.15619861       3.15796109       3.94854919       0.00000000 NULL      -0.04674900       0.23984800       0.26125900
P        5.27134435       2.77417993      -0.11430607       0.00000000 NULL       0.16255400       0.01231300      -0.08190200
P        2.73799249       3.17802816       5.76470201       0.00000000 NULL      -0.09194100       0.13461900      -0.08190100
P        3.65492559       0.78215698      11.64371009       0.00000000 NULL      -0.07061400      -0.14693200      -0.08190200
P        3.90243447       1.32806660       5.37770872       0.00000000 NULL       0.09095000       0.06734000      -0.20943300
P        4.67481831       2.71557410      11.25671680       0.00000000 NULL      -0.10379300       0.04509500      -0.20943300
P        3.08700965       2.69072437      17.13572488       0.00000000 NULL       0.01284400      -0.11243500      -0.20943400
P        5.53082424       1.12471887      14.70732696       0.00000000 NULL       0.10593900      -0.15490000       0.06369000
P        4.03672772       4.22747486       2.94931080       0.00000000 NULL       0.08117800       0.16919700       0.06369100
P        2.09671047       1.38217133       8.82831888       0.00000000 NULL      -0.18711700      -0.01429600       0.06369100
P        0.78679959       2.50463773       6.82235793       0.00000000 NULL       0.12714400      -0.13106700       0.03360100
P        1.32560778       6.16343463      12.70136601       0.00000000 NULL       0.04993600       0.17564300       0.03360100
P       -2.11240738       4.80065776       0.94334985       0.00000000 NULL      -0.17708000      -0.04457600       0.03360200
42
Lattice="7.8327982783569645 1.3743538148476626e-14 4.983148808821521e-41 -3.916399139178494 6.783402291776138 1.0530516041222135e-39 -1.3488324766271673e-40 -2.8091122562010866e-39 17.215282601439952" Properties=species:S:1:pos:R:3:initial_magmoms:R:1:castep_labels:S:1:forces:R:3 n_minim_iter=6 energy=-216.683195107249 stress="-0.003943019849663598 0.0 -1.0932546967470355e-08 0.0 -0.003943019849663598 0.0 -1.0932546967470355e-08 0.0 -0.0014735980057453291" free_energy=-216.683195107249 pbc="T T T"
P        3.96978086       4.89986686       6.15630229       0.00000000 NULL      -0.20772900       0.29197900       0.02709900
P        1.60449867       0.98799765      11.89472983       0.00000000 NULL      -0.14899700      -0.32588700       0.02710000