12
Lattice="4.909600408960413 1.4732082045792054 3.0057945188149224e-07 1.3955963383061252 6.651658066178034 -2.52120447627443e-07 -3.152598973954671 -4.0624327157223945 7.7486906778966755" Properties=species:S:1:pos:R:3:initial_magmoms:R:1:castep_labels:S:1:forces:R:3 n_minim_iter=1 energy=-63.516644454343 stress="0.0002687696863617791 0.0001427562197292676 -0.0 0.0001427562197292676 0.0004994148165536151 0.0 -0.0 0.0 0.00031988358246572965" free_energy=-63.516644454343 pbc="T T T"
P       -0.91965912       1.98958598       6.63257464       0.00000000 NULL       0.03695000       0.00180800       0.00534300
P        3.29214354       0.13696486       1.11611613       0.00000000 NULL       0.03694400       0.00180800      -0.00534200
P        1.76530817       3.38800601       6.52084263       0.00000000 NULL      -0.01756400       0.01989800       0.00553600
P        1.06751041       0.06217669       1.22784810       0.00000000 NULL      -0.01755700       0.01989900      -0.00553700
P        0.01661382       2.04386673       3.62701037       0.00000000 NULL       0.01710900       0.01513700      -0.00578700
P        0.71441196       5.36969579       4.12167998       0.00000000 NULL       0.01710900       0.01513600       0.00578700
P        1.07981411       0.02553586       3.60665971       0.00000000 NULL      -0.03085200       0.00828900      -0.01046500
P        1.77761224       3.35136493       4.14203103       0.00000000 NULL      -0.03085200       0.00829000       0.01046500
P        2.57890208       4.13833959      -0.00166881       0.00000000 NULL      -0.02031900      -0.00944400       0.03507200
P        1.88110331       0.81251098       7.75035959       0.00000000 NULL      -0.02031900      -0.00944200      -0.03507400
P        0.94946762       2.22134958       1.61767488       0.00000000 NULL       0.01467600      -0.03569000       0.00542600
P        0.25166911      -1.10447921       6.13101585       0.00000000 NULL       0.01467500      -0.03568800      -0.00542500
12
Lattice="4.90814182564018 1.47183868268339 3.0054062079642277e-07 1.3943335440041178 6.648301195459439 -2.5203647869223514e-07 -3.151238284960457 -4.060069519543182 7.746327390115672" Properties=species:S:1:pos:R:3:initial_magmoms:R:1:castep_labels:S:1:forces:R:3 n_minim_iter=2 energy=-63.51672866221 stress="-0.00018469921788413063 0.0001141546708934147 -0.0 0.0001141546708934147 -0.00023004023731442922 0.0 -0.0 0.0 -0.00020952279276775782" free_energy=-63.51672866221 pbc="T T T"
P       -0.91954565       1.98877111       6.63057324       0.00000000 NULL       0.03876500       0.00761900      -0.00077800
P        3.29142983       0.13645889       1.11575424       0.00000000 NULL       0.03876900       0.00762000       0.00077900
P        1.76432414       3.38623270       6.51887609       0.00000000 NULL      -0.01922600       0.01156400       0.00796800
P        1.06715778       0.06208182       1.22745136       0.00000000 NULL      -0.01923100       0.01156700      -0.00796700
P        0.01640021       2.04295219       3.62588090       0.00000000 NULL       0.00627700       0.01495000      -0.00174900
P        0.71356695       5.36710281       4.12044617       0.00000000 NULL       0.00627600       0.01495200       0.00174900
P        1.07940989       0.02541010       3.60551763       0.00000000 NULL      -0.02245000       0.00669300      -0.00714100
P        1.77657662       3.34956073       4.14080982       0.00000000 NULL      -0.02244900       0.00669200       0.00714100
P        2.57759638       4.13598038      -0.00152730       0.00000000 NULL      -0.02004000      -0.01375900       0.03960700
P        1.88042901       0.81183020       7.74785478       0.00000000 NULL      -0.02004200      -0.01375500      -0.03960900
P        0.94898106       2.22001929       1.61720331       0.00000000 NULL       0.01667600      -0.02707400       0.00355900
P        0.25181394      -1.10413107       6.12912413       0.00000000 NULL       0.01667500      -0.02707100      -0.00355800
12
Lattice="4.9079670431457965 1.4672415043102074 3.007760552463367e-07 1.3886553160131037 6.64630218816316 -2.523681302334864e-07 -3.148311779855593 -4.056771426612099 7.7481064933664365" Properties=species:S:1:pos:R:3:initial_magmoms:R:1:castep_labels:S:1:forces:R:3 n_minim_iter=3 energy=-63.516949556144 stress="3.063870350964024e-05 -0.0003567341057396541 -4.2202070949917684e-08 -0.0003567341057396541 -9.638953004961198e-05 4.2202070949917684e-08 -4.2202070949917684e-08 4.2202070949917684e-08 0.00022991688253515152" free_energy=-63.516949556144 pbc="T T T"
P       -0.92038404       1.98955351       6.63213547       0.00000000 NULL       0.02406700       0.00395400       0.00360300
P        3.29325577       0.13364362       1.11597111       0.00000000 NULL       0.02406500       0.00395400      -0.00360100
P        1.76110472       3.38470509       6.52059344       0.00000000 NULL      -0.00166500      -0.00421900       0.01137000
P        1.06677747       0.06155371       1.22751311       0.00000000 NULL      -0.00166200      -0.00421900      -0.01137100
P        0.01486328       2.04317177       3.62661801       0.00000000 NULL      -0.00179900      -0.00141900      -0.00758900
P        0.70919090       5.36632289       4.12148816       0.00000000 NULL      -0.00179900      -0.00141900       0.00758900
P        1.07886240       0.02465559       3.60609143       0.00000000 NULL      -0.01285300       0.02072200      -0.01001400
P        1.77319002       3.34780671       4.14201512       0.00000000 NULL      -0.01285300       0.02072200       0.01001300
P        2.57384674       4.13281401      -0.00035503       0.00000000 NULL      -0.01254200      -0.01625500       0.01449400
P        1.87951848       0.80966334       7.74846162       0.00000000 NULL      -0.01254500      -0.01625500      -0.01449700
P        0.94769254       2.21799238       1.61770363       0.00000000 NULL       0.00479500      -0.00278600      -0.01455200
P        0.25336453      -1.10515847       6.13040292       0.00000000 NULL       0.00479200      -0.00278000       0.01455600
12
Lattice="4.910113882359875 1.4721108447858346 3.006786639594058e-07 1.394489562125224 6.650878249903011 -2.5216396020796376e-07 -3.1523023220388118 -4.0614941280553 7.741912394953891" Properties=species:S:1:pos:R:3:initial_magmoms:R:1:castep_labels:S:1:forces:R:3 n_minim_iter=4 energy=-63.517185447788 stress="0.0005233583556329416 -9.074358585571165e-06 0.0 -9.074358585571165e-06 -6.807879255128505e-05 0.0 0.0 0.0 -0.0002683055698998879" free_energy=-63.517185447788 pbc="T T T"
P       -0.91714153       1.99007365       6.62694558       0.00000000 NULL       0.00012000      -0.01090100       0.00287500
P        3.29572800       0.13674507       1.11496691       0.00000000 NULL       0.00012300      -0.01090100      -0.00287500
P        1.76363116       3.38828890       6.51585379       0.00000000 NULL       0.01729900      -0.00627700       0.01493300
P        1.06638678       0.06284949       1.22605866       0.00000000 NULL       0.01729400      -0.00627400      -0.01493200
P        0.01685391       2.04468914       3.62346176       0.00000000 NULL      -0.00902300       0.01120000       0.00230200
P        0.71409866       5.37012829       4.11845031       0.00000000 NULL      -0.00902400       0.01120200      -0.00230200
P        1.07800097       0.02624322       3.60273313       0.00000000 NULL      -0.00893300       0.00685700      -0.00041600
P        1.77524571       3.35168237       4.13917932       0.00000000 NULL      -0.00893200       0.00685500       0.00041600
P        2.57687760       4.13634952       0.00118730       0.00000000 NULL      -0.00616800      -0.01026300       0.00793000
P        1.87963222       0.81091081       7.74072520       0.00000000 NULL      -0.00617000      -0.01026200      -0.00793000
P        0.95035166       2.21890339       1.61623759       0.00000000 NULL       0.00670800       0.00938000      -0.03075800
P        0.25310653      -1.10653549       6.12567486       0.00000000 NULL       0.00670700       0.00938300       0.03075800
12
Lattice="4.905349032469515 1.4749910903041272 3.001535230412116e-07 1.3958854436194532 6.6547170697672495 -2.5226372002137615e-07 -3.1506178380048775 -4.06485366063183 7.744030909899268" Properties=species:S:1:pos:R:3:initial_magmoms:R:1:castep_labels:S:1:forces:R:3 n_minim_iter=5 energy=-63.517306661418 stress="-0.00012708488128783691 6.502017182168401e-06 -0.0 6.502017182168401e-06 0.0001296603556262283 -0.0 -0.0 -0.0 1.1146315169431544e-05" free_energy=-63.517306661418 pbc="T T T"
P       -0.91433947       1.99066831       6.62884359       0.00000000 NULL       0.00326300      -0.02097000       0.00692800
P        3.29306727       0.13830057       1.11518741       0.00000000 NULL       0.00326000      -0.02096700      -0.00692500
P        1.76301652       3.39083935       6.51803275       0.00000000 NULL       0.00945500      -0.00212200       0.01047600
P        1.06507420       0.06348053       1.22599821       0.00000000 NULL       0.00945900      -0.00212100      -0.01047700
P        0.01778797       2.04604034       3.62434449       0.00000000 NULL      -0.01466800       0.01509600      -0.00257700
P        0.71573066       5.37339891       4.11968610       0.00000000 NULL      -0.01466700       0.01509600       0.00257700
P        1.07617148       0.02714657       3.60346842       0.00000000 NULL      -0.00188600       0.00366900      -0.00389100
P        1.77411416       3.35450513       4.14056254       0.00000000 NULL      -0.00188700       0.00367000       0.00389200
P        2.57532057       4.13899949       0.00207636       0.00000000 NULL       0.00054100      -0.00592100      -0.00134900
P        1.87737725       0.81164137       7.74195464       0.00000000 NULL       0.00054300      -0.00592400       0.00134800
P        0.95067557       2.21995753       1.61628508       0.00000000 NULL       0.00329400       0.01024700      -0.03040600
P        0.25273250      -1.10740076       6.12774588       0.00000000 NULL       0.00329400       0.01024800       0.03040600
12
Lattice="4.906559019061422 1.475798850950705 3.002035185188595e-07 1.398171385456494 6.651892309161389 -2.519336348039849e-07 -3.1523658024878007 -4.06384516046453 7.747495931500014" Properties=species:S:1:pos:R:3:initial_magmoms:R:1:castep_labels:S:1:forces:R:3 n_minim_iter=6 energy=-63.517428789627 stress="9.372005123200596e-05 0.00019031080673598329 -4.2216239293696385e-08 0.00019031080673598329 -0.0003462575946868977 4.2216239293696385e-08 -4.2216239293696385e-08 4.2216239293696385e-08 0.00044470586471979766" free_energy=-63.517428789627 pbc="T T T"
P       -0.91280807       1.98861066       6.63216072       0.00000000 NULL      -0.00769300      -0.01567400       0.00533900
P        3.29466568       0.13846306       1.11533530       0.00000000 NULL      -0.00769500      -0.01567600      -0.00533900
P        1.76455369       3.38976910       6.52177308       0.00000000 NULL       0.01608400      -0.00761000       0.00529800
P        1.06546841       0.06382266       1.22572290       0.00000000 NULL       0.01608900      -0.00760800      -0.00529900
P        0.01788263       2.04601467       3.62576639       0.00000000 NULL      -0.00695500       0.01982800      -0.01857300
P        0.71696829       5.37196085       4.12172922       0.00000000 NULL      -0.00695500       0.01982900       0.01857200
P        1.07561544       0.02802217       3.60468220       0.00000000 NULL      -0.00131500      -0.00208000      -0.00651700
P        1.77470109       3.35396836       4.14281379       0.00000000 NULL      -0.00131500      -0.00208100       0.00651700
P        2.57647604       4.13703734       0.00293999       0.00000000 NULL       0.00262200      -0.01102800       0.00211100
P        1.87738974       0.81109161       7.74455604       0.00000000 NULL       0.00262000      -0.01102200      -0.00211400
P        0.95205149       2.21913624       1.61539243       0.00000000 NULL      -0.00274200       0.01655700      -0.00533800
P        0.25296544      -1.10680967       6.13210355       0.00000000 NULL      -0.00274500       0.01656400       0.00534200
12
Lattice="4.90569328041365 1.475448991822252 3.001553941109715e-07 1.396127468229083 6.656304076523903 -2.5233091906438153e-07 -3.150910973916942 -4.065876115024247 7.739321987707759" Properties=species:S:1:pos:R:3:initial_magmoms:R:1:castep_labels:S:1:forces:R:3 n_minim_iter=7 energy=-63.51769366178 stress="-1.3937234595742947e-05 -2.7029788306895413e-05 -4.2234044229524085e-08 -2.7029788306895413e-05 2.2426277485877285e-05 4.2234044229524085e-08 -4.2234044229524085e-08 4.2234044229524085e-08 -1.647127724951439e-05" free_energy=-63.51769366178 pbc="T T T"
P       -0.91121800       1.98829733       6.62601383       0.00000000 NULL      -0.02033400      -0.01744200      -0.00485800
P        3.29641197       0.13559399       1.11330825       0.00000000 NULL      -0.02033900      -0.01744300       0.00485900
P        1.76419408       3.39164404       6.51675443       0.00000000 NULL       0.01958500       0.00735200      -0.00005600
P        1.06613076       0.06349172       1.22256761       0.00000000 NULL       0.01959100       0.00735200       0.00005600
P        0.01598262       2.04996935       3.62114636       0.00000000 NULL       0.00279600       0.00276100      -0.03236700
P        0.71404632       5.37812141       4.11817530       0.00000000 NULL       0.00279700       0.00276100       0.03236700
P        1.07393435       0.02886180       3.59990422       0.00000000 NULL      -0.00474900       0.01383600       0.00327700
P        1.77199804       3.35701387       4.13941783       0.00000000 NULL      -0.00474900       0.01383700      -0.00327700
P        2.57398134       4.13749116       0.00482173       0.00000000 NULL      -0.00053400       0.00381200       0.01189400
P        1.87591701       0.80933954       7.73450036       0.00000000 NULL      -0.00053600       0.00381600      -0.01189600
P        0.95242330       2.22074154       1.61014028       0.00000000 NULL       0.00323800      -0.01032300       0.01724700
P        0.25435922      -1.10741025       6.12918176       0.00000000 NULL       0.00323500      -0.01031900      -0.01724500
12
Lattice="4.909386431955662 1.4790911223996457 3.0024426528503723e-07 1.4000355470945671 6.663223159905621 -2.524028709636528e-07 -3.1547115887032455 -4.071156722295619 7.7339337974814475" Properties=species:S:1:pos:R:3:initial_magmoms:R:1:castep_labels:S:1:forces:R:3 n_minim_iter=8 energy=-63.518330841032 stress="-1.6710288604092147e-05 6.962620251705061e-06 -4.219769849518219e-08 6.962620251705061e-06 -1.8946766624336805e-05 0.0 -4.219769849518219e-08 0.0 -6.1608639802965995e-06" free_energy=-63.518330841032 pbc="T T T"
P       -0.90995462       1.98137838       6.62242326       0.00000000 NULL       0.00232600      -0.00590300      -0.01688200
P        3.29941446       0.12885762       1.11151063       0.00000000 NULL       0.00232600      -0.00590000       0.01688500
P        1.77263761       3.39701335       6.51669307       0.00000000 NULL      -0.01872300      -0.00485900      -0.01608600
P        1.07262024       0.06540148       1.21724078       0.00000000 NULL      -0.01872200      -0.00485800       0.01608500
P        0.01434318       2.05844527       3.61023909       0.00000000 NULL       0.00921300      -0.00173900      -0.01231500
P        0.71436091       5.39005688       4.12369438       0.00000000 NULL       0.00921100      -0.00173700       0.01231500
P        1.06984539       0.03489434       3.59575948       0.00000000 NULL      -0.01209800       0.01323200       0.01185100
P        1.76986313       3.36650595       4.13817437       0.00000000 NULL      -0.01209800       0.01323000      -0.01185100
P        2.57474537       4.13903996       0.01182848       0.00000000 NULL       0.01145400      -0.01279000      -0.01158900
P        1.87472700       0.80742880       7.72210541       0.00000000 NULL       0.01145600      -0.01279000       0.01158500
P        0.95737476       2.22177590       1.60397414       0.00000000 NULL       0.00782900       0.01205400      -0.00671700
P        0.25735663      -1.10983544       6.12995971       0.00000000 NULL       0.00782600       0.01205800       0.00671900
12
Lattice="4.910198155607975 1.479236760909868 3.002992651561323e-07 1.3995195908804023 6.666369161233882 -2.5261322631650094e-07 -3.1548594723546035 -4.072802542262198 7.733059740069366" Properties=species:S:1:pos:R:3:initial_magmoms:R:1:castep_labels:S:1:forces:R:3 n_minim_iter=9 energy=-63.518710098679 stress="-2.7201579153982705e-05 2.9521093655485106e-07 0.0 2.9521093655485106e-07 -6.578986586079538e-05 -4.21729909364073e-08 0.0 -4.21729909364073e-08 8.645463141963497e-06" free_energy=-63.518710098679 pbc="T T T"
P       -0.90936672       1.97640830       6.61953603       0.00000000 NULL      -0.00602900      -0.00337900      -0.00103000
P        3.30107207       0.12246018       1.11352381       0.00000000 NULL      -0.00602900      -0.00337300       0.00103400
P        1.77300481       3.39858241       6.51605644       0.00000000 NULL      -0.00998900      -0.00821200      -0.01025500
P        1.07324542       0.06539754       1.21700335       0.00000000 NULL      -0.00999300      -0.00820900       0.01025600
P        0.01411452       2.06317836       3.60275205       0.00000000 NULL      -0.02172700       0.00859400       0.00493100
P        0.71387428       5.39636297       4.13030737       0.00000000 NULL      -0.02172900       0.00859600      -0.00493200
P        1.06506241       0.04034111       3.59630156       0.00000000 NULL       0.01044900       0.00649600       0.00221800
P        1.76482217       3.37352572       4.13675824       0.00000000 NULL       0.01045000       0.00649500      -0.00221800
P        2.57494058       4.13652885       0.01426900       0.00000000 NULL      -0.00164500       0.01712000      -0.00702300
P        1.87518019       0.80334469       7.71879084       0.00000000 NULL      -0.00164300       0.01711100       0.00702300
P        0.96068331       2.22372974       1.59959850       0.00000000 NULL       0.02894200      -0.02062000      -0.00181200
P        0.26092316      -1.10945459       6.13346129       0.00000000 NULL       0.02894400      -0.02062000       0.00180900
12
Lattice="4.901310902672812 1.4892447878548236 2.9906871675869497e-07 1.399153782224329 6.704356276466741 -2.5469888604478714e-07 -3.150232939018227 -4.096800115127229 7.700264732374703" Properties=species:S:1:pos:R:3:initial_magmoms:R:1:castep_labels:S:1:forces:R:3 n_minim_iter=10 energy=-63.520633734075 stress="4.050858080274816e-05 -6.751430133791361e-05 -0.0 -6.751430133791361e-05 -2.4473934234993683e-06 4.219643833619601e-08 -0.0 4.219643833619601e-08 -6.329465750429401e-06" free_energy=-63.520633734075 pbc="T T T"
P       -0.90625789       1.95843114       6.58149344       0.00000000 NULL      -0.01056300       0.01688300       0.00586000
P        3.29547655       0.09549749       1.11877138       0.00000000 NULL      -0.01056000       0.01688300      -0.00586000
P        1.76603773       3.41350932       6.48222333       0.00000000 NULL       0.00215800      -0.04720600       0.03576200
P        1.06646125       0.06133089       1.21804145       0.00000000 NULL       0.00215600      -0.04720400      -0.03576200
P        0.00151041       2.09635134       3.55999766       0.00000000 NULL       0.03296700       0.03783800       0.00146600
P        0.70108725       5.44852951       4.14026673       0.00000000 NULL       0.03296600       0.03784000      -0.00146600
P        1.04739064       0.06991631       3.58666679       0.00000000 NULL      -0.03728400      -0.01293700       0.02951000
P        1.74696749       3.42209448       4.11359798       0.00000000 NULL      -0.03728400      -0.01293900      -0.02951100
P        2.57110850       4.15296647       0.02009532       0.00000000 NULL       0.00714600       0.02202000      -0.02256100
P        1.87153102       0.80078874       7.68016951       0.00000000 NULL       0.00714300       0.02202400       0.02255800
P        0.99296479       2.22733414       1.57298283       0.00000000 NULL       0.00557800      -0.01660400       0.02029900
P        0.29338755      -1.12484376       6.12728196       0.00000000 NULL       0.00557600      -0.01659800      -0.02029700
12
Lattice="4.900772875512875 1.4989392198081108 2.985019993486731e-07 1.405223107732893 6.727391183997693 -2.554762039828219e-07 -3.152998586721055 -4.113164785897995 7.681271417129723" Properties=species:S:1:pos:R:3:initial_magmoms:R:1:castep_labels:S:1:forces:R:3 n_minim_iter=11 energy=-63.521717592078 stress="0.00040532738345421335 -0.0002716524455661499 -4.218205676493011e-08 -0.0002716524455661499 0.00030257189317484367 0.0 -4.218205676493011e-08 0.0 0.0002446559292365946" free_energy=-63.521717592078 pbc="T T T"
P       -0.90446308       1.94780502       6.55998922       0.00000000 NULL      -0.01943300       0.03838900      -0.00454100
P        3.29369866       0.08304835       1.12128229       0.00000000 NULL      -0.01943100       0.03839000       0.00454400
P        1.76593833       3.41786817       6.46657272       0.00000000 NULL       0.00339100      -0.01423400       0.01741100
P        1.06332719       0.05417230       1.21469875       0.00000000 NULL       0.00339200      -0.01423200      -0.01741200
P       -0.00105087       2.12104989       3.53487548       0.00000000 NULL       0.01796000       0.02144800      -0.00546500
P        0.70156064       5.48474552       4.14639560       0.00000000 NULL       0.01796000       0.02144900       0.00546500
P        1.03333418       0.08717699       3.58444165       0.00000000 NULL      -0.01103900       0.00051400       0.00872000
P        1.73594570       3.45087261       4.09682980       0.00000000 NULL      -0.01103900       0.00051400      -0.00872000
P        2.57491955       4.16650136       0.02091872       0.00000000 NULL       0.02361700      -0.01006800      -0.02255300
P        1.87230741       0.80280618       7.66035279       0.00000000 NULL       0.02361800      -0.01006800       0.02255100
P        1.01562159       2.22848889       1.55853990       0.00000000 NULL      -0.01449800      -0.03605200       0.01579200
P        0.31300968      -1.13520646       6.12273158       0.00000000 NULL      -0.01449900      -0.03605000      -0.01579100
12
Lattice="4.900099122989705 1.5044418552300787 2.9815178749978764e-07 1.4102612762659616 6.734807629555992 -2.5548753972372145e-07 -3.1551807943382726 -4.119624326659173 7.6762667498951" Properties=species:S:1:pos:R:3:initial_magmoms:R:1:castep_labels:S:1:forces:R:3 n_minim_iter=12 energy=-63.522308616975 stress="0.0006063959935680526 -0.0003010042725830009 -4.218700386587259e-08 -0.0003010042725830009 0.0004723256952823095 4.218700386587259e-08 -4.218700386587259e-08 4.218700386587259e-08 0.0003547083285042567" free_energy=-63.522308616975 pbc="T T T"
P       -0.90460413       1.94679522       6.55244369       0.00000000 NULL       0.00581700       0.00290100       0.01927300
P        3.29036477       0.08383297       1.12382316       0.00000000 NULL       0.00581500       0.00289900      -0.01927300
P        1.76635910       3.41962452       6.46281506       0.00000000 NULL      -0.01039200      -0.04235900       0.01320900
P        1.06122887       0.05222042       1.21345174       0.00000000 NULL      -0.01038800      -0.04236400      -0.01321100
P       -0.00186769       2.13311136       3.52625240       0.00000000 NULL       0.02545700      -0.00147400      -0.00378700
P        0.70326290       5.50051521       4.15001401       0.00000000 NULL       0.02545900      -0.00147700       0.00378700
P        1.02906223       0.09364833       3.58454335       0.00000000 NULL      -0.01597900       0.01902400       0.00605800
P        1.73419283       3.46105217       4.09172344       0.00000000 NULL      -0.01598000       0.01902700      -0.00605800
P        2.58146020       4.16854512       0.01906402       0.00000000 NULL       0.00595900       0.02631100      -0.00983300
P        1.87632897       0.80114172       7.65720282       0.00000000 NULL       0.00595400       0.02631900       0.00982900
P        1.02334659       2.22471896       1.55355357       0.00000000 NULL      -0.01085900      -0.00440500       0.04051900
P        0.31821560      -1.14268461       6.12271324       0.00000000 NULL      -0.01086300      -0.00440300      -0.04051300
12
Lattice="4.892422414834393 1.5085541440251828 2.9733432813395774e-07 1.4141555215130337 6.7331247480004315 -2.5509469522666266e-07 -3.1532895637030234 -4.120839029706511 7.6868363806100675" Properties=species:S:1:pos:R:3:initial_magmoms:R:1:castep_labels:S:1:forces:R:3 n_minim_iter=13 energy=-63.523290779591 stress="0.0006859341878462012 -0.0001980442834892073 -4.222692611710177e-08 -0.0001980442834892073 0.0003877698625333455 4.222692611710177e-08 -4.222692611710177e-08 4.222692611710177e-08 0.0004069831139166268" free_energy=-63.523290779591 pbc="T T T"
P       -0.90086415       1.94413253       6.56220576       0.00000000 NULL      -0.01608500       0.00292700       0.01504500
P        3.28448093       0.08612401       1.12463071       0.00000000 NULL      -0.01608300       0.00292700      -0.01504400
P        1.75965254       3.41026759       6.47213984       0.00000000 NULL       0.00529700       0.00315100      -0.01613800
P        1.05257518       0.04370494       1.21469659       0.00000000 NULL       0.00529800       0.00314700       0.01613600
P       -0.00282330       2.14236026       3.52698388       0.00000000 NULL       0.02738900      -0.01260600       0.01944400
P        0.70425441       5.50892267       4.15985216       0.00000000 NULL       0.02738900      -0.01260600      -0.01944400
P        1.02748908       0.10139905       3.59030360       0.00000000 NULL      -0.03354700       0.01327100       0.00693400
P        1.73456680       3.46796145       4.09653281       0.00000000 NULL      -0.03354700       0.01327200      -0.00693400
P        2.58940053       4.16830971       0.01562189       0.00000000 NULL      -0.00025800       0.00975600       0.00336400
P        1.88232217       0.80174775       7.67121458       0.00000000 NULL      -0.00025800       0.00976100      -0.00336800
P        1.02420778       2.21898947       1.55964356       0.00000000 NULL       0.01720300      -0.01650100       0.01332200
P        0.31712967      -1.14757265       6.12719288       0.00000000 NULL       0.01720000      -0.01649900      -0.01331600
12
Lattice="4.890799612076563 1.5156777193448292 2.9682280224859563e-07 1.4211580303949394 6.740414477411778 -2.5494698308897743e-07 -3.1559794167748714 -4.12804568206515 7.6869629940455715" Properties=species:S:1:pos:R:3:initial_magmoms:R:1:castep_labels:S:1:forces:R:3 n_minim_iter=14 energy=-63.523825539896 stress="0.000599660473068254 -7.675721608379117e-05 0.0 -7.675721608379117e-05 0.00035127614841426973 -4.222069091517666e-08 0.0 -4.222069091517666e-08 0.0003364989065939579" free_energy=-63.523825539896 pbc="T T T"
P       -0.90105144       1.94329602       6.56582340       0.00000000 NULL       0.00487600      -0.00245100      -0.00289400
P        3.27916958       0.08876621       1.12113968       0.00000000 NULL       0.00487800      -0.00244700       0.00289700
P        1.75950556       3.41170975       6.46880052       0.00000000 NULL      -0.00984700       0.01441600      -0.00609900
P        1.04892695       0.04150223       1.21816252       0.00000000 NULL      -0.00985100       0.01442200       0.00610000
P        0.00013746       2.14899321       3.53026625       0.00000000 NULL       0.00163500      -0.00491000      -0.00462700
P        0.71071643       5.51920049       4.15669640       0.00000000 NULL       0.00163400      -0.00490800       0.00462600
P        1.02318998       0.10698313       3.59161037       0.00000000 NULL      -0.00110800       0.00002400       0.01772100
P        1.73376895       3.47719039       4.09535266       0.00000000 NULL      -0.00110700       0.00002200      -0.01772200
P        2.59954259       4.17448244       0.01436229       0.00000000 NULL      -0.01112900      -0.00189800       0.01174300
P        1.88896298       0.80427561       7.67260080       0.00000000 NULL      -0.01112800      -0.00190500      -0.01174200
P        1.02849757       2.21820647       1.56193847       0.00000000 NULL       0.01557200      -0.00518300       0.01641400
P        0.31791820      -1.15200052       6.12502459       0.00000000 NULL       0.01557400      -0.00518200      -0.01641800
12
Lattice="4.885266161246464 1.5304661574671892 2.955931868938849e-07 1.4364691568033738 6.750917851939279 -2.543296154985686e-07 -3.1608682540032556 -4.1406915887821 7.679724633089171" Properties=species:S:1:pos:R:3:initial_magmoms:R:1:castep_labels:S:1:forces:R:3 n_minim_iter=15 energy=-63.524346833295 stress="0.000405171129975954 9.996026102873037e-05 0.0 9.996026102873037e-05 0.00020558902606840012 -4.230226873835394e-08 0.0 -4.230226873835394e-08 0.00010749006486415736" free_energy=-63.524346833295 pbc="T T T"
P       -0.89581494       1.93711378       6.56097086       0.00000000 NULL       0.00337200      -0.00436100      -0.00764200
P        3.27121706       0.09212072       1.11875386       0.00000000 NULL       0.00336800      -0.00435700       0.00764600
P        1.75928827       3.41801900       6.46040944       0.00000000 NULL      -0.00624400       0.01693100      -0.01811600
P        1.04105410       0.04255979       1.21931524       0.00000000 NULL      -0.00624300       0.01693100       0.01811500
P        0.00236064       2.16105675       3.52615724       0.00000000 NULL      -0.00381200      -0.01114200       0.00043800