24
Lattice="4.965797724956235 0.0 0.0 0.0 8.531465130791409 0.0 0.0 0.0 13.255218340055373" Properties=species:S:1:pos:R:3:initial_magmoms:R:1:castep_labels:S:1:forces:R:3 n_minim_iter=1 energy=-123.189851723505 stress="0.00025331023493528057 0.0 0.0 0.0 0.0005309987975771622 -0.0 0.0 -0.0 -0.001077917408864844" free_energy=-123.189851723505 pbc="T T T"
P        1.62293580       2.94602390       9.63705740       0.00000000 NULL      -0.03410100       0.36950400      -0.27588500
P        1.62293580       5.58544123       3.61816094       0.00000000 NULL      -0.03410100      -0.36950400       0.27588500
P        4.10583466       1.31970866       3.00944823       0.00000000 NULL      -0.03409900      -0.36950300      -0.27588500
P        4.10583466       7.21175647      10.24577011       0.00000000 NULL      -0.03409900       0.36950300       0.27588500
P        2.86846223       7.98809835       2.93040108       0.00000000 NULL      -0.00439400      -0.21207400      -0.18320400
P        2.86846223       0.54336678      10.32481726       0.00000000 NULL      -0.00439400       0.21207400       0.18320400
P        0.38556337       4.80909935       9.55801025       0.00000000 NULL      -0.00439500       0.21207300      -0.18320400
P        0.38556337       3.72236578       3.69720809       0.00000000 NULL      -0.00439500      -0.21207300       0.18320400
P        0.98866911       8.13354062      11.15118680       0.00000000 NULL       0.07006100       0.07083600      -0.07389800
P        0.98866911       0.39792451       2.10403154       0.00000000 NULL       0.07006100      -0.07083600       0.07389800
P        3.47156797       4.66365708       4.52357763       0.00000000 NULL       0.07006400      -0.07083700      -0.07389800
P        3.47156797       3.86780805       8.73164071       0.00000000 NULL       0.07006400       0.07083700       0.07389800
P        3.28511137       7.02661590       0.91161676       0.00000000 NULL       0.14653600      -0.02574500       0.00472700
P        3.28511137       1.50484923      12.34360158       0.00000000 NULL       0.14653600       0.02574500      -0.00472700
P        0.80221251       5.77058180       7.53922593       0.00000000 NULL       0.14653400       0.02574500       0.00472700
P        0.80221251       2.76088333       5.71599241       0.00000000 NULL       0.14653400      -0.02574500      -0.00472700
P        2.30870959       7.30548572       8.10222887       0.00000000 NULL      -0.12715500       0.08890000       0.13774300
P        2.30870959       1.22597941       5.15298947       0.00000000 NULL      -0.12715500      -0.08890000      -0.13774300
P        4.79160845       5.49171198       1.47461970       0.00000000 NULL      -0.12715500      -0.08890000       0.13774300
P        4.79160845       3.03975315      11.78059864       0.00000000 NULL      -0.12715500       0.08890000      -0.13774300
P        0.48303885       7.36346843       0.57345144       0.00000000 NULL      -0.05094900       0.10959800       0.27848500
P        0.48303885       1.16799670      12.68176690       0.00000000 NULL      -0.05094900      -0.10959800      -0.27848500
P        2.96593772       5.43372927       7.20106061       0.00000000 NULL      -0.05094700      -0.10960000       0.27848500
P        2.96593772       3.09773587       6.05415773       0.00000000 NULL      -0.05094700       0.10960000      -0.27848500
24
Lattice="4.93780975225841 0.0 0.0 0.0 8.430979643033034 0.0 0.0 0.0 13.577890867051043" Properties=species:S:1:pos:R:3:initial_magmoms:R:1:castep_labels:S:1:forces:R:3 n_minim_iter=2 energy=-123.243981240104 stress="-0.003925888787216293 -0.0 0.0 -0.0 -0.0024912630581164614 0.0 0.0 0.0 0.00236558536485656" free_energy=-123.243981240104 pbc="T T T"
P        1.61244142       2.92583373       9.86042411       0.00000000 NULL       0.11407900       0.20513600      -0.26172800
P        1.61244142       5.50514592       3.71746676       0.00000000 NULL       0.11407900      -0.20513600       0.26172800
P        4.08134630       1.28965609       3.07147868       0.00000000 NULL       0.11407800      -0.20513800      -0.26172800
P        4.08134630       7.14132355      10.50641219       0.00000000 NULL       0.11407800       0.20513800       0.26172800
P        2.85212153       7.88568558       2.99427946       0.00000000 NULL      -0.08819400      -0.35731700      -0.29287500
P        2.85212153       0.54529407      10.58361140       0.00000000 NULL      -0.08819400       0.35731700       0.29287500
P        0.38321665       4.76078389       9.78322490       0.00000000 NULL      -0.08819600       0.35731900      -0.29287500
P        0.38321665       3.67019576       3.79466597       0.00000000 NULL      -0.08819600      -0.35731900       0.29287500
P        0.98586496       8.04052341      11.41963306       0.00000000 NULL       0.06135000       0.04205700      -0.01169600
P        0.98586496       0.39045624       2.15825780       0.00000000 NULL       0.06135000      -0.04205700       0.01169600
P        3.45476984       4.60594606       4.63068763       0.00000000 NULL       0.06135200      -0.04205500      -0.01169700
P        3.45476984       3.82503359       8.94720324       0.00000000 NULL       0.06135200       0.04205500       0.01169700
P        3.27238553       6.94284397       0.93400069       0.00000000 NULL      -0.06793000       0.02989700       0.15744000
P        3.27238553       1.48813568      12.64389018       0.00000000 NULL      -0.06793000      -0.02989700      -0.15744000
P        0.80348066       5.70362550       7.72294612       0.00000000 NULL      -0.06793200      -0.02989600       0.15744000
P        0.80348066       2.72735415       5.85494475       0.00000000 NULL      -0.06793200       0.02989600      -0.15744000
P        2.29067352       7.22293079       8.30506813       0.00000000 NULL      -0.09220300       0.25531900       0.19207200
P        2.29067352       1.20804885       5.27282274       0.00000000 NULL      -0.09220300      -0.25531900      -0.19207200
P        4.75957840       5.42353867       1.51612269       0.00000000 NULL      -0.09220300      -0.25531800       0.19207100
P        4.75957840       3.00744097      12.06176818       0.00000000 NULL      -0.09220300       0.25531800      -0.19207200
P        0.47830344       7.28104333       0.59874555       0.00000000 NULL       0.07289900       0.20609500       0.31114400
P        0.47830344       1.14993631      12.97914532       0.00000000 NULL       0.07289900      -0.20609500      -0.31114500
P        2.94720832       5.36542614       7.38769098       0.00000000 NULL       0.07290100      -0.20609400       0.31114400
P        2.94720832       3.06555351       6.19019988       0.00000000 NULL       0.07290100       0.20609400      -0.31114300
24
Lattice="5.004361711295227 0.0 0.0 0.0 8.41932730026446 0.0 0.0 0.0 13.805444323503846" Properties=species:S:1:pos:R:3:initial_magmoms:R:1:castep_labels:S:1:forces:R:3 n_minim_iter=3 energy=-123.30420231593 stress="0.0037239688403629097 -0.0 0.0 -0.0 0.004339902545068475 -0.0 0.0 -0.0 0.008833672471081903" free_energy=-123.30420231593 pbc="T T T"
P        1.63357906       2.94093116      10.00948926       0.00000000 NULL       0.21742000       0.26647600      -0.29313900
P        1.63357906       5.47839614       3.79595506       0.00000000 NULL       0.21742000      -0.26647600       0.29313900
P        4.13575991       1.26873249       3.10676710       0.00000000 NULL       0.21742200      -0.26647400      -0.29313900
P        4.13575991       7.15059481      10.69867722       0.00000000 NULL       0.21742200       0.26647400       0.29313900
P        2.88954975       7.86167976       3.03255863       0.00000000 NULL      -0.09428800      -0.26665600      -0.42013400
P        2.88954975       0.55764754      10.77288569       0.00000000 NULL      -0.09428800       0.26665600       0.42013400
P        0.38736889       4.76731119       9.93528079       0.00000000 NULL      -0.09428900       0.26665400      -0.42013500
P        0.38736889       3.65201611       3.87016353       0.00000000 NULL      -0.09428900      -0.26665400       0.42013500
P        1.00306526       8.03310438      11.60724598       0.00000000 NULL      -0.03186800       0.11011100      -0.02462500
P        1.00306526       0.38622292       2.19819834       0.00000000 NULL      -0.03186800      -0.11011100       0.02462500
P        3.50524611       4.59588657       4.70452382       0.00000000 NULL      -0.03186600      -0.11011300      -0.02462500
P        3.50524611       3.82344073       9.10092050       0.00000000 NULL      -0.03186600       0.11011300       0.02462500
P        3.32288903       6.93230594       0.95141252       0.00000000 NULL       0.09391300       0.02242200       0.25597100
P        3.32288903       1.48702136      12.85403180       0.00000000 NULL       0.09391300      -0.02242200      -0.25597100
P        0.82070818       5.69668501       7.85413469       0.00000000 NULL       0.09391100      -0.02242200       0.25597100
P        0.82070818       2.72264229       5.95130964       0.00000000 NULL       0.09391100       0.02242200      -0.25597100
P        2.31462022       7.21937687       8.45293012       0.00000000 NULL      -0.14769200       0.02379800       0.13064700
P        2.31462022       1.19995043       5.35251421       0.00000000 NULL      -0.14769200      -0.02379800      -0.13064700
P        4.81680107       5.40961408       1.55020795       0.00000000 NULL      -0.14769200      -0.02379800       0.13064700
P        4.81680107       3.00971322      12.25523637       0.00000000 NULL      -0.14769200       0.02379800      -0.13064700
P        0.48297382       7.27794378       0.62557412       0.00000000 NULL      -0.03748700       0.15701000       0.41287300
P        0.48297382       1.14138352      13.17987020       0.00000000 NULL      -0.03748700      -0.15701000      -0.41287300
P        2.98515467       5.35104717       7.52829628       0.00000000 NULL      -0.03748400      -0.15701200       0.41287300
P        2.98515467       3.06828013       6.27714804       0.00000000 NULL      -0.03748400       0.15701200      -0.41287300
24
Lattice="5.119452124508619 0.0 0.0 0.0 8.209059110703258 0.0 0.0 0.0 13.973702396260116" Properties=species:S:1:pos:R:3:initial_magmoms:R:1:castep_labels:S:1:forces:R:3 n_minim_iter=4 energy=-123.48233734396 stress="0.008637357255437612 -0.0 0.0 -0.0 -0.0038974066338286 -0.0 0.0 -0.0 0.003375914493207828" free_energy=-123.48233734396 pbc="T T T"
P        1.67094902       2.92724143      10.07832267       0.00000000 NULL       0.41257900      -0.10065800      -0.20372400
P        1.67094902       5.28181768       3.89537972       0.00000000 NULL       0.41257900       0.10065800       0.20372400
P        4.23067508       1.17728813       3.09147148       0.00000000 NULL       0.41257900       0.10065900      -0.20372400
P        4.23067508       7.03177099      10.88223092       0.00000000 NULL       0.41257900      -0.10065900       0.20372400
P        2.95208689       7.62394916       3.02874356       0.00000000 NULL      -0.11400800      -0.34895700      -0.29753000
P        2.95208689       0.58510995      10.94495884       0.00000000 NULL      -0.11400800       0.34895700       0.29753000
P        0.39236083       4.68963951      10.01559476       0.00000000 NULL      -0.11400700       0.34895600      -0.29753000
P        0.39236083       3.51941960       3.95810764       0.00000000 NULL      -0.11400700      -0.34895600       0.29753000
P        1.03824516       7.84445098      11.73666766       0.00000000 NULL      -0.12633000      -0.09590100      -0.22865400
P        1.03824516       0.36460813       2.23703474       0.00000000 NULL      -0.12633000       0.09590100       0.22865400
P        3.59797122       4.46913768       4.74981646       0.00000000 NULL      -0.12633100       0.09590000      -0.22865400
P        3.59797122       3.73992143       9.22388594       0.00000000 NULL      -0.12633100      -0.09590000       0.22865400
P        3.42044408       6.75646948       0.97061549       0.00000000 NULL       0.04246800      -0.07565000       0.05761300
P        3.42044408       1.45258964      13.00308690       0.00000000 NULL       0.04246800       0.07565000      -0.05761300
P        0.86071801       5.55711919       7.95746669       0.00000000 NULL       0.04246900       0.07564900       0.05761300
P        0.86071801       2.65193992       6.01623571       0.00000000 NULL       0.04246900      -0.07564900      -0.05761300
P        2.34472538       7.05851715       8.58417463       0.00000000 NULL      -0.16330200       0.12461300       0.11840500
P        2.34472538       1.15054196       5.38952777       0.00000000 NULL      -0.16330200      -0.12461300      -0.11840500
P        4.90445145       5.25507152       1.59732343       0.00000000 NULL      -0.16330200      -0.12461400       0.11840500
P        4.90445145       2.95398760      12.37637897       0.00000000 NULL      -0.16330200       0.12461400      -0.11840500
P        0.48807714       7.11827297       0.68926099       0.00000000 NULL      -0.05140700      -0.03363900       0.08343900
P        0.48807714       1.09078614      13.28444140       0.00000000 NULL      -0.05140700       0.03363900      -0.08343900
P        3.04780321       5.19531569       7.67611219       0.00000000 NULL      -0.05140800       0.03363900       0.08344000
P        3.04780321       3.01374342       6.29759020       0.00000000 NULL      -0.05140800      -0.03363900      -0.08343900
24
Lattice="5.071446400267359 0.0 0.0 0.0 8.306559920978597 0.0 0.0 0.0 14.03852694453259" Properties=species:S:1:pos:R:3:initial_magmoms:R:1:castep_labels:S:1:forces:R:3 n_minim_iter=5 energy=-123.559666017426 stress="0.00010336650736878829 0.0 -0.0 0.0 0.0009286583649098403 0.0 -0.0 0.0 0.001400123268959661" free_energy=-123.559666017426 pbc="T T T"
P        1.65755134       2.99131037      10.09726921       0.00000000 NULL       0.22307700      -0.14430500      -0.06070700
P        1.65755134       5.31524956       3.94125774       0.00000000 NULL       0.22307700       0.14430500       0.06070700
P        4.19327454       1.16196959       3.07800574       0.00000000 NULL       0.22307500       0.14430500      -0.06070700
P        4.19327454       7.14459033      10.96052121       0.00000000 NULL       0.22307500      -0.14430500       0.06070700
P        2.92178117       7.69149690       3.02083954       0.00000000 NULL       0.00266600      -0.25182000      -0.06854000
P        2.92178117       0.61506302      11.01768740       0.00000000 NULL       0.00266600       0.25182000       0.06854000
P        0.38605797       4.76834298      10.04010302       0.00000000 NULL       0.00266700       0.25182100      -0.06854000
P        0.38605797       3.53821694       3.99842393       0.00000000 NULL       0.00266800      -0.25182100       0.06854000
P        1.03388942       7.94289955      11.78353127       0.00000000 NULL      -0.08392500      -0.07179000      -0.09680000
P        1.03388942       0.36366037       2.25499567       0.00000000 NULL      -0.08392500       0.07179000       0.09680000
P        3.56961262       4.51694034       4.76426780       0.00000000 NULL      -0.08392900       0.07179100      -0.09680100
P        3.56961262       3.78961959       9.27425914       0.00000000 NULL      -0.08392900      -0.07179100       0.09680100
P        3.39866509       6.83491619       0.97894780       0.00000000 NULL      -0.17301400      -0.13456000      -0.00889100
P        3.39866509       1.47164373      13.05957915       0.00000000 NULL      -0.17301400       0.13456000       0.00889100
P        0.86294189       5.62492369       7.99821127       0.00000000 NULL      -0.17301100       0.13456000      -0.00889100
P        0.86294189       2.68163623       6.04031568       0.00000000 NULL      -0.17301100      -0.13456000       0.00889100
P        2.31044568       7.15338502       8.63903731       0.00000000 NULL      -0.01516500      -0.15709300      -0.01415600
P        2.31044568       1.15317490       5.39948963       0.00000000 NULL      -0.01516500       0.15709300       0.01415600
P        4.84616888       5.30645486       1.61977384       0.00000000 NULL      -0.01516500       0.15709200      -0.01415500
P        4.84616888       3.00010506      12.41875311       0.00000000 NULL      -0.01516500      -0.15709200       0.01415500
P        0.48047101       7.21380339       0.72064048       0.00000000 NULL       0.04636300      -0.21545000      -0.05222200
P        0.48047101       1.09275653      13.31788646       0.00000000 NULL       0.04636300       0.21545000       0.05222200
P        3.01619421       5.24603649       7.73990396       0.00000000 NULL       0.04636000       0.21545100      -0.05222200
P        3.01619421       3.06052343       6.29862299       0.00000000 NULL       0.04636000      -0.21545100       0.05222200
24
Lattice="5.0872838829929945 0.0 0.0 0.0 8.229813135765358 0.0 0.0 0.0 14.168180053702706" Properties=species:S:1:pos:R:3:initial_magmoms:R:1:castep_labels:S:1:forces:R:3 n_minim_iter=6 energy=-123.60736714856 stress="-9.238267696186377e-06 0.0 -0.0 0.0 0.0004501463942035924 -0.0 -0.0 -0.0 0.0015173348946404216" free_energy=-123.60736714856 pbc="T T T"
P        1.68298590       2.96947015      10.16751210       0.00000000 NULL      -0.00808900      -0.12275600       0.01685600
P        1.68298590       5.26034298       4.00066795       0.00000000 NULL      -0.00808900       0.12275700      -0.01685600
P        4.22662785       1.14543642       3.08342208       0.00000000 NULL      -0.00808800       0.12275700       0.01685600
P        4.22662785       7.08437672      11.08475798       0.00000000 NULL      -0.00808800      -0.12275700      -0.01685600
P        2.93088481       7.58495266       3.03193370       0.00000000 NULL       0.06307600      -0.07327000      -0.01175900
P        2.93088481       0.64486047      11.13624635       0.00000000 NULL       0.06307600       0.07327000       0.01175900
P        0.38724287       4.75976704      10.11602373       0.00000000 NULL       0.06307500       0.07326900      -0.01176000
P        0.38724287       3.47004610       4.05215633       0.00000000 NULL       0.06307500      -0.07326900       0.01176000
P        1.03325450       7.86550010      11.87603450       0.00000000 NULL       0.06377000       0.12851900       0.11896100
P        1.03325450       0.36431303       2.29214556       0.00000000 NULL       0.06377000      -0.12851900      -0.11896100
P        3.57689644       4.47921960       4.79194447       0.00000000 NULL       0.06377100      -0.12852000       0.11896100
P        3.57689644       3.75059354       9.37623558       0.00000000 NULL       0.06377100       0.12852000      -0.11896100
P        3.39950235       6.75783177       0.98497341       0.00000000 NULL      -0.16390300      -0.03163400      -0.06821300
P        3.39950235       1.47198136      13.18320664       0.00000000 NULL      -0.16390300       0.03163400       0.06821300
P        0.85586041       5.58688793       8.06906344       0.00000000 NULL      -0.16390300       0.03163400      -0.06821300
P        0.85586041       2.64292521       6.09911662       0.00000000 NULL      -0.16390300      -0.03163400       0.06821300
P        2.30880676       7.08069444       8.72642871       0.00000000 NULL      -0.00133300       0.10248400       0.06513800
P        2.30880676       1.14911870       5.44175134       0.00000000 NULL      -0.00133300      -0.10248400      -0.06513800
P        4.85244870       5.26402527       1.64233869       0.00000000 NULL      -0.00133300      -0.10248400       0.06513800
P        4.85244870       2.96578787      12.52584137       0.00000000 NULL      -0.00133300       0.10248400      -0.06513800
P        0.48422801       7.13352245       0.73609020       0.00000000 NULL       0.04647900      -0.02332000      -0.01529400
P        0.48422801       1.09629069      13.43208986       0.00000000 NULL       0.04647900       0.02332000       0.01529400
P        3.02786995       5.21119725       7.82018022       0.00000000 NULL       0.04647900       0.02331900      -0.01529400
P        3.02786995       3.01861588       6.34799983       0.00000000 NULL       0.04648000      -0.02331900       0.01529400
24
Lattice="5.057173488770147 0.0 0.0 0.0 8.138432881116618 0.0 0.0 0.0 14.22589816321185" Properties=species:S:1:pos:R:3:initial_magmoms:R:1:castep_labels:S:1:forces:R:3 n_minim_iter=7 energy=-123.644376427647 stress="-0.0017266895894477471 -0.0 -0.0 -0.0 -0.001285819954317332 0.0 -0.0 0.0 0.000705019086063162" free_energy=-123.644376427647 pbc="T T T"
P        1.67793361       2.92888441      10.19359461       0.00000000 NULL       0.01036500      -0.08070500      -0.00691600
P        1.67793361       5.20954847       4.03230355       0.00000000 NULL       0.01036500       0.08070500       0.00691600
P        4.20652035       1.14033203       3.08064553       0.00000000 NULL       0.01036200       0.08070400      -0.00691600
P        4.20652035       6.99810085      11.14525264       0.00000000 NULL       0.01036200      -0.08070400       0.00691600
P        2.92737379       7.46586587       3.03502975       0.00000000 NULL       0.02829500      -0.05036400      -0.03059500
P        2.92737379       0.67256701      11.19086842       0.00000000 NULL       0.02829500       0.05036400       0.03059500
P        0.39878705       4.74178345      10.14797883       0.00000000 NULL       0.02829700       0.05036600      -0.03059500
P        0.39878705       3.39664943       4.07791933       0.00000000 NULL       0.02829700      -0.05036600       0.03059500
P        1.03912946       7.79616593      11.93363930       0.00000000 NULL       0.03714900      -0.03734200      -0.00593700
P        1.03912946       0.34226695       2.29225886       0.00000000 NULL       0.03714900       0.03734200       0.00593700
P        3.56771621       4.41148339       4.82069022       0.00000000 NULL       0.03714300       0.03734400      -0.00593800
P        3.56771621       3.72694949       9.40520794       0.00000000 NULL       0.03714300      -0.03734400       0.00593800
P        3.34979486       6.66695588       0.96546642       0.00000000 NULL       0.07959100      -0.07640600       0.02143300
P        3.34979486       1.47147700      13.26043174       0.00000000 NULL       0.07959100       0.07640600      -0.02143300
P        0.82120811       5.54069344       8.07841550       0.00000000 NULL       0.07959400       0.07640600       0.02143300
P        0.82120811       2.59773944       6.14748266       0.00000000 NULL       0.07959400      -0.07640600      -0.02143300
P        2.28696359       7.01587127       8.78162404       0.00000000 NULL      -0.06176900       0.11450500       0.01188300
P        2.28696359       1.12256161       5.44427413       0.00000000 NULL      -0.06176900      -0.11450500      -0.01188300
P        4.81555034       5.19177805       1.66867496       0.00000000 NULL      -0.06176900      -0.11450600       0.01188400
P        4.81555034       2.94665483      12.55722321       0.00000000 NULL      -0.06176900       0.11450600      -0.01188400
P        0.48839106       7.04156568       0.74166789       0.00000000 NULL      -0.09362700      -0.12581600      -0.14641100
P        0.48839106       1.09686720      13.48423027       0.00000000 NULL      -0.09362700       0.12581600       0.14641100
P        3.01697781       5.16608364       7.85461697       0.00000000 NULL      -0.09363100       0.12581800      -0.14641100
P        3.01697781       2.97234924       6.37128119       0.00000000 NULL      -0.09363100      -0.12581800       0.14641100
24
Lattice="5.072079070197869 0.0 0.0 0.0 8.091866567930825 0.0 0.0 0.0 14.103721261810472" Properties=species:S:1:pos:R:3:initial_magmoms:R:1:castep_labels:S:1:forces:R:3 n_minim_iter=8 energy=-123.688705471035 stress="0.00023719311784790468 0.0 0.0 0.0 6.797923661555025e-05 1.727553662402802e-08 0.0 1.727553662402802e-08 0.0006490591865013566" free_energy=-123.688705471035 pbc="T T T"
P        1.68086215       2.90437107      10.08927318       0.00000000 NULL       0.12652800       0.03458700      -0.07200200
P        1.68086215       5.18749550       4.01444808       0.00000000 NULL       0.12652800      -0.03458700       0.07200200
P        4.21690169       1.14156221       3.03741255       0.00000000 NULL       0.12652600      -0.03458900      -0.07200200
P        4.21690169       6.95030435      11.06630871       0.00000000 NULL       0.12652600       0.03458900       0.07200200
P        2.95698270       7.39193342       2.99859405       0.00000000 NULL      -0.01809400       0.04754700       0.01071200
P        2.95698270       0.69993315      11.10512722       0.00000000 NULL      -0.01809400      -0.04754700      -0.01071200
P        0.42094316       4.74586644      10.05045468       0.00000000 NULL      -0.01809400      -0.04754400       0.01071200
P        0.42094316       3.34600013       4.05326659       0.00000000 NULL      -0.01809400       0.04754400      -0.01071200
P        1.06034740       7.76674619      11.83737330       0.00000000 NULL      -0.14512500       0.01164800      -0.00064400
P        1.06034740       0.32512038       2.26634796       0.00000000 NULL      -0.14512500      -0.01164800       0.00064400
P        3.59638694       4.37105367       4.78551267       0.00000000 NULL      -0.14512600      -0.01164500      -0.00064600
P        3.59638694       3.72081290       9.31820859       0.00000000 NULL      -0.14512600       0.01164500       0.00064600
P        3.35738029       6.60288572       0.93326070       0.00000000 NULL       0.03286200      -0.06741600      -0.03120200
P        3.35738029       1.48898085      13.17046056       0.00000000 NULL       0.03286200       0.06741600       0.03120200
P        0.82134075       5.53491413       7.98512134       0.00000000 NULL       0.03286200       0.06741600      -0.03120300
P        0.82134075       2.55695243       6.11859993       0.00000000 NULL       0.03286200      -0.06741600       0.03120300
P        2.27385847       6.99802746       8.72446268       0.00000000 NULL      -0.01267500       0.12674800      -0.01602800
P        2.27385847       1.09383911       5.37925858       0.00000000 NULL      -0.01267500      -0.12674800       0.01602800
P        4.80989801       5.13977239       1.67260205       0.00000000 NULL      -0.01267500      -0.12674800      -0.01602900
P        4.80989801       2.95209418      12.43111921       0.00000000 NULL      -0.01267500       0.12674800       0.01602900
P        0.47484529       6.97130093       0.71452259       0.00000000 NULL       0.01650600      -0.05300900      -0.06091600
P        0.47484529       1.12056564      13.38919867       0.00000000 NULL       0.01650600       0.05300900       0.06091600
P        3.01088483       5.16649892       7.76638322       0.00000000 NULL       0.01650500       0.05301100      -0.06091800
P        3.01088483       2.92536765       6.33733804       0.00000000 NULL       0.01650500      -0.05301100       0.06091800
24
Lattice="5.09238783795488 0.0 0.0 0.0 8.025735808928172 0.0 0.0 0.0 14.014066077119672" Properties=species:S:1:pos:R:3:initial_magmoms:R:1:castep_labels:S:1:forces:R:3 n_minim_iter=9 energy=-123.726859146089 stress="0.001355862617981833 -0.0 0.0 -0.0 0.0010593320518611053 0.0 0.0 0.0 0.0010741201694720486" free_energy=-123.726859146089 pbc="T T T"
P        1.70030763       2.88172101      10.00212349       0.00000000 NULL       0.05439100       0.00148900      -0.04631600
P        1.70030763       5.14401480       4.01194259       0.00000000 NULL       0.05439100      -0.00148900       0.04631600
P        4.24650155       1.13114689       2.99509045       0.00000000 NULL       0.05439100      -0.00149000      -0.04631600
P        4.24650155       6.89458891      11.01897563       0.00000000 NULL       0.05439100       0.00149000       0.04631600
P        2.98276954       7.31608489       2.97705075       0.00000000 NULL      -0.08118300       0.04519000      -0.09133000
P        2.98276954       0.70965092      11.03701533       0.00000000 NULL      -0.08118300      -0.04519100       0.09133000
P        0.43657562       4.72251882       9.98408379       0.00000000 NULL      -0.08118400      -0.04518900      -0.09133000
P        0.43657562       3.30321699       4.02998229       0.00000000 NULL      -0.08118400       0.04518900       0.09133000
P        1.05840857       7.71899922      11.76988655       0.00000000 NULL      -0.00391700       0.07805300       0.00033200
P        1.05840857       0.30673659       2.24417953       0.00000000 NULL      -0.00391700      -0.07805300      -0.00033200
P        3.60460249       4.31960449       4.76285351       0.00000000 NULL      -0.00391500      -0.07805200       0.00033200
P        3.60460249       3.70613132       9.25121257       0.00000000 NULL      -0.00391500       0.07805200      -0.00033200
P        3.36978033       6.52320821       0.90091299       0.00000000 NULL       0.07065300      -0.08215500       0.05594800
P        3.36978033       1.50252760      13.11315308       0.00000000 NULL       0.07065300       0.08215500      -0.05594800
P        0.82358641       5.51539551       7.90794603       0.00000000 NULL       0.07065200       0.08215500       0.05594800
P        0.82358641       2.51034030       6.10612005       0.00000000 NULL       0.07065200      -0.08215500      -0.05594800
P        2.26856294       6.97436154       8.68118401       0.00000000 NULL      -0.02964800       0.00943800      -0.12557900
P        2.26856294       1.05137427       5.33288207       0.00000000 NULL      -0.02964800      -0.00943800       0.12557900