12
Lattice="6.011910437805465 -0.712886129810744 -0.6876692553846468 -0.48788969386638303 6.03433819013235 -0.6876692553846853 -0.4878896938664205 -0.46999852769987827 6.055181895009511" Properties=species:S:1:pos:R:3:initial_magmoms:R:1:castep_labels:S:1:forces:R:3 n_minim_iter=1 energy=-65.438358626787 stress="0.0004917008957728391 -0.0002651985943622658 -0.0002558176748588252 -0.0002651985943622658 0.000511541540522616 -0.00024643675535538463 -0.0002558176748588252 -0.00024643675535538463 0.000529318382981636" free_energy=-65.438358626787 pbc="T T T"
P        1.56306809       3.24427676       0.66599598       0.00000000 NULL      -0.00004900       0.00679100      -0.01413600
P        0.84176457       1.53208569       3.21719128       0.00000000 NULL      -0.01387200       0.00046800       0.00729600
P        3.30100016       0.71838085       1.41427164       0.00000000 NULL       0.00678500      -0.01413600       0.00020400
P       -0.14377027       4.62607560       0.41545759       0.00000000 NULL       0.00005300      -0.00679000       0.01413400
P        0.57753325      -0.16607005       4.60711344       0.00000000 NULL       0.01387500      -0.00046900      -0.00729600
P        4.61809778       0.40474718      -0.33281808       0.00000000 NULL      -0.00678300       0.01414000      -0.00020500
P        4.81374195       1.74248233       2.70175487       0.00000000 NULL       0.01673900      -0.00178000      -0.00006600
P        2.94214891       4.70654023       1.64308667       0.00000000 NULL       0.00049500       0.01673300      -0.00177700
P        1.92164119       2.87177571       4.64333354       0.00000000 NULL      -0.00115500       0.00053800       0.01678800
P        4.00116965       1.98092746       4.80587953       0.00000000 NULL      -0.00049800      -0.01673700       0.00177800
P        5.02167737       3.81569199       1.80563266       0.00000000 NULL       0.00115300      -0.00053900      -0.01678500
P        2.12957660       4.94498537       3.74721134       0.00000000 NULL      -0.01674300       0.00178000       0.00006600
12
Lattice="6.0092613611656605 -0.7114587155152442 -0.6862923329216254 -0.48656219805434625 6.031637658058185 -0.6862923329216652 -0.4865621980543852 -0.4687197118424644 6.052433546604452" Properties=species:S:1:pos:R:3:initial_magmoms:R:1:castep_labels:S:1:forces:R:3 n_minim_iter=2 energy=-65.438467784695 stress="-0.00012036355177878896 -0.00011158166173484299 -0.00010758989353304937 -0.00011158166173484299 -0.00011195735756560004 -0.00010369204928894499 -0.00010758989353304937 -0.00010369204928894499 -0.00010449040292930372" free_energy=-65.438467784695 pbc="T T T"
P        1.56327700       3.24343996       0.66661859       0.00000000 NULL       0.00339100      -0.00045200      -0.00800700
P        0.84236307       1.53227276       3.21633323       0.00000000 NULL      -0.00788200       0.00368800      -0.00016400
P        3.30017137       0.71901112       1.41449010       0.00000000 NULL      -0.00032500      -0.00787800       0.00369000
P       -0.14265035       4.62421391       0.41621506       0.00000000 NULL      -0.00338900       0.00045300       0.00800300
P        0.57826358      -0.16497626       4.60522630       0.00000000 NULL       0.00788300      -0.00368900       0.00016200
P        4.61627883       0.40554637      -0.33165644       0.00000000 NULL       0.00032300       0.00787800      -0.00369500
P        4.81283644       1.74331404       2.70193875       0.00000000 NULL       0.01212000      -0.00207100      -0.00176200
P        2.94232767       4.70562779       1.64391185       0.00000000 NULL      -0.00138200       0.01218200      -0.00200600
P        1.92243813       2.87192520       4.64239260       0.00000000 NULL      -0.00161700      -0.00132200       0.01224700
P        4.00099814       1.98184765       4.80506302       0.00000000 NULL       0.00138100      -0.01218400       0.00200800
P        5.02088768       3.81555024       1.80658227       0.00000000 NULL       0.00161600       0.00132400      -0.01224200
P        2.13048937       4.94416139       3.74703612       0.00000000 NULL      -0.01211800       0.00207300       0.00176600
12
Lattice="6.009709665412313 -0.7104181814381946 -0.6852886055884018 -0.485505648959085 6.032046793576526 -0.6852886055884418 -0.48550564895912396 -0.4677019069462793 6.052806284615836" Properties=species:S:1:pos:R:3:initial_magmoms:R:1:castep_labels:S:1:forces:R:3 n_minim_iter=3 energy=-65.43848975296 stress="3.887203347724561e-05 3.5867431855816e-05 3.459986554677538e-05 3.5867431855816e-05 3.619606015815986e-05 3.333229923773476e-05 3.459986554677538e-05 3.333229923773476e-05 3.3754821340748305e-05" free_energy=-65.43848975296 pbc="T T T"
P        1.56430021       3.24424012       0.66755323       0.00000000 NULL       0.00651700       0.00317800      -0.00559900
P        0.84336329       1.53325936       3.21709932       0.00000000 NULL      -0.00523600       0.00671600       0.00337700
P        3.30100913       0.71998079       1.41544858       0.00000000 NULL       0.00341900      -0.00536800       0.00659200
P       -0.14164789       4.62475658       0.41718501       0.00000000 NULL      -0.00651700      -0.00317700       0.00560300
P        0.57928902      -0.16401136       4.60573380       0.00000000 NULL       0.00523700      -0.00671700      -0.00337600
P        4.61685850       0.40655093      -0.33071035       0.00000000 NULL      -0.00341500       0.00536700      -0.00658800
P        4.81442657       1.74500577       2.70347783       0.00000000 NULL       0.00825300      -0.00398400      -0.00473700
P        2.94398477       4.70715716       1.64554717       0.00000000 NULL      -0.00456600       0.00842900      -0.00381200
P        1.92418800       2.87351812       4.64386221       0.00000000 NULL      -0.00367400      -0.00443200       0.00855900
P        4.00287156       1.98371945       4.80670874       0.00000000 NULL       0.00456500      -0.00842800       0.00381000
P        5.02266833       3.81735849       1.80839370       0.00000000 NULL       0.00367400       0.00443200      -0.00856200
P        2.13242976       4.94587084       3.74877808       0.00000000 NULL      -0.00825600       0.00398400       0.00473400
12
Lattice="6.010282823948149 -0.710831466264684 -0.6856872713177633 -0.48589724241091864 6.032634985401944 -0.6856872713178047 -0.48589724241095916 -0.46807914046470067 6.053408446437805" Properties=species:S:1:pos:R:3:initial_magmoms:R:1:castep_labels:S:1:forces:R:3 n_minim_iter=4 energy=-65.438554749705 stress="1.8304616861414037e-05 2.2998108364340713e-06 2.205941006375538e-06 2.2998108364340713e-06 1.811687720129697e-05 2.1120711763170043e-06 2.205941006375538e-06 2.1120711763170043e-06 1.7929137541179903e-05" free_energy=-65.438554749705 pbc="T T T"
P        1.56483281       3.24463206       0.66662063       0.00000000 NULL      -0.00014600       0.00636500       0.00172500
P        0.84246617       1.53382577       3.21752443       0.00000000 NULL       0.00194400      -0.00021800       0.00629900
P        3.30142078       0.71906757       1.41599917       0.00000000 NULL       0.00635500       0.00170900      -0.00044400
P       -0.14265135       4.62487629       0.41764482       0.00000000 NULL       0.00014200      -0.00636700      -0.00172400
P        0.57971529      -0.16503154       4.60583673       0.00000000 NULL      -0.00194700       0.00021500      -0.00630200
P        4.61694075       0.40697433      -0.33173372       0.00000000 NULL      -0.00635700      -0.00171000       0.00044400
P        4.81556592       1.74427088       2.70284748       0.00000000 NULL       0.00036500       0.00219500      -0.00089800
P        2.94337161       4.70832013       1.64483529       0.00000000 NULL      -0.00080400       0.00039500       0.00222600
P        1.92349625       2.87293029       4.64504990       0.00000000 NULL       0.00220700      -0.00088800       0.00031300
P        4.00319543       1.98227762       4.80715133       0.00000000 NULL       0.00080700      -0.00039300      -0.00222600
P        5.02307079       3.81766746       1.80693673       0.00000000 NULL      -0.00220500       0.00089100      -0.00031200
P        2.13100112       4.94632687       3.74913915       0.00000000 NULL      -0.00036400      -0.00219400       0.00089900
