64
Lattice="12.972031243568694 1.476202381254769e-06 1.1388206313930582e-06 6.486014594489516 9.784588975687807 -0.9816569285847543 6.486014594489519 1.5339023075855884 9.713340077407636" Properties=species:S:1:pos:R:3:initial_magmoms:R:1:castep_labels:S:1:forces:R:3 n_minim_iter=1 energy=-338.942580989171 stress="0.0035931420874158915 7.984618245488729e-09 7.984618245488729e-09 7.984618245488729e-09 0.00041702862634363083 -0.0007713620302236841 7.984618245488729e-09 -0.0007713620302236841 0.0008218168329169273" free_energy=-338.942580989171 pbc="T T T"
P       10.54099890       5.90880662       0.30877984       0.00000000 NULL      -0.03969600       0.19247700      -0.27156800
P       10.54099825       5.40968558       8.42290402       0.00000000 NULL      -0.03969300      -0.19247700       0.27156700
P       17.02701452       1.79837623       5.63694888       0.00000000 NULL      -0.03969600      -0.21382400       0.25510000
P       17.02701387       9.52011745       3.09473612       0.00000000 NULL      -0.03969300       0.21382300      -0.25510100
P       11.97907291       8.67853703       1.72082650       0.00000000 NULL       0.12819500       0.07452800      -0.17484200
P       11.97907313       2.63995550       7.01085761       0.00000000 NULL       0.12819400      -0.07452800       0.17484200
P       18.46508853       3.86716643       7.95759307       0.00000000 NULL       0.12819500      -0.15020100       0.11646400
P        5.49305751       7.45132610       0.77409105       0.00000000 NULL       0.12819300       0.15020000      -0.11646300
P       13.76994838       9.05905427       6.16141744       0.00000000 NULL      -0.06043600      -0.10850400      -0.04234500
P       13.76994947       2.25943867       2.57026699       0.00000000 NULL      -0.06043600       0.10850400       0.04234500
P       20.25596401       8.25892626       7.19858921       0.00000000 NULL      -0.06043600      -0.06849900      -0.09420400
P        7.28393385       3.05956668       1.53309522       0.00000000 NULL      -0.06043600       0.06849800       0.09420300
P       13.13210036       6.72510164       2.02357552       0.00000000 NULL      -0.09661600       0.30144200      -0.06373800
P       13.13210019       4.59339115       6.70810880       0.00000000 NULL      -0.09661600      -0.30144200       0.06373800
P        6.64608474       3.66420128       5.99128256       0.00000000 NULL      -0.09661700       0.01486000       0.30774800
P        6.64608457       7.65429004       2.74040062       0.00000000 NULL      -0.09661700      -0.01486200      -0.30774700
P       15.49960347      11.03091494       3.73429026       0.00000000 NULL       0.00832000       0.03020700      -0.17937000
P       15.49960458       0.28757839       4.99739447       0.00000000 NULL       0.00832300      -0.03020600       0.17937100
P       21.98561909       6.41175226       9.72190628       0.00000000 NULL       0.00832000      -0.16582900       0.07474400
P        9.01358896       4.90674107      -0.99022155       0.00000000 NULL       0.00832300       0.16582900      -0.07474300
P       15.14726808       3.76476253       6.22788733       0.00000000 NULL      -0.01146500      -0.00971300      -0.19233100
P       15.14726798       7.55373072       2.50379734       0.00000000 NULL      -0.01146400       0.00971300       0.19233100
P        8.66125246       6.97948050       2.06079033       0.00000000 NULL      -0.01146400      -0.18849800       0.03942000
P        8.66125235       4.33901128       6.67089320       0.00000000 NULL      -0.01146400       0.18849800      -0.03942000
P       19.81455341      10.85302485       4.80909453       0.00000000 NULL       0.03710100       0.05957500      -0.04301400
P        6.84252342       0.46546799       3.92258982       0.00000000 NULL       0.03710200      -0.05957600       0.04301400
P       13.32853779       7.40620990       9.27704543       0.00000000 NULL       0.03710100      -0.02648500       0.06854200
P       13.32853905       3.91228294      -0.54536108       0.00000000 NULL       0.03710300       0.02648400      -0.06854300
P       19.03362448       5.72509694       5.46593395       0.00000000 NULL       0.06624500       0.40715100      -0.08681400
P        6.06159345       5.59339572       3.26575026       0.00000000 NULL       0.06624700      -0.40715100       0.08681300
P       12.54760886       6.74002776       4.15032289       0.00000000 NULL       0.06624600       0.01937000       0.41585600
P       12.54760907       4.57846490       4.58136132       0.00000000 NULL       0.06624600      -0.01937000      -0.41585600
P       12.25369845       1.31665443       3.92399891       0.00000000 NULL       0.14301000       0.11785900       0.23431600
P       12.25369738      10.00183816       4.80768525       0.00000000 NULL       0.14301100      -0.11786000      -0.23431700
P        5.76768282       4.12968298       0.27759399       0.00000000 NULL       0.14301000       0.25655800       0.05452800
P       18.73971300       7.18880961       8.45409017       0.00000000 NULL       0.14301200      -0.25655800      -0.05452900
P       13.26144068       1.77059340       8.65068627       0.00000000 NULL       0.07165400      -0.19810400      -0.31150600
P       13.26144055       9.54789942       0.08099806       0.00000000 NULL       0.07165300       0.19810400       0.31150600
P       19.74745631       8.81680739      -0.48300502       0.00000000 NULL       0.07165500      -0.35158200      -0.11255700
P       19.74745617       2.50168690       9.21469049       0.00000000 NULL       0.07165200       0.35158300       0.11255600
P        2.56051578       0.67150991       2.77940693       0.00000000 NULL       0.00884100       0.15563700       0.13211600
P       15.53254561      10.64698195       5.95227667       0.00000000 NULL       0.00884200      -0.15563700      -0.13211600
P        9.04653140       2.85882948      -0.05591630       0.00000000 NULL       0.00884100       0.16729200       0.11700800
P       22.01856123       8.45966386       8.78760104       0.00000000 NULL       0.00884200      -0.16729300      -0.11700800
P        4.05849367       1.78607032      -0.37361996       0.00000000 NULL       0.09231100      -0.03478200       0.06865000
P       17.03052320       9.53242189       9.10530382       0.00000000 NULL       0.09231100       0.03478300      -0.06865100
P       10.54450930       0.09193545       1.82241300       0.00000000 NULL       0.09231200       0.05757500      -0.05106700
P       10.54450758      11.22655675       6.90927086       0.00000000 NULL       0.09231100      -0.05757700       0.05106800
P       14.61292682       7.37195822       4.85023025       0.00000000 NULL      -0.33333300       0.00541700      -0.00568500
P       14.61292729       3.94653491       3.88145433       0.00000000 NULL      -0.33333300      -0.00541700       0.00568500
P       21.09894244       6.56247491       5.89952888       0.00000000 NULL      -0.33333100      -0.00412200       0.00668300
P        8.12691167       4.75601822       2.83215570       0.00000000 NULL      -0.33333300       0.00412400      -0.00668200
P       15.20624932       8.67862418       0.47930601       0.00000000 NULL       0.00081100      -0.03582600      -0.17113500
P       15.20624933       2.63986909       8.25237867       0.00000000 NULL       0.00081100       0.03582600       0.17113500
P        8.72023370       2.66632089       8.27278499       0.00000000 NULL       0.00081200      -0.17462400       0.00878200
P        8.72023371       8.65217090       0.45889855       0.00000000 NULL       0.00081200       0.17462500      -0.00878200
P        3.97437779       2.08893203       1.85267752       0.00000000 NULL       0.03758000       0.06234200       0.11282800
P       16.94640778       9.22956016       6.87900633       0.00000000 NULL       0.03758100      -0.06234200      -0.11282700
P       10.46039341       2.32220049       1.55030354       0.00000000 NULL       0.03758000       0.12495500       0.03166500
P       10.46039216       8.99629170       7.18138030       0.00000000 NULL       0.03758200      -0.12495200      -0.03166500
P        5.78991719       2.32889167       3.14991514       0.00000000 NULL      -0.05252900       0.14449000      -0.01570700
P       18.76194747       8.98960093       5.58176902       0.00000000 NULL      -0.05252800      -0.14448900       0.01570700
P       12.27593282       3.63786317       1.45315530       0.00000000 NULL      -0.05252900       0.02148000       0.14374600
P       12.27593185       7.68062942       7.27852886       0.00000000 NULL      -0.05252900      -0.02148000      -0.14374400
64
Lattice="12.917973639224932 1.4700506875325913e-06 1.1340748892762635e-06 6.458985792105035 9.778972481088672 -0.9719548501869277 6.458985792105039 1.5418611703394312 9.705445025762133" Properties=species:S:1:pos:R:3:initial_magmoms:R:1:castep_labels:S:1:forces:R:3 n_minim_iter=2 energy=-338.955335309779 stress="-0.00025090040717834267 -8.029583869758463e-09 -8.029583869758463e-09 -8.029583869758463e-09 -0.0017576678795062576 -0.00027070939058503675 -8.029583869758463e-09 -0.00027070939058503675 -0.0016155924225147512" free_energy=-338.955335309779 pbc="T T T"
P       10.49703531       5.90640085       0.31352684       0.00000000 NULL      -0.03316400       0.19016900      -0.23536900
P       10.49703466       5.41443372       8.41996404       0.00000000 NULL      -0.03316400      -0.19016700       0.23537000
P       16.95602213       1.80235719       5.63341706       0.00000000 NULL      -0.03316200      -0.17939400       0.24368000
P       16.95602148       9.51847885       3.10007496       0.00000000 NULL      -0.03316200       0.17939200      -0.24368000
P       11.92927167       8.67594596       1.72679681       0.00000000 NULL       0.06292600       0.07267500      -0.16659300
P       11.92927189       2.64488894       7.00669432       0.00000000 NULL       0.06292600      -0.07267500       0.16659400
P       18.38825849       3.87228360       7.95357152       0.00000000 NULL       0.06292800      -0.14269300       0.11257700
P        5.47028507       7.44855129       0.77991962       0.00000000 NULL       0.06292700       0.14269200      -0.11257900
P       13.71250981       9.06008733       6.16361378       0.00000000 NULL      -0.03666200      -0.10859500      -0.02917800
P       13.71251090       2.26074797       2.56987767       0.00000000 NULL      -0.03666100       0.10859400       0.02917700
P       20.17149663       8.26131287       7.19903098       0.00000000 NULL      -0.03666000      -0.05578600      -0.09763400
P        7.25352408       3.05952243       1.53446047       0.00000000 NULL      -0.03666100       0.05578400       0.09763300
P       13.07728642       6.72393807       2.02761017       0.00000000 NULL      -0.13907400       0.25423800      -0.09323600
P       13.07728626       4.59689708       6.70588117       0.00000000 NULL      -0.13907400      -0.25423800       0.09323600
P        6.61829960       3.66780849       5.98913306       0.00000000 NULL      -0.13907600      -0.02565100       0.26957800
P        6.61829944       7.65302519       2.74435714       0.00000000 NULL      -0.13907100       0.02565000      -0.26957800
P       15.43502054      11.02894760       3.74044227       0.00000000 NULL       0.00108400       0.05906700      -0.19193000
P       15.43502165       0.29188809       4.99304948       0.00000000 NULL       0.00108600      -0.05906700       0.19193000
P       21.89400736       6.41720348       9.71844192       0.00000000 NULL       0.00108700      -0.17065500       0.10584200
P        8.97603483       4.90363221      -0.98495017       0.00000000 NULL       0.00108600       0.17065400      -0.10584400
P       15.08413514       3.76850980       6.22513850       0.00000000 NULL       0.06858700      -0.00972100      -0.20829200
P       15.08413503       7.55232581       2.50835319       0.00000000 NULL       0.06858700       0.00972100       0.20829200
P        8.62514832       6.97777277       2.06511258       0.00000000 NULL       0.06858400      -0.20393700       0.04346400
P        8.62514821       4.34306137       6.66837798       0.00000000 NULL       0.06858600       0.20393900      -0.04346300
P       19.73201563      10.85213382       4.81418796       0.00000000 NULL       0.07356200       0.05700700      -0.02238800
P        6.81404325       0.46870138       3.91930341       0.00000000 NULL       0.07356300      -0.05700700       0.02238800
P       13.27302881       7.41091040       9.27489082       0.00000000 NULL       0.07356200      -0.00718600       0.06082100
P       13.27303007       3.90992480      -0.54139945       0.00000000 NULL       0.07356300       0.00718600      -0.06082200
P       18.95436796       5.72759930       5.46576652       0.00000000 NULL      -0.01168000       0.41411300      -0.08392900
P        6.03639453       5.59323572       3.26772471       0.00000000 NULL      -0.01168300      -0.41411500       0.08393000
P       12.49538114       6.74050093       4.15278581       0.00000000 NULL      -0.01168300       0.02392600       0.42185900
P       12.49538135       4.58033409       4.58070542       0.00000000 NULL      -0.01168300      -0.02392600      -0.42185900
P       12.20276646       1.31964173       3.92165117       0.00000000 NULL       0.10219300       0.13220100       0.22663900
P       12.20276540      10.00119323       4.81184001       0.00000000 NULL       0.10219200      -0.13220000      -0.22663900
P        5.74377964       4.12817032       0.28107934       0.00000000 NULL       0.10219200       0.25277200       0.07034800
P       18.66175222       7.19266463       8.45241184       0.00000000 NULL       0.10219300      -0.25277100      -0.07034900
P       13.20624325       1.77730171       8.64372836       0.00000000 NULL       0.04144300      -0.24124200      -0.29561600
P       13.20624312       9.54353348       0.08976300       0.00000000 NULL       0.04144300       0.24124200       0.29561600
P       19.66523007       8.81177994      -0.47475040       0.00000000 NULL       0.04144200      -0.34716500      -0.15831300
P       19.66522994       2.50905671       9.20824289       0.00000000 NULL       0.04144600       0.34716500       0.15831200
P        2.54985365       0.67381914       2.77747879       0.00000000 NULL       0.00816100       0.12961700       0.13357100
P       15.46782588      10.64701509       5.95601183       0.00000000 NULL       0.00816300      -0.12961600      -0.13357100
P        9.00884047       2.85755057      -0.05319331       0.00000000 NULL       0.00816200       0.16209400       0.09146900
P       21.92681270       8.46328512       8.78668507       0.00000000 NULL       0.00816400      -0.16209500      -0.09147100
P        4.04166625       1.78483871      -0.37159980       0.00000000 NULL       0.11781500      -0.04451800       0.09128000
P       16.95963817       9.53599586       9.10509068       0.00000000 NULL       0.11781500       0.04451900      -0.09128000
P       10.50065307       0.09357687       1.82070898       0.00000000 NULL       0.11781600       0.07699000      -0.06622900
P       10.50065136      11.22725770       6.91278190       0.00000000 NULL       0.11781500      -0.07699200       0.06622900
P       14.55172317       7.37273916       4.85220055       0.00000000 NULL      -0.26391200       0.00560400       0.01497100
P       14.55172364       3.94809633       3.88129105       0.00000000 NULL      -0.26391200      -0.00560400      -0.01497200
P       21.01070998       6.56457890       5.89978416       0.00000000 NULL      -0.26391400       0.01590500       0.00162200
P        8.09273682       4.75625659       2.83370743       0.00000000 NULL      -0.26391200      -0.01590200      -0.00162000
P       15.14288193       8.67481852       0.48646449       0.00000000 NULL       0.03783800      -0.06611200      -0.18466000
P       15.14288194       2.64601711       8.24702721       0.00000000 NULL       0.03783800       0.06611200       0.18466000
P        8.68389512       2.67227905       8.26728706       0.00000000 NULL       0.03783500      -0.19539100      -0.01707700
P        8.68389512       8.64855511       0.46620350       0.00000000 NULL       0.03783800       0.19539200       0.01707900
P        3.95785032       2.08963829       1.85288553       0.00000000 NULL       0.02554200       0.07955200       0.09885800
P       16.87582270       9.23119626       6.88060534       0.00000000 NULL       0.02554300      -0.07955200      -0.09885800
P       10.41683714       2.32258095       1.55093388       0.00000000 NULL       0.02554300       0.11581400       0.05185600
P       10.41683589       8.99825360       7.18255699       0.00000000 NULL       0.02554200      -0.11581100      -0.05185500
P        5.76574066       2.33071994       3.14898111       0.00000000 NULL      -0.05466300       0.15612900       0.01494000
P       18.68371333       8.99011502       5.58451008       0.00000000 NULL      -0.05466200      -0.15612900      -0.01494000
P       12.22472748       3.63742376       1.45516078       0.00000000 NULL      -0.05466200       0.05407700       0.14722300
P       12.22472651       7.68341120       7.27833041       0.00000000 NULL      -0.05466200      -0.05407800      -0.14722100
64
Lattice="12.862605338764743 1.4637498383320481e-06 1.1292140808471883e-06 6.431301635663472 9.822049254604828 -0.957040020719131 6.431301635663475 1.5672208672109744 9.743325711199429" Properties=species:S:1:pos:R:3:initial_magmoms:R:1:castep_labels:S:1:forces:R:3 n_minim_iter=3 energy=-338.97060466936 stress="-0.0009562512155304875 7.998487842568944e-09 1.599697568513789e-08 7.998487842568944e-09 0.0008075273325857606 -0.00014638032600685426 1.599697568513789e-08 -0.00014638032600685426 0.0008843608068014779" free_energy=-338.97060466936 pbc="T T T"
P       10.45192223       5.93477842       0.32492232       0.00000000 NULL      -0.03299200       0.21032500      -0.27636300
P       10.45192157       5.45449262       8.46136407       0.00000000 NULL      -0.03298900      -0.21032500       0.27636200
P       16.88322490       1.82058199       5.65797311       0.00000000 NULL      -0.03299100      -0.21392800       0.27358100
P       16.88322424       9.56869051       3.12831442       0.00000000 NULL      -0.03298800       0.21392700      -0.27358200
P       11.87842981       8.71929393       1.74877119       0.00000000 NULL       0.04971600       0.07890600      -0.15142900
P       11.87843003       2.66997743       7.03751546       0.00000000 NULL       0.04971600      -0.07890600       0.15143000
P       18.30973248       3.90454051       7.98992274       0.00000000 NULL       0.04971500      -0.12644300       0.11475800
P        5.44712737       7.48473085       0.79636390       0.00000000 NULL       0.04971400       0.12644200      -0.11475600
P       13.65358358       9.11292250       6.20277232       0.00000000 NULL      -0.01605300      -0.13325700      -0.05401100
P       13.65358468       2.27634926       2.58351463       0.00000000 NULL      -0.01605300       0.13325700       0.05401100
P       20.08488625       8.31259918       7.24019726       0.00000000 NULL      -0.01605300      -0.08606600      -0.11518500
P        7.22228201       3.07667259       1.54608970       0.00000000 NULL      -0.01605300       0.08606500       0.11518400
P       13.02080417       6.75957417       2.04729246       0.00000000 NULL      -0.18284100       0.26941700      -0.03027700
P       13.02080401       4.62969744       6.73899439       0.00000000 NULL      -0.18284100      -0.26941700       0.03027700
P        6.58950151       3.69589103       6.01860671       0.00000000 NULL      -0.18284100       0.03909800       0.26827900
P        6.58950134       7.69337912       2.76767901       0.00000000 NULL      -0.18284200      -0.03909900      -0.26827800
P       15.36887555      11.08681135       3.77403989       0.00000000 NULL      -0.00062600       0.02511600      -0.19131800
P       15.36887667       0.30246080       5.01224737       0.00000000 NULL      -0.00062300      -0.02511500       0.19131900
P       21.80017822       6.46438725       9.76588352       0.00000000 NULL      -0.00062500      -0.17868100       0.07284900
P        8.93757400       4.92488490      -0.97959626       0.00000000 NULL      -0.00062100       0.17868100      -0.07284800
P       15.01962940       3.79750369       6.25396240       0.00000000 NULL       0.11027500      -0.03094900      -0.20121200
P       15.01962930       7.59176838       2.53232480       0.00000000 NULL       0.11027500       0.03094900       0.20121200
P        8.58832673       7.01301173       2.08584129       0.00000000 NULL       0.11027600      -0.20247900       0.02113400
P        8.58832663       4.37625888       6.70044478       0.00000000 NULL       0.11027600       0.20247900      -0.02113300
P       19.64765385      10.91123787       4.85187577       0.00000000 NULL       0.06992400       0.05873200      -0.03561800
P        6.78504978       0.47803379       3.93441111       0.00000000 NULL       0.06992600      -0.05873300       0.03561700
P       13.21635118       7.46236523       9.32249399       0.00000000 NULL       0.06992400      -0.01954500       0.06584700
P       13.21635245       3.92690643      -0.53620711       0.00000000 NULL       0.06992600       0.01954400      -0.06584700
P       18.87317304       5.76563260       5.49596067       0.00000000 NULL      -0.04094600       0.35823100      -0.12706700
P        6.01056791       5.62363888       3.29032607       0.00000000 NULL      -0.04094300      -0.35823100       0.12706600
P       12.44187037       6.77935954       4.18191015       0.00000000 NULL      -0.04094400      -0.03198200       0.37875500
P       12.44187058       4.60991194       4.60437659       0.00000000 NULL      -0.04094400       0.03198200      -0.37875400
P       12.15086027       1.33353585       3.93906934       0.00000000 NULL       0.08125000       0.12662100       0.25610300
P       12.15085920      10.05573557       4.84721736       0.00000000 NULL       0.08125100      -0.12662200      -0.25610400
P        5.71955760       4.14854457       0.29009762       0.00000000 NULL       0.08124900       0.27985400       0.05747200
P       18.58216187       7.24072685       8.49618908       0.00000000 NULL       0.08125100      -0.27985500      -0.05747300
P       13.14981537       1.80094581       8.67717566       0.00000000 NULL       0.00949300      -0.28754400      -0.27092400
P       13.14981524       9.58832584       0.10911121       0.00000000 NULL       0.00949300       0.28754400       0.27092400
P       19.58111804       8.85013307      -0.46036976       0.00000000 NULL       0.00949500      -0.33503400      -0.20936600
P       19.58111791       2.53914004       9.24665776       0.00000000 NULL       0.00949000       0.33503500       0.20936600
P        2.53895343       0.68262777       2.78922280       0.00000000 NULL       0.00698300       0.10642200       0.13947500
P       15.40155735      10.70664293       5.99706333       0.00000000 NULL       0.00698400      -0.10642100      -0.13947500
P        8.97025610       2.87114572      -0.04765387       0.00000000 NULL       0.00698200       0.16191700       0.06753500
P       21.83286001       8.51812644       8.83394113       0.00000000 NULL       0.00698200      -0.16191800      -0.06753400
P        4.02471989       1.79219178      -0.36928526       0.00000000 NULL       0.11472900       0.00613700       0.11365000
P       16.88732350       9.59707926       9.15557165       0.00000000 NULL       0.11472900      -0.00613700      -0.11365000
P       10.45602256       0.09768189       1.82723382       0.00000000 NULL       0.11472900       0.11148400      -0.02291000
P       10.45602083      11.29158914       6.95905258       0.00000000 NULL       0.11472800      -0.11148600       0.02291000
P       14.48836797       7.41575454       4.88360184       0.00000000 NULL      -0.23317800       0.03731800       0.00332500
P       14.48836845       3.97351741       3.90268527       0.00000000 NULL      -0.23317800      -0.03731800      -0.00332600
P       20.91967064       6.60586961       5.93342106       0.00000000 NULL      -0.23317500       0.01269000       0.03525300
P        8.05706578       4.78340235       2.85286605       0.00000000 NULL      -0.23317800      -0.01268800      -0.03525200
P       15.07806639       8.71537262       0.50392671       0.00000000 NULL       0.09639800      -0.12662500      -0.17854100
P       15.07806639       2.67389946       8.28236050       0.00000000 NULL       0.09639800       0.12662500       0.17854100
P        8.64676372       2.69946245       8.30208114       0.00000000 NULL       0.09640000      -0.20483200      -0.07716300
P        8.64676372       8.68980817       0.48420494       0.00000000 NULL       0.09639800       0.20483200       0.07716200
P        3.94098757       2.10298366       1.86385962       0.00000000 NULL       0.01703600       0.06122000       0.05917000
P       16.80359165       9.28628735       6.92242677       0.00000000 NULL       0.01703600      -0.06122000      -0.05916900
P       10.37229024       2.33658285       1.56105693       0.00000000 NULL       0.01703500       0.07277300       0.04419700
P       10.37228898       9.05268817       7.22522945       0.00000000 NULL       0.01703800      -0.07277000      -0.04419800
P        5.74084228       2.34788589       3.16473864       0.00000000 NULL      -0.04917700       0.12493600       0.02555000
P       18.60344664       9.04138553       5.62154805       0.00000000 NULL      -0.04917600      -0.12493500      -0.02555000
P       12.17214495       3.65702217       1.46776521       0.00000000 NULL      -0.04917600       0.05642300       0.11435700
P       12.17214397       7.73224926       7.31852149       0.00000000 NULL      -0.04917600      -0.05642300      -0.11435600
64
Lattice="12.899679932380383 1.4679688847230446e-06 1.132468876469925e-06 6.449838921735994 9.839395501205704 -0.8572420093217852 6.4498389217359975 1.6681535642742185 9.73477433624901" Properties=species:S:1:pos:R:3:initial_magmoms:R:1:castep_labels:S:1:forces:R:3 n_minim_iter=4 energy=-339.029398325078 stress="0.0010098774534983183 -7.974269622228948e-09 -0.0 -7.974269622228948e-09 0.0008180484234659787 0.00338104247420734 -0.0 0.00338104247420734 -0.0009563780786027842" free_energy=-339.029398325078 pbc="T T T"
P       10.48107967       5.95996093       0.37550104       0.00000000 NULL      -0.04131800       0.10503700      -0.25567200
P       10.48107900       5.54758905       8.50203199       0.00000000 NULL      -0.04131900      -0.10503600       0.25567300
P       16.93091963       1.87589602       5.66949368       0.00000000 NULL      -0.04131800      -0.22064500       0.16648900
P       16.93091896       9.63165543       3.20804048       0.00000000 NULL      -0.04131800       0.22064400      -0.16648900
P       11.91452563       8.76261845       1.82636387       0.00000000 NULL      -0.00936600       0.09608400      -0.09786700
P       11.91452585       2.74493185       7.05116942       0.00000000 NULL      -0.00936600      -0.09608400       0.09786700
P       18.36436559       3.99058851       8.01213488       0.00000000 NULL      -0.00936500      -0.07027700       0.11777600
P        5.46468589       7.51696180       0.86539840       0.00000000 NULL      -0.00936600       0.07027600      -0.11777700
P       13.69210983       9.19579374       6.27649711       0.00000000 NULL      -0.00078100      -0.15559000      -0.05015100
P       13.69211093       2.31175697       2.60103649       0.00000000 NULL      -0.00078100       0.15559000       0.05015100
P       20.14194979       8.40494324       7.30164283       0.00000000 NULL      -0.00078100      -0.08799900      -0.13776800
P        7.24227097       3.10260747       1.57589076       0.00000000 NULL      -0.00078100       0.08799700       0.13776800
P       13.05388117       6.80615421       2.10779766       0.00000000 NULL      -0.10413500       0.27480600       0.06777200
P       13.05388100       4.70139636       6.76973582       0.00000000 NULL      -0.10413500      -0.27480600      -0.06777200
P        6.60404121       3.76623738       6.04830470       0.00000000 NULL      -0.10413600       0.13530400       0.24860600
P        6.60404104       7.74131172       2.82922765       0.00000000 NULL      -0.10413400      -0.13530500      -0.24860600
P       15.41320856      11.15553384       3.86922093       0.00000000 NULL       0.01991000      -0.02839900      -0.27026100
P       15.41320969       0.35201727       5.00831297       0.00000000 NULL       0.01991100       0.02839900       0.27026100
P       21.86304852       6.57389390       9.80819787       0.00000000 NULL       0.01991100      -0.26862200       0.04112900
P        8.96336972       4.93365720      -0.93066397       0.00000000 NULL       0.01991100       0.26862100      -0.04113000
P       15.06518206       3.86921969       6.27032035       0.00000000 NULL       0.02694200       0.01486800      -0.16425300
P       15.06518195       7.63833133       2.60721349       0.00000000 NULL       0.02694200      -0.01486800       0.16425300
P        8.61534210       7.04703617       2.15105711       0.00000000 NULL       0.02694000      -0.15510000       0.05607100
P        8.61534199       4.46051339       6.72647559       0.00000000 NULL       0.02694200       0.15510100      -0.05607000
P       19.70617699      10.99086390       4.94720072       0.00000000 NULL       0.11035200       0.00931200       0.09715100
P        6.80649834       0.51668671       3.93033280       0.00000000 NULL       0.11035200      -0.00931300      -0.09715100