8
Lattice="2.3786699999999996 -6.282587242198739e-16 -6.759226689501401e-16 -0.6330365559750678 8.533973387303197 -3.0451645634728697e-16 -0.633036555975068 -0.8931674090405127 8.487105145727083" Properties=species:S:1:pos:R:3:initial_magmoms:R:1:castep_labels:S:1 n_minim_iter=1 pbc="T T T"
P        1.61451735       1.93679534       0.47565472       0.00000000 NULL
P       -0.50192046       7.37046893       6.51116448       0.00000000 NULL
P       -0.10065880       2.84387854       6.88497648       0.00000000 NULL
P        1.21325569       1.09128242       4.93826201       0.00000000 NULL
P        1.81393142       3.88368137       2.34968307       0.00000000 NULL
P       -0.70133453       5.71049416       4.37883448       0.00000000 NULL
P        1.49264690       5.99605497       0.35667569       0.00000000 NULL
P       -0.38005001       7.91363748       2.48665051       0.00000000 NULL
8
Lattice="2.3784716466078013 -0.0005470542528354082 -0.0006076462322744131 -0.6349464390134208 8.519575366323375 -0.003440324895022518 -0.6349464390134211 -0.8950819399728409 8.472426132993663" Properties=species:S:1:pos:R:3:initial_magmoms:R:1:castep_labels:S:1 n_minim_iter=2 pbc="T T T"
P        1.61382503       1.93311971       0.47359821       0.00000000 NULL
P       -0.50524626       7.35526984       6.49630817       0.00000000 NULL
P       -0.10305714       2.83601807       6.87143617       0.00000000 NULL
P        1.21163591       1.08706608       4.92876946       0.00000000 NULL
P        1.81222981       3.87569310       2.34327771       0.00000000 NULL
P       -0.70365104       5.69916868       4.36872228       0.00000000 NULL
P        1.49109570       5.98530980       0.35328855       0.00000000 NULL
P       -0.38251693       7.89902182       2.47896418       0.00000000 NULL
8
Lattice="2.363168429216073 -0.050200196440979644 -0.05576039317616908 -0.8090147620664763 7.1968451690164645 -0.28911596475946494 -0.8090147620664776 -1.0407514462503815 7.127061445995972" Properties=species:S:1:pos:R:3:initial_magmoms:R:1:castep_labels:S:1 n_minim_iter=3 pbc="T T T"
P        1.55238888       1.59595293       0.29143109       0.00000000 NULL
P       -0.80724997       5.98309572       5.16449583       0.00000000 NULL
P       -0.32049422       2.13968966       5.64370092       0.00000000 NULL
P        1.06563313       0.71712794       4.06357562       0.00000000 NULL
P        1.65943959       3.15089856       1.77173038       0.00000000 NULL
P       -0.91430068       4.67366710       3.46316146       0.00000000 NULL
P        1.35212599       4.99951014       0.06298561       0.00000000 NULL
P       -0.60698708       6.56650359       1.80353997       0.00000000 NULL
8
Lattice="2.52730573042996 -0.07847460154622483 -0.08716648433249242 -0.9541370079339033 7.515546941291151 0.07695948075502954 -0.9541370079339048 -0.7100418654881363 7.4823264522261415" Properties=species:S:1:pos:R:3:initial_magmoms:R:1:castep_labels:S:1 n_minim_iter=4 pbc="T T T"
P        1.63308340       1.66356527       0.37156967       0.00000000 NULL
P       -1.01405168       6.53161053       5.77880185       0.00000000 NULL
P       -0.45124663       2.53518827       6.07526429       0.00000000 NULL
P        1.07027835       0.95046461       4.31501591       0.00000000 NULL
P        1.70498647       3.37005566       2.01495995       0.00000000 NULL
P       -1.08595475       5.07584731       3.90968587       0.00000000 NULL
P        1.38153859       5.21508767       0.31326463       0.00000000 NULL
P       -0.76250687       6.96129843       2.25288649       0.00000000 NULL
8
Lattice="2.4792457993033783 -0.09390683731291229 -0.1043080015962651 -0.9967131517700535 7.306365736959291 0.1438748618287533 -0.9967131517700553 -0.6216010331725509 7.281297440266932" Properties=species:S:1:pos:R:3:initial_magmoms:R:1:castep_labels:S:1 n_minim_iter=5 pbc="T T T"
P        1.58274376       1.60955995       0.36256904       0.00000000 NULL
P       -1.09692426       6.39873691       5.68219743       0.00000000 NULL
P       -0.51746656       2.51429330       5.93619339       0.00000000 NULL
P        1.00328606       0.95041226       4.19909617       0.00000000 NULL
P        1.62446844       3.27886333       1.97203574       0.00000000 NULL
P       -1.13864894       4.97281898       3.85361469       0.00000000 NULL
P        1.31136549       5.05762919       0.34115480       0.00000000 NULL
P       -0.82554599       6.78090918       2.25530607       0.00000000 NULL
8
Lattice="2.4911767069910526 -0.11027304969850468 -0.12248694315674774 -1.0586055208930716 7.280378511760695 0.22453073407782373 -1.0586055208930736 -0.5386682914264898 7.263894396042944" Properties=species:S:1:pos:R:3:initial_magmoms:R:1:castep_labels:S:1 n_minim_iter=6 pbc="T T T"
P        1.57165910       1.59617855       0.36654773       0.00000000 NULL
P       -1.19769343       6.43395888       5.74016282       0.00000000 NULL
P       -0.59043202       2.56651393       5.95100464       0.00000000 NULL
P        0.96439769       0.98172708       4.19068608       0.00000000 NULL
P        1.58689181       3.27332781       1.98619186       0.00000000 NULL
P       -1.21292614       4.99874056       3.90271210       0.00000000 NULL
P        1.27629998       5.02883149       0.38504672       0.00000000 NULL
P       -0.90233431       6.77482365       2.32442577       0.00000000 NULL
8
Lattice="2.550120646912966 -0.1576625347608893 -0.17512530927552336 -1.2443119337557922 7.233571198869167 0.4296547942054339 -1.2443119337557942 -0.3297719014689979 7.238812473347736" Properties=species:S:1:pos:R:3:initial_magmoms:R:1:castep_labels:S:1 n_minim_iter=7 pbc="T T T"
P        1.55409649       1.56318668       0.37315197       0.00000000 NULL
P       -1.49259971       6.53863756       5.89968607       0.00000000 NULL
P       -0.80327652       2.70478310       6.00297321       0.00000000 NULL
P        0.86477330       1.05921479       4.17514100       0.00000000 NULL
P        1.49629582       3.26172609       2.02017125       0.00000000 NULL
P       -1.43479904       5.07843313       4.03809760       0.00000000 NULL
P        1.18987516       4.96448066       0.49370428       0.00000000 NULL
P       -1.12837837       6.77472745       2.50445483       0.00000000 NULL
8
Lattice="2.5191323289279133 -0.17292822710359715 -0.19208183668944695 -1.2908338447811558 7.195748583698341 0.43532280903663273 -1.290833844781158 -0.3201764924702987 7.201790794068768" Properties=species:S:1:pos:R:3:initial_magmoms:R:1:castep_labels:S:1 n_minim_iter=8 pbc="T T T"
P        1.50753456       1.54762085       0.35893888       0.00000000 NULL
P       -1.57006992       6.50765057       5.86834376       0.00000000 NULL
P       -0.87159205       2.69388033       5.97289095       0.00000000 NULL
P        0.80905669       1.04449786       4.14082212       0.00000000 NULL
P        1.42713391       3.22906508       1.99064757       0.00000000 NULL
P       -1.48966927       5.06088346       4.02535899       0.00000000 NULL
P        1.13091272       4.92488414       0.48913448       0.00000000 NULL
P       -1.19344808       6.73163507       2.49600197       0.00000000 NULL
8
Lattice="2.542367590302274 -0.17632173758995162 -0.19585121395053087 -1.3091923804408718 7.2515743956655765 0.4429823233561812 -1.309192380440874 -0.31840178485457243 7.258111659245815" Properties=species:S:1:pos:R:3:initial_magmoms:R:1:castep_labels:S:1 n_minim_iter=9 pbc="T T T"
P        1.51634312       1.55921843       0.36091100       0.00000000 NULL
P       -1.59236028       6.56111009       5.91681448       0.00000000 NULL
P       -0.88822330       2.71849720       6.02117830       0.00000000 NULL
P        0.81220614       1.05325912       4.17149768       0.00000000 NULL
P        1.43439359       3.25237320       2.00480917       0.00000000 NULL
P       -1.51041076       5.10344608       4.06090772       0.00000000 NULL
P        1.13693805       4.96147525       0.49582590       0.00000000 NULL
P       -1.21295522       6.78301704       2.51912249       0.00000000 NULL
