40
Lattice="10.641738448854912 4.463954708367894e-17 -1.5436062201465002e-16 7.056702437241012e-17 12.920912903442765 4.77067890856605e-16 -5.320869224427456 -6.460456451721384 6.203605114341803" Properties=species:S:1:pos:R:3:initial_magmoms:R:1:castep_labels:S:1:forces:R:3 n_minim_iter=1 energy=-210.371857325218 stress="-0.00857583274574186 -0.0 -1.1723305918829096e-08 -0.0 -0.005339719656602356 1.1723305918829096e-08 -1.1723305918829096e-08 1.1723305918829096e-08 -0.0003429653146553451" free_energy=-210.371857325218 pbc="T T T"
P       -1.37492861       1.80963484       5.46584239       0.00000000 NULL      -0.09250300       0.10741100       0.01801300
P        1.37492861      -1.80963484       5.46584239       0.00000000 NULL       0.09250300      -0.10741200       0.01801200
P        1.37492861       1.80963484       5.46584239       0.00000000 NULL       0.09250300       0.10741200       0.01801200
P       -1.37492861      -1.80963484       5.46584239       0.00000000 NULL      -0.09250200      -0.10741100       0.01801300
P        1.83528159       4.77454002      -0.08468282       0.00000000 NULL      -0.04886200       0.20422500       0.22939900
P        8.80645686       8.14637289      -0.08468282       0.00000000 NULL       0.04886500      -0.20421900       0.22939900
P        8.80645686       4.77454002      -0.08468282       0.00000000 NULL       0.04886400       0.20422400       0.22939800
P        1.83528159       8.14637289      -0.08468282       0.00000000 NULL      -0.04886400      -0.20421900       0.22940000
P        1.23145243      10.24512207       0.21252409       0.00000000 NULL      -0.10670000       0.20936200       0.37183000
P        9.41028603       2.67579083       0.21252409       0.00000000 NULL       0.10669700      -0.20937100       0.37182600
P        9.41028603      10.24512207       0.21252409       0.00000000 NULL       0.10669700       0.20936300       0.37182800
P        1.23145243       2.67579083       0.21252409       0.00000000 NULL      -0.10670000      -0.20937000       0.37182800
P        6.37590667      -1.39847309       4.07906984       0.00000000 NULL       0.54204700       0.05086600       0.03722600
P        4.26583178       1.39847309       4.07906984       0.00000000 NULL      -0.54204900      -0.05086500       0.03722800
P        4.26583178      -1.39847309       4.07906984       0.00000000 NULL      -0.54204900       0.05086500       0.03722700
P        6.37590667       1.39847309       4.07906984       0.00000000 NULL       0.54204700      -0.05086600       0.03722700
P       -1.11459976       1.52546819       2.24246744       0.00000000 NULL       0.09744500       0.11067600      -0.17517900
P        1.11459976      11.39544471       2.24246744       0.00000000 NULL      -0.09744500      -0.11067500      -0.17517800
P        1.11459976       1.52546819       2.24246744       0.00000000 NULL      -0.09744500       0.11067500      -0.17517800
P       -1.11459976      11.39544471       2.24246744       0.00000000 NULL       0.09744500      -0.11067600      -0.17517900
P       -2.67130609       5.01293696       5.28446479       0.00000000 NULL       0.13023300      -0.00736500      -0.15665300
P        2.67130609      -5.01293696       5.28446479       0.00000000 NULL      -0.13022900       0.00736900      -0.15665100
P        2.67130609       5.01293696       5.28446479       0.00000000 NULL      -0.13023100      -0.00736600      -0.15665300
P       -2.67130609      -5.01293696       5.28446479       0.00000000 NULL       0.13023100       0.00736800      -0.15665200
P        4.21534763       5.21507886       3.54299143       0.00000000 NULL      -0.09133200      -0.09764400      -0.17052300
P        6.42639082       7.70583404       3.54299143       0.00000000 NULL       0.09133200       0.09764400      -0.17052300
P        6.42639082       5.21507886       3.54299143       0.00000000 NULL       0.09133200      -0.09764400      -0.17052400
P        4.21534763       7.70583404       3.54299143       0.00000000 NULL      -0.09133200       0.09764400      -0.17052300
P       -1.59674072      -3.18157181       3.74567911       0.00000000 NULL       0.29622100      -0.31461700      -0.08392800
P        1.59674072       3.18157181       3.74567911       0.00000000 NULL      -0.29621800       0.31461600      -0.08392900
P        1.59674072      -3.18157181       3.74567911       0.00000000 NULL      -0.29621800      -0.31461600      -0.08392900
P       -1.59674072       3.18157181       3.74567911       0.00000000 NULL       0.29622100       0.31461600      -0.08392800
P        3.65235067       9.78146775       2.84762118       0.00000000 NULL      -0.01328100      -0.06116000      -0.06781800
P        6.98938778       3.13944515       2.84762118       0.00000000 NULL       0.01327800       0.06116000      -0.06781900
P        6.98938778       9.78146775       2.84762118       0.00000000 NULL       0.01327800      -0.06116000      -0.06781900
P        3.65235067       3.13944515       2.84762118       0.00000000 NULL      -0.01328100       0.06116000      -0.06781800
P        4.18698535       1.09755467       0.84468784       0.00000000 NULL      -0.13767900       0.01282500      -0.00236600
P        6.45475311      11.82335823       0.84468784       0.00000000 NULL       0.13767800      -0.01282600      -0.00236500
P        6.45475311       1.09755467       0.84468784       0.00000000 NULL       0.13767900       0.01282500      -0.00236600
P        4.18698535      11.82335823       0.84468784       0.00000000 NULL      -0.13767800      -0.01282600      -0.00236600
40
Lattice="10.725901308323856 1.7337431013403006e-16 -1.1077367028952359e-16 2.249940262987156e-16 12.984445567241343 6.44336200678567e-16 -5.362950654161928 -6.492222783620672 6.20555982565608" Properties=species:S:1:pos:R:3:initial_magmoms:R:1:castep_labels:S:1:forces:R:3 n_minim_iter=2 energy=-210.413540264146 stress="-2.735327202337294e-05 -0.0 -2.3141516094224148e-08 -0.0 0.0006623217613747421 0.0 -2.3141516094224148e-08 0.0 0.0036333915881638975" free_energy=-210.413540264146 pbc="T T T"
P       -1.38590298       1.81864913       5.46758404       0.00000000 NULL      -0.23173000       0.14856100       0.00944800
P        1.38590298      -1.81864913       5.46758404       0.00000000 NULL       0.23173000      -0.14856100       0.00944800
P        1.38590298       1.81864913       5.46758404       0.00000000 NULL       0.23173000       0.14856100       0.00944800
P       -1.38590298      -1.81864913       5.46758404       0.00000000 NULL      -0.23173000      -0.14856100       0.00944900
P        1.84974334       4.79823763      -0.08446239       0.00000000 NULL       0.04338900       0.09702000       0.14511100
P        8.87615797       8.18620793      -0.08446239       0.00000000 NULL      -0.04339000      -0.09702300       0.14511000
P        8.87615797       4.79823763      -0.08446239       0.00000000 NULL      -0.04339000       0.09702100       0.14511000
P        1.84974334       8.18620793      -0.08446239       0.00000000 NULL       0.04339000      -0.09702200       0.14511100
P        1.24107586      10.29572433       0.21299160       0.00000000 NULL      -0.03975400       0.20660200       0.32939400
P        9.48482545       2.68872123       0.21299160       0.00000000 NULL       0.03975600      -0.20659700       0.32939600
P        9.48482545      10.29572433       0.21299160       0.00000000 NULL       0.03975600       0.20660100       0.32939600
P        1.24107586       2.68872123       0.21299160       0.00000000 NULL      -0.03975400      -0.20659800       0.32939400
P        6.42692047      -1.40529439       4.08039522       0.00000000 NULL       0.38774500      -0.02209200       0.03373600
P        4.29898084       1.40529439       4.08039522       0.00000000 NULL      -0.38774600       0.02209000       0.03373700
P        4.29898084      -1.40529439       4.08039522       0.00000000 NULL      -0.38774600      -0.02209200       0.03373600
P        6.42692047       1.40529439       4.08039522       0.00000000 NULL       0.38774500       0.02209000       0.03373600
P       -1.12330908       1.53308876       2.24298532       0.00000000 NULL       0.19906300       0.18731500      -0.16805500
P        1.12330909      11.45135681       2.24298532       0.00000000 NULL      -0.19906200      -0.18731600      -0.16805500
P        1.12330909       1.53308876       2.24298532       0.00000000 NULL      -0.19906200       0.18731500      -0.16805500
P       -1.12330908      11.45135681       2.24298532       0.00000000 NULL       0.19906300      -0.18731500      -0.16805500
P       -2.69229143       5.03757780       5.28596114       0.00000000 NULL       0.06895500      -0.08934300      -0.11749600
P        2.69229143      -5.03757780       5.28596114       0.00000000 NULL      -0.06895800       0.08934000      -0.11749900
P        2.69229143       5.03757780       5.28596114       0.00000000 NULL      -0.06895700      -0.08934100      -0.11749800
P       -2.69229143      -5.03757780       5.28596114       0.00000000 NULL       0.06895600       0.08934100      -0.11749700
P        4.24858663       5.24061595       3.54392411       0.00000000 NULL      -0.03137800      -0.14175900      -0.14780200
P        6.47731468       7.74382962       3.54392411       0.00000000 NULL       0.03137800       0.14175900      -0.14780300
P        6.47731468       5.24061595       3.54392411       0.00000000 NULL       0.03137700      -0.14175900      -0.14780300
P        4.24858663       7.74382962       3.54392411       0.00000000 NULL      -0.03137900       0.14175900      -0.14780200
P       -1.60904743      -3.19755620       3.74676894       0.00000000 NULL       0.16865100      -0.23333500      -0.09045000
P        1.60904743       3.19755620       3.74676894       0.00000000 NULL      -0.16864900       0.23333500      -0.09045000
P        1.60904743      -3.19755620       3.74676894       0.00000000 NULL      -0.16864900      -0.23333500      -0.09045000
P       -1.60904743       3.19755620       3.74676894       0.00000000 NULL       0.16865100       0.23333500      -0.09045000
P        3.68122179       9.82949745       2.84844539       0.00000000 NULL      -0.06749700      -0.04870800       0.02689600
P        7.04467952       3.15494812       2.84844539       0.00000000 NULL       0.06749600       0.04871000       0.02689400
P        7.04467952       9.82949745       2.84844539       0.00000000 NULL       0.06749600      -0.04870800       0.02689500
P        3.68122179       3.15494812       2.84844539       0.00000000 NULL      -0.06749800       0.04871000       0.02689500
P        4.21994973       1.10296527       0.84495144       0.00000000 NULL      -0.05957000      -0.09992600      -0.02078000
P        6.50595158      11.88148029       0.84495144       0.00000000 NULL       0.05957100       0.09992700      -0.02078100
P        6.50595158       1.10296527       0.84495144       0.00000000 NULL       0.05957000      -0.09992600      -0.02078100
P        4.21994973      11.88148029       0.84495144       0.00000000 NULL      -0.05957000       0.09992700      -0.02078000
40
Lattice="10.7639728604697 1.9191567132950814e-16 -9.318369340594219e-17 2.4787655615544947e-16 12.991770964588817 7.361029853940486e-16 -5.38198643023485 -6.495885482294409 6.152151708015304" Properties=species:S:1:pos:R:3:initial_magmoms:R:1:castep_labels:S:1:forces:R:3 n_minim_iter=3 energy=-210.432144108345 stress="0.0007420590573416247 -0.0 1.1623367960615657e-08 -0.0 -0.0005391731695890785 1.1623367960615657e-08 1.1623367960615657e-08 1.1623367960615657e-08 -0.0008137054974508597" free_energy=-210.432144108345 pbc="T T T"
P       -1.39152748       1.82014633       5.42056201       0.00000000 NULL      -0.25325000       0.09833500       0.09173400
P        1.39152748      -1.82014633       5.42056201       0.00000000 NULL       0.25324900      -0.09833500       0.09173400
P        1.39152748       1.82014633       5.42056201       0.00000000 NULL       0.25325000       0.09833500       0.09173500
P       -1.39152748      -1.82014633       5.42056201       0.00000000 NULL      -0.25324900      -0.09833500       0.09173400
P        1.85640923       4.80131644      -0.08322471       0.00000000 NULL       0.10363500       0.08702500       0.26878200
P        8.90756363       8.19045453      -0.08322471       0.00000000 NULL      -0.10363300      -0.08701900       0.26878300
P        8.90756363       4.80131644      -0.08322471       0.00000000 NULL      -0.10363400       0.08702400       0.26878300
P        1.85640923       8.19045453      -0.08322471       0.00000000 NULL       0.10363400      -0.08702000       0.26878200
P        1.24531640      10.30221678       0.21224770       0.00000000 NULL      -0.03113400       0.17822200       0.30655200
P        9.51865646       2.68955419       0.21224770       0.00000000 NULL       0.03113000      -0.17823100       0.30654800
P        9.51865646      10.30221678       0.21224770       0.00000000 NULL       0.03113000       0.17822300       0.30655000
P        1.24531640       2.68955419       0.21224770       0.00000000 NULL      -0.03113400      -0.17823000       0.30655000
P        6.45109904      -1.40612533       4.04538848       0.00000000 NULL       0.26214300       0.00613800      -0.04582400
P        4.31287382       1.40612533       4.04538848       0.00000000 NULL      -0.26214300      -0.00613900      -0.04582300
P        4.31287382      -1.40612533       4.04538848       0.00000000 NULL      -0.26214300       0.00613900      -0.04582400
P        6.45109904       1.40612533       4.04538848       0.00000000 NULL       0.26214400      -0.00613800      -0.04582300
P       -1.12668180       1.53453594       2.22313221       0.00000000 NULL       0.22429600       0.15230200      -0.16149100
P        1.12668180      11.45723502       2.22313221       0.00000000 NULL      -0.22429600      -0.15230200      -0.16149100
P        1.12668180       1.53453594       2.22313221       0.00000000 NULL      -0.22429700       0.15230200      -0.16149000
P       -1.12668180      11.45723502       2.22313221       0.00000000 NULL       0.22429600      -0.15230200      -0.16149100
P       -2.70158847       5.04016383       5.24006769       0.00000000 NULL       0.08327200      -0.09352600      -0.10937600
P        2.70158847      -5.04016383       5.24006769       0.00000000 NULL      -0.08326700       0.09353200      -0.10937300
P        2.70158847       5.04016383       5.24006769       0.00000000 NULL      -0.08326900      -0.09352800      -0.10937400
P       -2.70158847      -5.04016383       5.24006769       0.00000000 NULL       0.08326900       0.09352900      -0.10937500
P        4.26353359       5.24312524       3.51293287       0.00000000 NULL       0.01936600      -0.12378700      -0.18746600
P        6.50043927       7.74864572       3.51293287       0.00000000 NULL      -0.01936600       0.12378800      -0.18746500
P        6.50043927       5.24312524       3.51293287       0.00000000 NULL      -0.01936600      -0.12378800      -0.18746600
P        4.26353359       7.74864572       3.51293287       0.00000000 NULL       0.01936600       0.12378800      -0.18746600
P       -1.61413542      -3.20016995       3.71423187       0.00000000 NULL       0.14154100      -0.29883200      -0.12908100
P        1.61413543       3.20016995       3.71423187       0.00000000 NULL      -0.14154200       0.29883200      -0.12908100
P        1.61413543      -3.20016995       3.71423187       0.00000000 NULL      -0.14154200      -0.29883200      -0.12908100
P       -1.61413542       3.20016995       3.71423187       0.00000000 NULL       0.14154100       0.29883100      -0.12908200
P        3.69408943       9.83487604       2.82397291       0.00000000 NULL      -0.08268400      -0.05945700      -0.03158200
P        7.06988344       3.15689493       2.82397291       0.00000000 NULL       0.08268500       0.05945700      -0.03158200
P        7.06988344       9.83487604       2.82397291       0.00000000 NULL       0.08268500      -0.05945700      -0.03158200
P        3.69408943       3.15689493       2.82397291       0.00000000 NULL      -0.08268400       0.05945700      -0.03158200
P        4.23469238       1.10331126       0.83762060       0.00000000 NULL      -0.02127900      -0.10930000      -0.00224900
P        6.52928049      11.88845971       0.83762060       0.00000000 NULL       0.02127800       0.10930000      -0.00224700
P        6.52928049       1.10331126       0.83762060       0.00000000 NULL       0.02127900      -0.10930000      -0.00224800
P        4.23469238      11.88845971       0.83762060       0.00000000 NULL      -0.02127800       0.10930000      -0.00224900
40
Lattice="10.704941129860805 1.355339127886324e-16 -1.5051293851280468e-16 1.760806363661126e-16 13.117491160748799 3.7174931730911943e-16 -5.352470564930402 -6.5587455803744 6.127861081597339" Properties=species:S:1:pos:R:3:initial_magmoms:R:1:castep_labels:S:1:forces:R:3 n_minim_iter=4 energy=-210.470396404778 stress="-0.002474391525683642 -0.0 -1.1621335564318858e-08 -0.0 0.004373178300866571 -1.1621335564318858e-08 -1.1621335564318858e-08 -1.1621335564318858e-08 -0.0016303687876538567" free_energy=-210.470396404778 pbc="T T T"
P       -1.39016923       1.84060201       5.40093051       0.00000000 NULL      -0.15175400       0.13888800       0.04379700
P        1.39016924      -1.84060201       5.40093051       0.00000000 NULL       0.15175400      -0.13888800       0.04379700
P        1.39016924       1.84060201       5.40093051       0.00000000 NULL       0.15175400       0.13888800       0.04379700
P       -1.39016923      -1.84060201       5.40093051       0.00000000 NULL      -0.15175500      -0.13888900       0.04379700
P        1.84842796       4.85019597      -0.07690814       0.00000000 NULL      -0.01829500      -0.06016700       0.31479900
P        8.85651317       8.26729519      -0.07690814       0.00000000 NULL       0.01829300       0.06016200       0.31479800
P        8.85651317       4.85019597      -0.07690814       0.00000000 NULL       0.01829400      -0.06016600       0.31479800
P        1.84842796       8.26729519      -0.07690814       0.00000000 NULL      -0.01829400       0.06016300       0.31479800
P        1.23756731      10.40671919       0.21923679       0.00000000 NULL       0.00293600       0.03158000       0.20134700
P        9.46737383       2.71077197       0.21923679       0.00000000 NULL      -0.00293200      -0.03157200       0.20135200
P        9.46737383      10.40671919       0.21923679       0.00000000 NULL      -0.00293200       0.03157800       0.20135000
P        1.23756731       2.71077197       0.21923679       0.00000000 NULL       0.00293500      -0.03157400       0.20134900
P        6.42344497      -1.41969335       4.02878346       0.00000000 NULL       0.20818000      -0.02747400      -0.10694400
P        4.28149616       1.41969335       4.02878346       0.00000000 NULL      -0.20818000       0.02747500      -0.10694400
P        4.28149616      -1.41969335       4.02878346       0.00000000 NULL      -0.20818000      -0.02747500      -0.10694400
P        6.42344497       1.41969335       4.02878346       0.00000000 NULL       0.20818000       0.02747400      -0.10694500
P       -1.11496793       1.55349473       2.21027943       0.00000000 NULL       0.03646300       0.13812000      -0.09093600
P        1.11496794      11.56399643       2.21027943       0.00000000 NULL      -0.03646200      -0.13812000      -0.09093600
P        1.11496794       1.55349473       2.21027943       0.00000000 NULL      -0.03646200       0.13812000      -0.09093700
P       -1.11496793      11.56399643       2.21027943       0.00000000 NULL       0.03646300      -0.13812000      -0.09093600
P       -2.68466188       5.08661385       5.21656482       0.00000000 NULL       0.08488500      -0.17135200      -0.09112900
P        2.68466188      -5.08661385       5.21656482       0.00000000 NULL      -0.08489000       0.17134700      -0.09113200
P        2.68466188       5.08661385       5.21656482       0.00000000 NULL      -0.08488800      -0.17135000      -0.09113100
P       -2.68466188      -5.08661385       5.21656482       0.00000000 NULL       0.08488700       0.17134900      -0.09113000
P        4.24026661       5.29057526       3.49462084       0.00000000 NULL      -0.06815500      -0.12653100      -0.25815400
P        6.46467452       7.82691590       3.49462084       0.00000000 NULL       0.06815400       0.12653000      -0.25815500
P        6.46467452       5.29057526       3.49462084       0.00000000 NULL       0.06815400      -0.12653100      -0.25815500
P        4.24026661       7.82691590       3.49462084       0.00000000 NULL      -0.06815500       0.12653100      -0.25815400
P       -1.60133877      -3.23852573       3.69659994       0.00000000 NULL       0.16817300      -0.24279300      -0.06834600
P        1.60133877       3.23852573       3.69659994       0.00000000 NULL      -0.16817200       0.24279300      -0.06834600
P        1.60133877      -3.23852573       3.69659994       0.00000000 NULL      -0.16817200      -0.24279300      -0.06834600
P       -1.60133877       3.23852573       3.69659994       0.00000000 NULL       0.16817300       0.24279300      -0.06834600
P        3.67184328       9.92856561       2.81232544       0.00000000 NULL       0.01892800      -0.08595100       0.02499200
P        7.03309785       3.18892555       2.81232544       0.00000000 NULL      -0.01892900       0.08595000       0.02499100
P        7.03309785       9.92856561       2.81232544       0.00000000 NULL      -0.01892800      -0.08595100       0.02499100
P        3.67184328       3.18892555       2.81232544       0.00000000 NULL       0.01892800       0.08595000       0.02499200
P        4.21059956       1.11131764       0.83415531       0.00000000 NULL      -0.04932900      -0.24315600       0.03057500
P        6.49434158      12.00617352       0.83415531       0.00000000 NULL       0.04933000       0.24315700       0.03057300
P        6.49434158       1.11131764       0.83415531       0.00000000 NULL       0.04932900      -0.24315600       0.03057400
P        4.21059956      12.00617352       0.83415531       0.00000000 NULL      -0.04932900       0.24315700       0.03057500
40
Lattice="10.73554660457866 1.465018365445173e-16 -1.6379710606979772e-16 1.9108561900302663e-16 13.025321755155185 3.8480952812553196e-16 -5.36777330228933 -6.512660877577593 6.135180377951497" Properties=species:S:1:pos:R:3:initial_magmoms:R:1:castep_labels:S:1:forces:R:3 n_minim_iter=5 energy=-210.56141202441 stress="-0.0007908554198434217 0.0 2.3312563961897823e-08 0.0 -0.0005128181257518474 0.0 2.3312563961897823e-08 0.0 -0.0004269812652441396" free_energy=-210.56141202441 pbc="T T T"
P       -1.41039001       1.83552907       5.41194925       0.00000000 NULL      -0.04392100       0.14555900      -0.00732600
P        1.41039001      -1.83552907       5.41194925       0.00000000 NULL       0.04392100      -0.14556000      -0.00732500
P        1.41039001       1.83552907       5.41194925       0.00000000 NULL       0.04392000       0.14556000      -0.00732500
P       -1.41039001      -1.83552907       5.41194925       0.00000000 NULL      -0.04392100      -0.14555900      -0.00732500
P        1.85884376       4.82135537      -0.06027887       0.00000000 NULL      -0.08258300      -0.08037200       0.15656600
P        8.87670285       8.20396638      -0.06027887       0.00000000 NULL       0.08258300       0.08037200       0.15656700
P        8.87670285       4.82135537      -0.06027887       0.00000000 NULL       0.08258300      -0.08037300       0.15656700
P        1.85884376       8.20396638      -0.06027887       0.00000000 NULL      -0.08258300       0.08037100       0.15656600
P        1.23893330      10.34525363       0.23975243       0.00000000 NULL       0.07590200      -0.07533800      -0.09177600
P        9.49661330       2.68006812       0.23975243       0.00000000 NULL      -0.07590400       0.07533900      -0.09177800
P        9.49661330      10.34525363       0.23975243       0.00000000 NULL      -0.07590400      -0.07533700      -0.09177700
P        1.23893330       2.68006812       0.23975243       0.00000000 NULL       0.07590200       0.07534000      -0.09177600
P        6.46195399      -1.40985383       4.03126349       0.00000000 NULL      -0.24557300       0.01037700       0.04099800
P        4.27359262       1.40985383       4.03126349       0.00000000 NULL       0.24557400      -0.01037800       0.04099800
P        4.27359262      -1.40985383       4.03126349       0.00000000 NULL       0.24557400       0.01037700       0.04099700
P        6.46195399       1.40985383       4.03126349       0.00000000 NULL      -0.24557300      -0.01037800       0.04099800
P       -1.10459940       1.55344075       2.20247948       0.00000000 NULL      -0.17094700       0.01623800       0.06350000
P        1.10459940      11.47188101       2.20247948       0.00000000 NULL       0.17094600      -0.01623800       0.06350000
P        1.10459940       1.55344075       2.20247948       0.00000000 NULL       0.17094600       0.01623700       0.06350000
P       -1.10459940      11.47188101       2.20247948       0.00000000 NULL      -0.17094700      -0.01623800       0.06350000
P       -2.68661290       5.04397956       5.21537401       0.00000000 NULL       0.04113800      -0.09524200      -0.04045400
P        2.68661290      -5.04397957       5.21537401       0.00000000 NULL      -0.04113700       0.09524300      -0.04045300
P        2.68661290       5.04397956       5.21537401       0.00000000 NULL      -0.04113700      -0.09524400      -0.04045200
P       -2.68661290      -5.04397957       5.21537401       0.00000000 NULL       0.04113900       0.09524100      -0.04045400
P        4.25212801       5.24458540       3.48619804       0.00000000 NULL      -0.00709500      -0.08018800      -0.14463700
P        6.48341859       7.78073635       3.48619804       0.00000000 NULL       0.00709600       0.08018800      -0.14463600
P        6.48341859       5.24458540       3.48619804       0.00000000 NULL       0.00709600      -0.08018800      -0.14463600
P        4.25212801       7.78073635       3.48619804       0.00000000 NULL      -0.00709500       0.08018800      -0.14463700
P       -1.59514362      -3.23523117       3.69339705       0.00000000 NULL       0.03965700      -0.18112400       0.05087500
P        1.59514363       3.23523117       3.69339705       0.00000000 NULL      -0.03965900       0.18112500       0.05087500
P        1.59514363      -3.23523117       3.69339705       0.00000000 NULL      -0.03965900      -0.18112500       0.05087500
P       -1.59514362       3.23523117       3.69339705       0.00000000 NULL       0.03965700       0.18112400       0.05087500
P        3.67772767       9.85460060       2.81469628       0.00000000 NULL      -0.08742600      -0.01035500      -0.01970700
P        7.05781894       3.17072115       2.81469628       0.00000000 NULL       0.08742900       0.01035600      -0.01970700
P        7.05781894       9.85460060       2.81469628       0.00000000 NULL       0.08742800      -0.01035500      -0.01970600
P        3.67772767       3.17072115       2.81469628       0.00000000 NULL      -0.08742700       0.01035600      -0.01970800
P        4.22017131       1.09521280       0.83500608       0.00000000 NULL      -0.02366300       0.03173000      -0.00804100
P        6.51537529      11.93010896       0.83500608       0.00000000 NULL       0.02366300      -0.03173000      -0.00804000
P        6.51537529       1.09521280       0.83500608       0.00000000 NULL       0.02366300       0.03173000      -0.00804000
P        4.22017131      11.93010896       0.83500608       0.00000000 NULL      -0.02366300      -0.03173000      -0.00804100
40
Lattice="10.7536931839313 1.2180295690924119e-16 -1.5229130827302516e-16 1.6061370815915949e-16 13.085998913282593 4.217722156066848e-16 -5.37684659196565 -6.542999456641297 6.081519254360325" Properties=species:S:1:pos:R:3:initial_magmoms:R:1:castep_labels:S:1:forces:R:3 n_minim_iter=6 energy=-210.639854350058 stress="-0.0005068657427493697 0.0 -1.1684857364317621e-08 0.0 -0.0004614233324595385 1.1684857364317621e-08 -1.1684857364317621e-08 1.1684857364317621e-08 -0.0014030709328778025" free_energy=-210.639854350058 pbc="T T T"
P       -1.43313969       1.87049267       5.36686791       0.00000000 NULL       0.03916300       0.07784700       0.03744100
P        1.43313969      -1.87049267       5.36686791       0.00000000 NULL      -0.03916300      -0.07784700       0.03744000
P        1.43313969       1.87049267       5.36686791       0.00000000 NULL      -0.03916300       0.07784700       0.03744000
P       -1.43313969      -1.87049267       5.36686791       0.00000000 NULL       0.03916300      -0.07784700       0.03744100
P        1.85596788       4.83625466      -0.02842744       0.00000000 NULL      -0.06440100      -0.08752600       0.00599700
P        8.89772531       8.24974426      -0.02842744       0.00000000 NULL       0.06440100       0.08752900       0.00599600
P        8.89772531       4.83625466      -0.02842744       0.00000000 NULL       0.06440000      -0.08752500       0.00599600
P        1.85596788       8.24974426      -0.02842744       0.00000000 NULL      -0.06440200       0.08753000       0.00599700
P        1.25027994      10.39281697       0.24120383       0.00000000 NULL       0.00445000      -0.10092200      -0.17025900
P        9.50341325       2.69318194       0.24120383       0.00000000 NULL      -0.00444700       0.10091600      -0.17025800
P        9.50341325      10.39281697       0.24120383       0.00000000 NULL      -0.00444700      -0.10092300      -0.17025600