11
Lattice="3.1426735463386124 -0.7989677235874769 0.4381101603282347 -1.58008090089823 6.723238066524488 -1.0987016620365815 1.4693698532032209 -4.589033470023773 11.883178368960639" Properties=species:S:1:pos:R:3:initial_magmoms:R:1:castep_labels:S:1:forces:R:3 n_minim_iter=1 energy=-58.232352843703 stress="0.00027775944738957903 3.8889045321494726e-05 -0.0003991912855229745 3.8889045321494726e-05 7.823187180193338e-05 5.1504161540135964e-05 -0.0003991912855229745 5.1504161540135964e-05 0.0005264769006067466" free_energy=-58.232352843703 pbc="T T T"
P        2.52512022       1.62501120      -0.08360267       0.00000000 NULL      -0.01846700       0.00581300      -0.00108600
P        1.97217449       3.96759237       2.00015906       0.00000000 NULL      -0.00010900       0.00834700      -0.01127800
P        2.37540906       2.55070975       8.83214561       0.00000000 NULL      -0.00642600       0.00764200      -0.00230300
P        1.02611406       1.29236020       3.99742849       0.00000000 NULL       0.02912500       0.01085300      -0.01319300
P       -0.11958721       2.75119409       2.70488939       0.00000000 NULL      -0.00751000       0.00783700       0.02960400
P        1.02803844       2.33876670       5.91606611       0.00000000 NULL      -0.02411100      -0.02205200      -0.00925100
P        2.08905011       0.62876918       7.35554437       0.00000000 NULL       0.01126200       0.02112500       0.01163700
P        1.85181178      -1.94281455       4.60467695       0.00000000 NULL       0.00306800      -0.01734500       0.00172000
P        3.19564247      -2.31351364       6.47260281       0.00000000 NULL      -0.00252700       0.00354500       0.00895600
P        2.06651933      -4.15481149      11.26037523       0.00000000 NULL       0.00851400      -0.02711100      -0.01388700
P        0.07788790      -0.24084720       7.98467919       0.00000000 NULL       0.00717900       0.00134600      -0.00092000
11
Lattice="3.14180921973154 -0.7990744304893137 0.4394905050139099 -1.5804196245563302 6.722709140720753 -1.0992184126777829 1.4752203686842282 -4.589435561330252 11.876136829423348" Properties=species:S:1:pos:R:3:initial_magmoms:R:1:castep_labels:S:1:forces:R:3 n_minim_iter=2 energy=-58.232472231316 stress="-0.0003294134932863814 -2.3941650939446005e-05 -0.00012983916202075272 -2.3941650939446005e-05 -0.00028162105156285725 -0.00011607384848251336 -0.00012983916202075272 -0.00011607384848251336 -0.00011534696723957002" free_energy=-58.232472231316 pbc="T T T"
P        2.52397740       1.62475880      -0.08235415       0.00000000 NULL      -0.01747800       0.01189700       0.00811700
P        1.97229860       3.96700601       1.99948340       0.00000000 NULL       0.01048500       0.01089500      -0.02296800
P        2.37895701       2.54978643       8.82716431       0.00000000 NULL      -0.00223500       0.00526400      -0.01414400
P        1.02791893       1.29197429       3.99506804       0.00000000 NULL       0.01752500      -0.00060900      -0.01891200
P       -0.11832757       2.75078654       2.70297225       0.00000000 NULL       0.00086100       0.00219700       0.02148700
P        1.03046937       2.33795284       5.91235068       0.00000000 NULL      -0.02196900      -0.01962700       0.00393700
P        2.09213821       0.62823317       7.35163279       0.00000000 NULL       0.01621700       0.02139600       0.00726400
P        1.85364354      -1.94312040       4.60263300       0.00000000 NULL       0.00719800      -0.00939600       0.00437100
P        3.19794270      -2.31385147       6.47004686       0.00000000 NULL      -0.01017700       0.00810900       0.01206100
P        2.07186081      -4.15540566      11.25395697       0.00000000 NULL       0.00175400      -0.02912700      -0.00821900
P        0.08204528      -0.24135195       7.97928204       0.00000000 NULL      -0.00217900      -0.00100000       0.00700700
11
Lattice="3.1434787765487706 -0.7993693959469674 0.4413294295048884 -1.5817639930573366 6.726051120704768 -1.0986398864073625 1.4838072339428083 -4.5894771211178 11.873032932733333" Properties=species:S:1:pos:R:3:initial_magmoms:R:1:castep_labels:S:1:forces:R:3 n_minim_iter=3 energy=-58.232566317511 stress="5.997079525193474e-05 -0.00010663996824132832 0.00017514559279482533 -0.00010663996824132832 0.0002226773283200151 -0.00012402741304185142 0.00017514559279482533 -0.00012402741304185142 0.00010350750429554218" free_energy=-58.232566317511 pbc="T T T"
P        2.52480235       1.62578596      -0.08023091       0.00000000 NULL      -0.02002600      -0.00188100       0.00205000
P        1.97467140       3.96969396       2.00079800       0.00000000 NULL       0.01733700       0.00869100      -0.01846000
P        2.38593565       2.55303707       8.82676857       0.00000000 NULL      -0.00033100       0.00445500      -0.00812400
P        1.03138275       1.29352191       3.99470721       0.00000000 NULL       0.01108900       0.00616100      -0.01743300
P       -0.11654561       2.75285105       2.70306463       0.00000000 NULL       0.01004200       0.00752200       0.02134100
P        1.03461468       2.34010928       5.91192970       0.00000000 NULL      -0.01908400      -0.01969500       0.00612600
P        2.09823089       0.63037801       7.35132564       0.00000000 NULL       0.01937300       0.01940000       0.00829100
P        1.85761863      -1.94337662       4.60231151       0.00000000 NULL       0.00549800      -0.01869200       0.00012100
P        3.20356728      -2.31364644       6.47016470       0.00000000 NULL      -0.01851100       0.00542400       0.00939500
P        2.08035252      -4.15574033      11.25136603       0.00000000 NULL       0.00013700      -0.01599500      -0.00709200
P        0.08746378      -0.23988075       7.97721927       0.00000000 NULL      -0.00552400       0.00461000       0.00378500
11
Lattice="3.1445526545873665 -0.7973248005143204 0.44092698976210115 -1.5793675119481647 6.723278545102768 -1.09237412741722 1.4845400045790444 -4.577925541503362 11.860112493442635" Properties=species:S:1:pos:R:3:initial_magmoms:R:1:castep_labels:S:1:forces:R:3 n_minim_iter=4 energy=-58.232711143399 stress="0.00011278020239684505 0.00013090315880294297 1.7986693575976898e-05 0.00013090315880294297 4.9599670164057505e-05 0.00019331153499837798 1.7986693575976898e-05 0.00019331153499837798 -0.00021479564121412815" free_energy=-58.232711143399 pbc="T T T"
P        2.52592555       1.62687495      -0.07813295       0.00000000 NULL      -0.02407200      -0.01436100      -0.00395300
P        1.97838122       3.97212285       2.00222282       0.00000000 NULL       0.01440900       0.01457800      -0.02265100
P        2.38989683       2.56152575       8.82210442       0.00000000 NULL      -0.00238500       0.00983500      -0.00520600
P        1.03391472       1.29740087       3.99217456       0.00000000 NULL       0.01798400      -0.00974000      -0.00122500
P       -0.11454296       2.75488914       2.70418233       0.00000000 NULL       0.00440100       0.01721700       0.00443000
P        1.03653203       2.34445955       5.90960689       0.00000000 NULL      -0.02291000      -0.01859700       0.00772000
P        2.10160417       0.63839308       7.34685582       0.00000000 NULL       0.01023900       0.02520300       0.00187700
P        1.85861926      -1.93885936       4.59749514       0.00000000 NULL       0.00010100      -0.01403100      -0.00337300
P        3.20457779      -2.30595572       6.46417560       0.00000000 NULL      -0.01047900       0.00419800       0.00917200
P        2.08151777      -4.14540840      11.23907292       0.00000000 NULL       0.00505700      -0.00857700       0.00002400
P        0.08885763      -0.23292985       7.97094794       0.00000000 NULL       0.00765400      -0.00572500       0.01318600
11
Lattice="3.144687066229678 -0.797333525566991 0.44189816411935146 -1.580853032579951 6.718646412149669 -1.0932197847834515 1.488316405649487 -4.574796674251043 11.86561349868759" Properties=species:S:1:pos:R:3:initial_magmoms:R:1:castep_labels:S:1:forces:R:3 n_minim_iter=5 energy=-58.233022623532 stress="6.879069165992655e-05 -0.00010891102239685863 5.120680944566528e-05 -0.00010891102239685863 -0.0002139145154127703 3.0442380060865782e-05 5.120680944566528e-05 3.0442380060865782e-05 0.00010841122212720262" free_energy=-58.233022623532 pbc="T T T"
P        2.52281868       1.62496717      -0.07737549       0.00000000 NULL      -0.01767200      -0.02075500      -0.00028200
P        1.97972815       3.97029423       2.00097428       0.00000000 NULL       0.01325000       0.01178300       0.00015600
P        2.39124893       2.56011339       8.82548559       0.00000000 NULL       0.00255600       0.01061600       0.00539400
P        1.03679695       1.29623010       3.99261208       0.00000000 NULL      -0.00297900      -0.02187900       0.01629900
P       -0.11383486       2.75413288       2.70749183       0.00000000 NULL       0.01298300      -0.00221500      -0.02522200
P        1.03472082       2.34003351       5.91302366       0.00000000 NULL      -0.00657200      -0.00777900      -0.00380600
P        2.10516151       0.64042065       7.35138695       0.00000000 NULL       0.00404000       0.01493400      -0.00189800
P        1.86056910      -1.93967934       4.59996885       0.00000000 NULL       0.00078500       0.02112300       0.00019900
P        3.20491694      -2.30412551       6.46905664       0.00000000 NULL      -0.00571300      -0.00413700       0.00389500
P        2.08541778      -4.14503909      11.24371548       0.00000000 NULL      -0.00598100       0.00284400      -0.00695700
P        0.09101236      -0.23280477       7.97536644       0.00000000 NULL       0.00530400      -0.00453500       0.01222200
11
Lattice="3.1432597076701927 -0.7967330393172612 0.4414288232719933 -1.5775767118966542 6.722756601091218 -1.0936860566868465 1.484355830663872 -4.579201589585327 11.862183263057362" Properties=species:S:1:pos:R:3:initial_magmoms:R:1:castep_labels:S:1:forces:R:3 n_minim_iter=6 energy=-58.233105464938 stress="-6.633656702456722e-05 5.634064596607078e-05 -7.287935171740123e-05 5.634064596607078e-05 0.00014557695941555708 -0.00010913728355685647 -7.287935171740123e-05 -0.00010913728355685647 -3.6348803849077924e-05" free_energy=-58.233105464938 pbc="T T T"
P        2.52154834       1.62658224      -0.07793332       0.00000000 NULL      -0.01601100      -0.02036500       0.00448600
P        1.98101030       3.97404009       1.99870334       0.00000000 NULL       0.00907100       0.00801000       0.00379800
P        2.39014373       2.56180473       8.82163917       0.00000000 NULL       0.00275600       0.00821500      -0.00011900
P        1.03690853       1.29644295       3.99083181       0.00000000 NULL      -0.00047300      -0.01439800       0.00805900
P       -0.11273077       2.75581701       2.70627672       0.00000000 NULL       0.01260400      -0.00071400      -0.02554000
P        1.03354653       2.34024307       5.91063359       0.00000000 NULL      -0.00171500       0.00337100       0.00057900
P        2.10424148       0.64155383       7.34873148       0.00000000 NULL      -0.00149600       0.00420200      -0.00400200
P        1.85868690      -1.94112172       4.59849026       0.00000000 NULL      -0.00271600       0.01629400      -0.00099500
P        3.20149259      -2.30536433       6.46723471       0.00000000 NULL      -0.00372200      -0.01514000       0.00788600
P        2.08150318      -4.14939271      11.24001086       0.00000000 NULL      -0.00761300       0.00609000      -0.00339900
P        0.08988992      -0.23429877       7.97323099       0.00000000 NULL       0.00931500       0.00443400       0.00924600
11
Lattice="3.1433039309074813 -0.795058662321022 0.44313893774773333 -1.577411350599352 6.716793179054716 -1.0845007071792307 1.4953281063389523 -4.558123711310524 11.85090999671947" Properties=species:S:1:pos:R:3:initial_magmoms:R:1:castep_labels:S:1:forces:R:3 n_minim_iter=7 energy=-58.233433736434 stress="-0.00034198973970231677 -2.81124845884586e-05 2.2653749716913244e-05 -2.81124845884586e-05 0.00010003131652106872 0.00015002423005297164 2.2653749716913244e-05 0.00015002423005297164 0.00010212383155516111" free_energy=-58.233433736434 pbc="T T T"
P        2.51617786       1.62218282      -0.07241812       0.00000000 NULL      -0.00698700      -0.00278000       0.01571200
P        1.98691058       3.97802432       2.00364647       0.00000000 NULL       0.00962000       0.00648300       0.00763800
P        2.39937627       2.57650326       8.82303019       0.00000000 NULL       0.00498600       0.01172200      -0.01045800
P        1.04286768       1.29893072       3.99238658       0.00000000 NULL      -0.00234100       0.00061500       0.00564500
P       -0.10693012       2.75926196       2.70683559       0.00000000 NULL       0.01460100       0.01088600      -0.00687800
P        1.03645271       2.34537102       5.91267567       0.00000000 NULL       0.01085300      -0.00564200      -0.01249400
P        2.11347019       0.65692143       7.34847937       0.00000000 NULL      -0.00144300      -0.00437900      -0.00398900
P        1.86305859      -1.93142168       4.59507107       0.00000000 NULL      -0.01266600      -0.00471400      -0.00692900
P        3.20505655      -2.29465349       6.46599692       0.00000000 NULL       0.00531800       0.00351200      -0.00394800
P        2.09110959      -4.13080225      11.22879326       0.00000000 NULL      -0.02141400      -0.00993900       0.00738900
P        0.09925486      -0.22196526       7.97173381       0.00000000 NULL      -0.00052800      -0.00576300       0.00831200
11
Lattice="3.1453143208341854 -0.7944057051134076 0.4435068042782196 -1.5778680075441123 6.713926705493364 -1.0846053924869872 1.4977490335806392 -4.556674220176742 11.846068520552988" Properties=species:S:1:pos:R:3:initial_magmoms:R:1:castep_labels:S:1:forces:R:3 n_minim_iter=8 energy=-58.233498845692 stress="5.955839777695783e-05 -2.729949477935424e-05 -2.020162613672214e-05 -2.729949477935424e-05 -6.0604878410166414e-05 -4.668213607269575e-05 -2.020162613672214e-05 -4.668213607269575e-05 -0.00013854493600522279" free_energy=-58.233498845692 pbc="T T T"
P        2.51675764       1.62098882      -0.07178705       0.00000000 NULL      -0.00719600       0.00519300       0.02689400
P        1.98977624       3.97722159       2.00252249       0.00000000 NULL       0.00618600       0.00472100       0.00837900
P        2.40274912       2.57591290       8.81912811       0.00000000 NULL       0.00275400       0.00636700      -0.01841600
P        1.04471786       1.29770927       3.99086798       0.00000000 NULL       0.00515000       0.00158600      -0.00884200
P       -0.10554796       2.75831978       2.70495759       0.00000000 NULL       0.00829500       0.00320700      -0.00390200
P        1.03775758       2.34360827       5.91002036       0.00000000 NULL       0.01051100      -0.00180000      -0.00537700
P        2.11652113       0.65737914       7.34552851       0.00000000 NULL      -0.00550900      -0.00999900      -0.00311400
P        1.86472887      -1.93045992       4.59332719       0.00000000 NULL      -0.01341800      -0.00121100      -0.00500300
P        3.20751466      -2.29385802       6.46417597       0.00000000 NULL       0.00798300       0.00555700      -0.00389100
P        2.09348298      -4.12983051      11.22406230       0.00000000 NULL      -0.01911400      -0.01059200       0.00608000
P        0.10091116      -0.22230689       7.96882766       0.00000000 NULL       0.00435800      -0.00302900       0.00719200
11
Lattice="3.1446578369613385 -0.791060574634208 0.4457557910240165 -1.5727876686497058 6.707740018763571 -1.0842684200099542 1.5027401673645127 -4.54936096325028 11.847363011045122" Properties=species:S:1:pos:R:3:initial_magmoms:R:1:castep_labels:S:1:forces:R:3 n_minim_iter=9 energy=-58.233658103247 stress="-2.7545547946366454e-05 0.00020948275388633399 0.00012379561134904195 0.00020948275388633399 -0.00017032709895430892 -4.899009849634761e-05 0.00012379561134904195 -4.899009849634761e-05 7.016147005843092e-05" free_energy=-58.233658103247 pbc="T T T"
P        2.51445672       1.62055047      -0.06679583       0.00000000 NULL      -0.01231200      -0.00679600       0.00942100
P        1.99691034       3.97871822       2.00510594       0.00000000 NULL       0.00946100       0.00315800       0.00381400
P        2.41185173       2.58040176       8.82060932       0.00000000 NULL      -0.00429400       0.01186200       0.00699300
P        1.05010731       1.29757251       3.99210080       0.00000000 NULL       0.01413600       0.00314000      -0.01760600
P       -0.09881026       2.75816095       2.70453397       0.00000000 NULL       0.00003200      -0.00899800       0.00188300
P        1.04361639       2.34264536       5.91132114       0.00000000 NULL       0.01045500       0.00541600      -0.00629800
P        2.12301104       0.66175855       7.34794268       0.00000000 NULL      -0.00636100      -0.01186500       0.00181800
P        1.86509449      -1.92627315       4.59410523       0.00000000 NULL      -0.00607400       0.00599200       0.00300600
P        3.20983393      -2.28787531       6.46739319       0.00000000 NULL      -0.00233400       0.00722700      -0.00476900
P        2.09588396      -4.12429618      11.22573273       0.00000000 NULL      -0.00959900      -0.00543400      -0.00138600
P        0.10781873      -0.22047075       7.97171925       0.00000000 NULL       0.00688900      -0.00370200       0.00312500
11
Lattice="3.1450592180622308 -0.7928885108609082 0.44483045644345975 -1.5769224919052862 6.7090681561791605 -1.0793647670165665 1.505292956681526 -4.544073411856289 11.834088544623379" Properties=species:S:1:pos:R:3:initial_magmoms:R:1:castep_labels:S:1:forces:R:3 n_minim_iter=10 energy=-58.233808724286 stress="-2.720245476880654e-05 -4.410716284121396e-05 9.113050173804538e-07 -4.410716284121396e-05 -4.893707943333036e-05 4.907377518593743e-05 9.113050173804538e-07 4.907377518593743e-05 -0.00012225156808158785" free_energy=-58.233808724286 pbc="T T T"
P        2.50969333       1.61754513      -0.06295476       0.00000000 NULL      -0.00847600      -0.02302400      -0.00380300
P        1.99694200       3.98124129       2.00560215       0.00000000 NULL       0.00217100       0.00704000      -0.00822900
P        2.41022992       2.58671990       8.81252091       0.00000000 NULL      -0.00948100       0.01366900       0.02498100
P        1.05096213       1.29850132       3.98836398       0.00000000 NULL       0.00566200       0.00289800      -0.02423000
P       -0.09836421       2.76103538       2.70259482       0.00000000 NULL       0.00080000      -0.01519000       0.00426200
P        1.04178376       2.34424502       5.90644890       0.00000000 NULL       0.01656400       0.00666200       0.00159500
P        2.12270782       0.66557126       7.34164412       0.00000000 NULL       0.00246500      -0.01366500       0.00457400
P        1.86468710      -1.92479887       4.58828283       0.00000000 NULL       0.00176400       0.01210100       0.00846600
P        3.21064445      -2.28615791       6.46068045       0.00000000 NULL       0.00241400       0.00586000      -0.00206800
P        2.09550685      -4.12168786      11.21306868       0.00000000 NULL      -0.00672000       0.00464200      -0.00616600
P        0.10898992      -0.21638780       7.96647327       0.00000000 NULL      -0.00716200      -0.00099400       0.00061800
11
Lattice="3.145400886402074 -0.7915274160732941 0.44682434567947976 -1.576028994921922 6.7051330382018115 -1.0782956074558763 1.5131852531721701 -4.538276264632706 11.829017881991543" Properties=species:S:1:pos:R:3:initial_magmoms:R:1:castep_labels:S:1:forces:R:3 n_minim_iter=11 energy=-58.234113486413 stress="3.547925083947932e-05 1.810445062117389e-05 6.803990006748475e-05 1.810445062117389e-05 -6.831351896856044e-05 9.334964841698478e-05 6.803990006748475e-05 9.334964841698478e-05 -4.6606419483223474e-05" free_energy=-58.234113486413 pbc="T T T"
P        2.50148632       1.61086583      -0.05537871       0.00000000 NULL      -0.00419400       0.00040900       0.01507800
P        2.00521942       3.98549199       2.00623794       0.00000000 NULL      -0.00505100       0.00143900      -0.00032700
P        2.41688621       2.59526065       8.81174403       0.00000000 NULL      -0.01516100      -0.00505800       0.00113600
P        1.05906865       1.29827702       3.98211593       0.00000000 NULL      -0.00184700       0.00130700       0.01034800
P       -0.09098715       2.75989470       2.70102130       0.00000000 NULL       0.00795400       0.00954800      -0.01112900
P        1.04893036       2.34283965       5.90365047       0.00000000 NULL       0.01172700      -0.00057500      -0.00522700
P        2.12980633       0.66736434       7.34107285       0.00000000 NULL       0.00617100      -0.00872200       0.00568800
P        1.86516219      -1.92017341       4.58741950       0.00000000 NULL       0.01883400       0.00486300      -0.00226000
P        3.21465433      -2.28106409       6.46053204       0.00000000 NULL      -0.00797400      -0.00323900      -0.00302400
P        2.09676625      -4.11970153      11.20734326       0.00000000 NULL      -0.00304900      -0.00445000      -0.00251400
P        0.11634556      -0.21489602       7.96705581       0.00000000 NULL      -0.00741100       0.00447900      -0.00777000
11
Lattice="3.1446086768086507 -0.7928088628234168 0.4487571853021231 -1.5784128460397462 6.705339924180235 -1.0824734821748914 1.5200930500620393 -4.544250808871924 11.83176242589021" Properties=species:S:1:pos:R:3:initial_magmoms:R:1:castep_labels:S:1:forces:R:3 n_minim_iter=12 energy=-58.234406199811 stress="5.97292849046206e-05 -6.616307342375849e-06 3.559117053140112e-05 -6.616307342375849e-06 -1.7430547619224653e-05 9.349526720364219e-05 3.559117053140112e-05 9.349526720364219e-05 2.6556488781122376e-05" free_energy=-58.234406199811 pbc="T T T"
P        2.49053638       1.60454335      -0.04580875       0.00000000 NULL       0.00277700      -0.01449000      -0.00657900
P        2.00710458       3.98801571       2.00381156       0.00000000 NULL      -0.00118300      -0.00427400       0.00450600
P        2.41394991       2.59383019       8.81167297       0.00000000 NULL      -0.00253800      -0.00868100       0.00177400
P        1.06421211       1.29594721       3.97849465       0.00000000 NULL      -0.00740200       0.00761100      -0.00722700
P       -0.08435901       2.75995154       2.69632483       0.00000000 NULL       0.01125100       0.01086200       0.00233100
P        1.05505990       2.33704147       5.89996780       0.00000000 NULL       0.00446500       0.00265300       0.00841500
P        2.13563754       0.65996681       7.34428251       0.00000000 NULL      -0.00262400       0.01015000      -0.00238300
P        1.87093373      -1.91995476       4.58911343       0.00000000 NULL       0.00504800       0.00007300      -0.00246100
P        3.21427449      -2.28574549       6.46367034       0.00000000 NULL       0.00616100      -0.00013200      -0.00723900
P        2.09667323      -4.13085937      11.20735197       0.00000000 NULL      -0.01574100       0.00722100       0.00768400
P        0.11923497      -0.21740829       7.96781849       0.00000000 NULL      -0.00021600      -0.01099300       0.00117800
11
Lattice="3.1441434768278627 -0.7949279843646022 0.45002306950692605 -1.581581097086713 6.7105878000568095 -1.084193305087974 1.5265252865296135 -4.550460603841201 11.829270019670133" Properties=species:S:1:pos:R:3:initial_magmoms:R:1:castep_labels:S:1:forces:R:3 n_minim_iter=13 energy=-58.234561088519 stress="4.0292655204408625e-05 -2.0990511205014686e-06 2.4823561077234762e-05 -2.0990511205014686e-06 9.491361588354466e-06 6.54356371043284e-05 2.4823561077234762e-05 6.54356371043284e-05 2.4275982524060464e-05" free_energy=-58.234561088519 pbc="T T T"
P        2.48491159       1.59963884      -0.04153908       0.00000000 NULL       0.00175600      -0.00722300      -0.00740400
P        2.00647069       3.99042128       2.00319572       0.00000000 NULL       0.00897200       0.00056000      -0.01221900
P        2.41220575       2.59216987       8.80882605       0.00000000 NULL      -0.00197200      -0.00890700       0.00429500
P        1.06544893       1.29731949       3.97355561       0.00000000 NULL       0.00313000       0.00871100       0.01528800
P       -0.07921021       2.76403661       2.69399265       0.00000000 NULL      -0.00387200       0.00075400      -0.00230400
P        1.05866256       2.33643918       5.89852635       0.00000000 NULL       0.00257500      -0.00841000      -0.00912800
P        2.13886471       0.65859598       7.34346264       0.00000000 NULL      -0.00201900      -0.00401700      -0.00247000
P        1.87644081      -1.92151452       4.58835577       0.00000000 NULL      -0.00358900       0.00591100       0.00674500
P        3.21628205      -2.29102006       6.46252803       0.00000000 NULL       0.01194300       0.01147000       0.00455100
P        2.09632957      -4.13854431      11.20505912       0.00000000 NULL      -0.01096000       0.00101900       0.00875000
P        0.12192218      -0.22022465       7.96550680       0.00000000 NULL      -0.00596300       0.00013300      -0.00610400
11
Lattice="3.143262876269392 -0.7976320377386501 0.45100180085614755 -1.5861310615195907 6.7153064624968275 -1.0837249214440865 1.5335516649880405 -4.552580846216075 11.82691874754337" Properties=species:S:1:pos:R:3:initial_magmoms:R:1:castep_labels:S:1:forces:R:3 n_minim_iter=14 energy=-58.234719339871 stress="-7.667410536021434e-06 -1.4924066936184575e-05 -6.1156726894456665e-06 -1.4924066936184575e-05 5.202885720871686e-06 4.1714364463830895e-05 -6.1156726894456665e-06 4.1714364463830895e-05 3.290597021709198e-05" free_energy=-58.234719339871 pbc="T T T"
P        2.47885635       1.59306756      -0.03801638       0.00000000 NULL      -0.00237700       0.00583000      -0.00803000
P        2.00617273       3.99257759       2.00154492       0.00000000 NULL       0.01413900       0.00189300      -0.00244800
P        2.40875312       2.59034397       8.80838180       0.00000000 NULL      -0.00604100      -0.00481200       0.01013900
P        1.06681764       1.30171909       3.97249307       0.00000000 NULL       0.00105300      -0.01249700       0.00054900
P       -0.07573191       2.76877087       2.69267828       0.00000000 NULL      -0.00360200       0.01596400      -0.00106800
P        1.06151968       2.33576588       5.89710625       0.00000000 NULL       0.00350900       0.01554800       0.00710400
P        2.14096786       0.65839036       7.34340720       0.00000000 NULL      -0.00025100      -0.00600100      -0.00693500
P        1.88151783      -1.92042315       4.58915921       0.00000000 NULL      -0.00237800      -0.00199800      -0.00413300
P        3.22050143      -2.29258769       6.46284694       0.00000000 NULL       0.00441700      -0.00211900      -0.00472800
P        2.09415618      -4.14261995      11.20463682       0.00000000 NULL       0.00199100      -0.01290900       0.00584000
P        0.12321028      -0.21985698       7.96280915       0.00000000 NULL      -0.01046000       0.00110100       0.00370900
11
Lattice="3.140834049586353 -0.8013015439456795 0.4527789741894642 -1.5916575115028422 6.723523143083951 -1.081107117984342 1.545783105851468 -4.55375679963397 11.815529227043944" Properties=species:S:1:pos:R:3:initial_magmoms:R:1:castep_labels:S:1:forces:R:3 n_minim_iter=15 energy=-58.234983331777 stress="-6.1033270750864853e-05 2.969433082938784e-06 -2.1471285368941976e-05 2.969433082938784e-06 4.0201555584402e-06 -2.466913638133759e-06 -2.1471285368941976e-05 -2.466913638133759e-06 1.7907965669415437e-05" free_energy=-58.234983331777 pbc="T T T"
P        2.46780981       1.58527055      -0.03367029       0.00000000 NULL      -0.00801200       0.00818000       0.00242700
P        2.01122506       3.99816390       1.99821477       0.00000000 NULL       0.01588600       0.00058900       0.00245600
P        2.40291178       2.58841866       8.80645363       0.00000000 NULL      -0.00469100      -0.00786500       0.00198400
P        1.07039357       1.30644084       3.96865039       0.00000000 NULL      -0.00811800       0.02139300       0.00231700
P       -0.07005311       2.78241493       2.68929551       0.00000000 NULL       0.00322700      -0.01609300       0.00047300
P        1.06863523       2.34191100       5.89480835       0.00000000 NULL      -0.00946700      -0.00373500      -0.00561400
P        2.14516048       0.65833256       7.33739834       0.00000000 NULL      -0.01242300      -0.00023500      -0.00970900
P        1.88899767      -1.91782960       4.58662748       0.00000000 NULL       0.01802100       0.00521800      -0.00681200
P        3.22852600      -2.29407929       6.45850179       0.00000000 NULL      -0.00949800       0.00199900      -0.00876100
P        2.09172183      -4.15107891      11.19882694       0.00000000 NULL       0.01217400      -0.00563300       0.00936400
P        0.12360073      -0.21681776       7.95483999       0.00000000 NULL       0.00290200      -0.00381900       0.01187400
11
Lattice="3.1367308805899805 -0.8061173247530666 0.45850777459737074 -1.5995887139850056 6.732530133005927 -1.0812602072078152 1.5731720637728344 -4.557223950841338 11.804806736942448" Properties=species:S:1:pos:R:3:initial_magmoms:R:1:castep_labels:S:1:forces:R:3 n_minim_iter=16 energy=-58.235495723345 stress="-0.00010216286254891494 2.3984471315247057e-05 -2.7600450769263313e-05 2.3984471315247057e-05 1.5837074570754737e-05 -5.6482514509570364e-05 -2.7600450769263313e-05 -5.6482514509570364e-05 9.122338040322021e-05" free_energy=-58.235495723345 pbc="T T T"