10
Lattice="5.865650000000001 3.188371320557036e-15 -2.4247433671607865e-15 1.227220685397277 5.735832922238325 -2.424743367160785e-15 1.7047338072556724 1.3785769865282833 6.642052247574856" Properties=species:S:1:pos:R:3:initial_magmoms:R:1:castep_labels:S:1 n_minim_iter=1 pbc="T T T"
P        6.18388611       4.79538227       3.44519663       0.00000000 NULL
P        1.58425239       1.48652340       0.12417051       0.00000000 NULL
P        6.33597997       5.51320089       6.55441900       0.00000000 NULL
P        2.31800576       1.48506800       3.23339288       0.00000000 NULL
P        2.14989621       1.78254140       5.40180309       0.00000000 NULL
P        4.88696381       3.90799705       2.08077697       0.00000000 NULL
P        4.86205139       3.89112820       4.72656475       0.00000000 NULL
P        0.42345467       0.38313267       1.40553863       0.00000000 NULL
P        5.52863041       5.68508091       1.35032059       0.00000000 NULL
P        4.02190061       2.03820246       4.67134671       0.00000000 NULL
10
Lattice="5.874058942892263 0.005312755372266098 -0.0029371013106063272 1.234175192712192 5.742944217353677 -0.0029371013106063277 1.705100462470613 1.3788734917299497 6.647728186196397" Properties=species:S:1:pos:R:3:initial_magmoms:R:1:castep_labels:S:1 n_minim_iter=2 pbc="T T T"
P        6.19564207       4.80467489       3.44380657       0.00000000 NULL
P        1.58793390       1.48971468       0.12287958       0.00000000 NULL
P        6.34683315       5.52206056       6.55600399       0.00000000 NULL
P        2.32107501       1.48746706       3.23507700       0.00000000 NULL
P        2.15154558       1.78406996       5.40578882       0.00000000 NULL
P        4.89630202       3.91535389       2.07898762       0.00000000 NULL
P        4.87009818       3.89790258       4.72774587       0.00000000 NULL
P        0.42389763       0.38322375       1.40681887       0.00000000 NULL
P        5.54078306       5.69570985       1.34655625       0.00000000 NULL
P        4.02733851       2.04179857       4.67335744       0.00000000 NULL
10
Lattice="6.083109568120798 0.1387591455753063 -0.07749701481772875 1.4084060878143803 5.919448319738165 -0.07749701481772867 1.7127911616489182 1.3850927740908665 6.785519266150438" Properties=species:S:1:pos:R:3:initial_magmoms:R:1:castep_labels:S:1 n_minim_iter=3 pbc="T T T"
P        6.48833323       5.03606556       3.40516532       0.00000000 NULL
P        1.67995470       1.56943127       0.08990270       0.00000000 NULL
P        6.61630642       5.74191872       6.59006966       0.00000000 NULL
P        2.39696085       1.54689246       3.27480704       0.00000000 NULL
P        2.19129032       1.82100463       5.50195312       0.00000000 NULL
P        5.12853013       4.09835708       2.03169647       0.00000000 NULL
P        5.06983384       4.06610755       4.75317064       0.00000000 NULL
P        0.43468284       0.38526191       1.43790802       0.00000000 NULL
P        5.84383370       5.96032147       1.24973607       0.00000000 NULL
P        4.16170314       2.13091411       4.71999271       0.00000000 NULL
10
Lattice="6.12675932201045 0.17979881936111142 -0.12229566279883268 1.457669953354333 5.953545642083679 -0.12229566279883258 1.6843940701822646 1.3621287332455168 6.7718821122656365" Properties=species:S:1:pos:R:3:initial_magmoms:R:1:castep_labels:S:1 n_minim_iter=4 pbc="T T T"
P        6.54565357       5.07928223       3.33192276       0.00000000 NULL
P        1.70194930       1.59035467       0.06827736       0.00000000 NULL
P        6.65428953       5.77123225       6.51708621       0.00000000 NULL
P        2.40131424       1.55181543       3.25344082       0.00000000 NULL
P        2.17353059       1.80902251       5.48076692       0.00000000 NULL
P        5.17375284       4.13254784       1.97253020       0.00000000 NULL
P        5.09595129       4.09276654       4.69913082       0.00000000 NULL
P        0.43395789       0.37913723       1.43548542       0.00000000 NULL
P        5.90926180       6.01829797       1.17150435       0.00000000 NULL
P        4.17143014       2.13371371       4.67974107       0.00000000 NULL
10
Lattice="6.135500459697626 0.20720598706282803 -0.16429720709824555 1.4862993873970087 5.956359151616676 -0.1642972070982454 1.6458148422830883 1.3309306450082383 6.71535948533775" Properties=species:S:1:pos:R:3:initial_magmoms:R:1:castep_labels:S:1 n_minim_iter=5 pbc="T T T"
P        6.55768297       5.08518275       3.24066691       0.00000000 NULL
P        1.71084036       1.60137202       0.04728437       0.00000000 NULL
P        6.64613941       5.76155556       6.40638496       0.00000000 NULL
P        2.39075086       1.54635896       3.21300242       0.00000000 NULL
P        2.14023162       1.78463441       5.42502393       0.00000000 NULL
P        5.18091252       4.13579773       1.90304698       0.00000000 NULL
P        5.08618225       4.09228496       4.61705627       0.00000000 NULL
P        0.43204740       0.37017385       1.42367374       0.00000000 NULL
P        5.92750059       6.03572942       1.08887519       0.00000000 NULL
P        4.15431685       2.11719243       4.61085214       0.00000000 NULL
10
Lattice="6.127917080304347 0.24813030647479464 -0.2123628481052735 1.524731373374131 5.940381354014711 -0.21236284810527334 1.5988013284907236 1.2929119538236482 6.621608722727685" Properties=species:S:1:pos:R:3:initial_magmoms:R:1:castep_labels:S:1 n_minim_iter=6 pbc="T T T"
P        6.56647503       5.08387570       3.12165038       0.00000000 NULL
P        1.71948418       1.61677905       0.02320887       0.00000000 NULL
P        6.63086077       5.74182558       6.25210620       0.00000000 NULL
P        2.37634337       1.54208250       3.15366469       0.00000000 NULL
P        2.09178887       1.75027619       5.33726126       0.00000000 NULL
P        5.17611050       4.12709820       1.81409405       0.00000000 NULL
P        5.06569396       4.09138623       4.50235251       0.00000000 NULL
P        0.43496442       0.35686312       1.40391099       0.00000000 NULL
P        5.93470921       6.04541552       0.98725213       0.00000000 NULL
P        4.12636572       2.09073236       4.51041934       0.00000000 NULL
10
Lattice="6.105574363198111 0.28101703797267236 -0.21848652863413362 1.5522156850240907 5.911652505631411 -0.21848652863413345 1.5931028466495012 1.2883037294246111 6.581345506662723" Properties=species:S:1:pos:R:3:initial_magmoms:R:1:castep_labels:S:1 n_minim_iter=7 pbc="T T T"
P        6.58473979       5.08464995       3.09285559       0.00000000 NULL
P        1.72434113       1.63470276       0.02066937       0.00000000 NULL
P        6.64328329       5.74104074       6.20505226       0.00000000 NULL
P        2.37845341       1.55461945       3.13286604       0.00000000 NULL
P        2.06572631       1.73624533       5.30413329       0.00000000 NULL
P        5.16235736       4.10893106       1.79497400       0.00000000 NULL
P        5.06001603       4.10893234       4.46748923       0.00000000 NULL
P        0.45121271       0.34786500       1.39530300       0.00000000 NULL
P        5.92545536       6.04696589       0.96595670       0.00000000 NULL
P        4.12052563       2.07697589       4.47511598       0.00000000 NULL
10
Lattice="6.017067555095237 0.22747362858116926 -0.23909470352270137 1.4813397486727906 5.83630694560196 -0.23909470352270124 1.5314600902201743 1.238454723651422 6.506285777110136" Properties=species:S:1:pos:R:3:initial_magmoms:R:1:castep_labels:S:1 n_minim_iter=8 pbc="T T T"
P        6.45233279       4.96014191       3.02219902       0.00000000 NULL
P        1.68539901       1.62064491       0.00815084       0.00000000 NULL
P        6.48748621       5.60491809       6.10148250       0.00000000 NULL
P        2.32326002       1.52011922       3.08743431       0.00000000 NULL
P        1.97811200       1.67360204       5.24359993       0.00000000 NULL
P        5.03389967       3.99684215       1.75136234       0.00000000 NULL
P        4.92833826       4.02511343       4.39171955       0.00000000 NULL
P        0.45221176       0.32600720       1.37767136       0.00000000 NULL
P        5.76838998       5.93826786       0.91619268       0.00000000 NULL
P        4.03024181       1.98564860       4.40843027       0.00000000 NULL
10
Lattice="6.057011499696398 0.244130462143985 -0.22935631191396394 1.5059850734706814 5.871881891564621 -0.22935631191396383 1.5580111844803923 1.259925951216976 6.575582217142262" Properties=species:S:1:pos:R:3:initial_magmoms:R:1:castep_labels:S:1 n_minim_iter=9 pbc="T T T"
P        6.51932137       5.00896101       3.07268186       0.00000000 NULL
P        1.70158294       1.63908541       0.01424707       0.00000000 NULL
P        6.55988657       5.66212079       6.18195595       0.00000000 NULL
P        2.34877426       1.54209770       3.12352115       0.00000000 NULL
P        2.00082317       1.69398852       5.30264041       0.00000000 NULL
P        5.07760572       4.03016567       1.78549299       0.00000000 NULL
P        4.97868027       4.07124870       4.45116800       0.00000000 NULL
P        0.46228844       0.32873106       1.39273321       0.00000000 NULL
P        5.82060484       5.99088945       0.94638982       0.00000000 NULL
P        4.07360417       2.01031800       4.46353725       0.00000000 NULL
