39
Lattice="5.539958717839646 0.0 0.0 0.0 13.298373454375923 -1.9601133467200808e-14 0.0 -6.649186727187944 11.51672924050218" Properties=species:S:1:pos:R:3:initial_magmoms:R:1:castep_labels:S:1:forces:R:3 n_minim_iter=1 energy=-204.854850758915 stress="-0.0008830883103094634 -0.0 0.0 -0.0 0.004568022880911449 -1.1785982493753435e-08 0.0 -1.1785982493753435e-08 0.004568022880911449" free_energy=-204.854850758915 pbc="T T T"
P        4.73941590      -0.30289142       5.38757805       0.00000000 NULL      -0.04323700       0.11746300       0.01013600
P        4.73941590      -1.83196155       9.08525188       0.00000000 NULL      -0.04323700      -0.04995300      -0.10679400
P        4.73941590       2.13485297       8.56062854       0.00000000 NULL      -0.04323700      -0.06751000       0.09665800
P        0.26901581      11.47045352       1.58684168       0.00000000 NULL      -0.16011000      -0.10062300       0.02692000
P        0.26901581       2.28820518       0.78960426       0.00000000 NULL      -0.16010900       0.07362500       0.07368100
P        0.26901581       6.18890149       9.14028330       0.00000000 NULL      -0.16010900       0.02699600      -0.10060100
P        2.56236993       1.57859548       9.32328160       0.00000000 NULL       0.01303800       0.26672900      -0.38879700
P        2.56236993       0.63571424       5.48798465       0.00000000 NULL       0.01303800      -0.47007200      -0.03659600
P        2.56236993      -2.21430973       8.22219223       0.00000000 NULL       0.01303800       0.20334300       0.42539200
P        0.56113596       8.86413006       7.09056080       0.00000000 NULL       0.00942500      -0.04695400       0.07305700
P        0.56113596       8.35772748       0.29488701       0.00000000 NULL       0.00942500       0.08674800       0.00413500
P        0.56113596       2.72570264       4.13128141       0.00000000 NULL       0.00942500      -0.03979300      -0.07719300
P        4.92019835       4.36394415       0.97758699       0.00000000 NULL      -0.02751500      -0.23757200       0.18758100
P        4.92019835       5.31382982       7.24864925       0.00000000 NULL      -0.02751500       0.28123600       0.11195400
P        4.92019835      10.26978621       3.29049300       0.00000000 NULL      -0.02751500      -0.04366400      -0.29953400
P        4.89888712       7.24167442       6.03585559       0.00000000 NULL      -0.15437800      -0.03630300       0.06972400
P        4.89888712       8.25555379       2.22732742       0.00000000 NULL      -0.15437800       0.07853400      -0.00342300
P        4.89888712       4.45033197       3.25354622       0.00000000 NULL      -0.15437800      -0.04223100      -0.06630100
P        2.48484779      -2.64054198      10.48027108       0.00000000 NULL      -0.09384800       0.01449900      -0.36616300
P        2.48484779       3.74726526       8.56337013       0.00000000 NULL      -0.09384800      -0.32435600       0.17052500
P        2.48484779      -1.10672328       3.98981726       0.00000000 NULL      -0.09384800       0.30985700       0.19563800
P        1.29743924      -1.19278343       5.87944740       0.00000000 NULL       0.06794400       0.23524200      -0.22658900
P        1.29743924      -0.96104420       9.60998628       0.00000000 NULL       0.06794400      -0.31385400      -0.09043100
P        1.29743924       2.15382763       7.54402479       0.00000000 NULL       0.06794400       0.07861100       0.31702100
P        1.95921113      10.03993671       0.79847913       0.00000000 NULL       0.24631500       0.03401700      -0.05391600
P        1.95921113       2.32072158       2.42264942       0.00000000 NULL       0.24631400      -0.06370100      -0.00250100
P        1.95921113       7.58690188       8.29560067       0.00000000 NULL       0.24631500       0.02968300       0.05641700
P        6.51959815       5.78900266       5.85486396       0.00000000 NULL       0.25716500       0.10726300       0.04223200
P        6.51959815       8.82514633       3.57587389       0.00000000 NULL       0.25716500      -0.01705800      -0.11400900
P        6.51959815       5.33341120       2.08599138       0.00000000 NULL       0.25716500      -0.09020600       0.07177700
P        1.21205558       4.48902202      10.23975459       0.00000000 NULL       0.09962800      -0.13047400       0.05211100
P        1.21205558      -0.02581013       2.50924483       0.00000000 NULL       0.09962900       0.11036800       0.08694000
P        1.21205558      -4.46321189      10.28445904       0.00000000 NULL       0.09962900       0.02010800      -0.13905000
P       -0.53924941       0.87708031       3.55898739       0.00000000 NULL      -0.13173900      -0.03178800       0.24931600
P       -0.53924941      -4.00555338       8.97766171       0.00000000 NULL      -0.13174000       0.23180800      -0.09712800
P       -0.53924941       3.12847308      10.49680937       0.00000000 NULL      -0.13173900      -0.20002000      -0.15218800
P        3.83507931      12.32104876       0.83133461       0.00000000 NULL      -0.08269000       0.22001700      -0.07766400
P        3.83507931       1.20861924       0.43072070       0.00000000 NULL      -0.08269000      -0.17726500      -0.15170700
P        3.83507931       6.41789218      10.25467392       0.00000000 NULL      -0.08269000      -0.04275200       0.22937200
39
Lattice="5.546670432846065 0.0 0.0 0.0 13.21534491584136 -1.9886226794715975e-14 0.0 -6.607672457920662 11.444824416892157" Properties=species:S:1:pos:R:3:initial_magmoms:R:1:castep_labels:S:1:forces:R:3 n_minim_iter=2 energy=-204.883293161193 stress="-0.0039831743043048365 0.0 -0.0 0.0 -0.0005283466939513509 1.192010409600557e-08 -0.0 1.192010409600557e-08 -0.0005283586140554468" free_energy=-204.883293161193 pbc="T T T"
P        4.74508780      -0.30081169       5.35395693       0.00000000 NULL      -0.04060400       0.03904300       0.12615700
P        4.74508780      -1.82060390       9.02835651       0.00000000 NULL      -0.04060400       0.08973400      -0.09689000
P        4.74508780       2.12141559       8.50733538       0.00000000 NULL      -0.04060400      -0.12877700      -0.02926700
P        0.26908268      11.39867603       1.57697745       0.00000000 NULL      -0.16238600      -0.06518500      -0.04316400
P        0.26908268       2.27403697       0.78479267       0.00000000 NULL      -0.16238700      -0.00478900       0.07803700
P        0.26908268       6.15030437       9.08305429       0.00000000 NULL      -0.16238600       0.06997500      -0.03487000
P        2.56549536       1.56916783       9.26444724       0.00000000 NULL       0.04891300       0.16480700      -0.30048700
P        2.56549536       0.63099029       5.45366159       0.00000000 NULL       0.04891300      -0.34263400       0.00751700
P        2.56549536      -2.20015812       8.17154000       0.00000000 NULL       0.04891300       0.17782600       0.29297100
P        0.56183103       8.80871137       7.04640813       0.00000000 NULL       0.02503200       0.06295300      -0.04305300
P        0.56183103       8.30568522       0.29305252       0.00000000 NULL       0.02503300      -0.06876500      -0.03299000
P        0.56183103       2.70862078       4.10536375       0.00000000 NULL       0.02503200       0.00580800       0.07604600
P        4.92611471       4.33631631       0.97178464       0.00000000 NULL      -0.08266500      -0.19954500       0.09673500
P        4.92611471       5.28110449       7.20357201       0.00000000 NULL      -0.08266500       0.18354800       0.12444400
P        4.92611471      10.20559657       3.26946776       0.00000000 NULL      -0.08266500       0.01599800      -0.22117900
P        4.90457240       7.19640266       5.99828262       0.00000000 NULL      -0.22468500       0.02943300      -0.00506900
P        4.90457240       8.20413626       2.21341558       0.00000000 NULL      -0.22468500      -0.01910700      -0.02295500
P        4.90457240       4.42247845       3.23312620       0.00000000 NULL      -0.22468500      -0.01032600       0.02802400
P        2.48770637      -2.62403245      10.41424939       0.00000000 NULL      -0.04342900       0.01104300      -0.24495500
P        2.48770637       3.72334830       8.51017848       0.00000000 NULL      -0.04342900      -0.21765800       0.11291300
P        2.48770637      -1.09931586       3.96522095       0.00000000 NULL      -0.04342900       0.20661500       0.13204100
P        1.29912103      -1.18495850       5.84237514       0.00000000 NULL       0.01336100       0.17416900      -0.15014500
P        1.29912103      -0.95554792       9.54984101       0.00000000 NULL       0.01336100      -0.21711400      -0.07576200
P        1.29912103       2.14050642       7.49743268       0.00000000 NULL       0.01336100       0.04294500       0.22590700
P        1.96198325       9.97730688       0.79340724       0.00000000 NULL       0.31185000       0.02582600       0.00074000
P        1.96198325       2.30612984       2.40751957       0.00000000 NULL       0.31184900      -0.01227400      -0.02273600
P        1.96198325       7.53958065       8.24389760       0.00000000 NULL       0.31184900      -0.01355300       0.02199700
P        6.52791278       5.75303120       5.81837687       0.00000000 NULL       0.32616800       0.08126400       0.00210800
P        6.52791278       8.77001904       3.55336480       0.00000000 NULL       0.32616800      -0.03880600      -0.07143100
P        6.52791278       5.29996713       2.07308273       0.00000000 NULL       0.32616800      -0.04245800       0.06932300
P        1.21368519       4.46078524      10.17590626       0.00000000 NULL       0.10649100      -0.06949500       0.10603600
P        1.21368519      -0.02547175       2.49371795       0.00000000 NULL       0.10649100       0.12657800       0.00716600
P        1.21368519      -4.43531349      10.22002462       0.00000000 NULL       0.10649200      -0.05708300      -0.11320500
P       -0.54011586       0.87155320       3.53716718       0.00000000 NULL      -0.18191900       0.01227100       0.16150800
P       -0.54011586      -3.98017242       8.92145361       0.00000000 NULL      -0.18191900       0.13373400      -0.09138100
P       -0.54011586       3.10861922      10.43102803       0.00000000 NULL      -0.18192100      -0.14600300      -0.07012900
P        3.83959176      12.24447547       0.82601945       0.00000000 NULL      -0.09612500       0.12623500       0.02558200
P        3.83959176       1.20078855       0.42778787       0.00000000 NULL      -0.09612600      -0.04096700      -0.12211300
P        3.83959176       6.37775335      10.19101709       0.00000000 NULL      -0.09612500      -0.08526800       0.09653100
39
Lattice="5.596723361746872 0.0 0.0 0.0 13.181118571135576 -1.7921835481521904e-14 0.0 -6.590559285567772 11.415183532898265" Properties=species:S:1:pos:R:3:initial_magmoms:R:1:castep_labels:S:1:forces:R:3 n_minim_iter=3 energy=-204.901401065507 stress="0.0006672759618606204 0.0 -0.0 0.0 -7.772140465507118e-05 1.1874928136756486e-08 -0.0 1.1874928136756486e-08 -7.770952972693443e-05" free_energy=-204.901401065507 pbc="T T T"
P        4.78776404      -0.29982659       5.34040786       0.00000000 NULL      -0.02437200       0.01248400       0.18058800
P        4.78776404      -1.81571712       9.00463704       0.00000000 NULL      -0.02437200       0.15015200      -0.10110600
P        4.78776404       2.11554370       8.48532216       0.00000000 NULL      -0.02437200      -0.16263600      -0.07948200
P        0.27095037      11.36890080       1.57281342       0.00000000 NULL      -0.15986800      -0.04763700      -0.09622100
P        0.27095037       2.26820526       0.78301991       0.00000000 NULL      -0.15986800      -0.05951100       0.08936400
P        0.27095037       6.13457179       9.05935019       0.00000000 NULL      -0.15986800       0.10715000       0.00685500
P        2.58878128       1.56575734       9.23935386       0.00000000 NULL       0.07172900       0.16071500      -0.30600100
P        2.58878128       0.62807720       5.43952097       0.00000000 NULL       0.07172900      -0.34536200       0.01381700
P        2.58878128      -2.19383454       8.15149223       0.00000000 NULL       0.07172900       0.18464700       0.29218400
P        0.56697270       8.78600689       7.02812267       0.00000000 NULL       0.02819600       0.06289400      -0.03376200
P        0.56697270       8.28408861       0.29221702       0.00000000 NULL       0.02819600      -0.06068500      -0.03758700
P        0.56697270       2.70158235       4.09484383       0.00000000 NULL       0.02819700      -0.00220800       0.07134900
P        4.97033436       4.32437506       0.96968066       0.00000000 NULL      -0.00762500      -0.16522800       0.09620300
P        4.97033436       5.26813985       7.18532454       0.00000000 NULL      -0.00762500       0.16592900       0.09499000
P        4.97033436      10.17916295       3.26017832       0.00000000 NULL      -0.00762500      -0.00070100      -0.19119400
P        4.94812012       7.17780222       5.98280115       0.00000000 NULL      -0.13251800       0.00746400      -0.01812800
P        4.94812012       8.18291596       2.20762388       0.00000000 NULL      -0.13251800      -0.01943100       0.00260000
P        4.94812012       4.41095967       3.22475849       0.00000000 NULL      -0.13251800       0.01196800       0.01552800
P        2.50995634      -2.61719588      10.38633489       0.00000000 NULL      -0.07425100      -0.00224700      -0.21921500
P        2.50995634       3.71286852       8.48857420       0.00000000 NULL      -0.07425100      -0.18872300       0.11155400
P        2.50995634      -1.09567264       3.95545797       0.00000000 NULL      -0.07425100       0.19096900       0.10766200
P        1.31094304      -1.18124300       5.82666414       0.00000000 NULL      -0.01441900       0.20297000      -0.17049000
P        1.31094304      -0.95389862       9.52483790       0.00000000 NULL      -0.01441900      -0.24913400      -0.09053200
P        1.31094304       2.13514161       7.47886501       0.00000000 NULL      -0.01441900       0.04616300       0.26102200
P        1.98070569       9.95156178       0.79130332       0.00000000 NULL       0.20505700       0.01361300       0.01779700
P        1.98070569       2.30006717       2.40122656       0.00000000 NULL       0.20505800       0.00860600      -0.02068800
P        1.98070569       7.52004891       8.22265364       0.00000000 NULL       0.20505700      -0.02221900       0.00289100
P        6.58788426       5.73843079       5.80335289       0.00000000 NULL       0.19608200       0.11849300       0.06785100
P        6.58788426       8.74719492       3.54388024       0.00000000 NULL       0.19608200      -0.00048600      -0.13654400
P        6.58788426       5.28605214       2.06795040       0.00000000 NULL       0.19608200      -0.11800800       0.06869300
P        1.22499985       4.44893973      10.14985941       0.00000000 NULL       0.05067200      -0.09294600       0.09856000
P        1.22499985      -0.02499305       2.48735900       0.00000000 NULL       0.05067100       0.13182700       0.03121300
P        1.22499985      -4.42394668      10.19314865       0.00000000 NULL       0.05067100      -0.03888300      -0.12977100
P       -0.54557196       0.86929588       3.52863530       0.00000000 NULL      -0.08576600       0.02756700       0.10078600
P       -0.54557196      -3.96931941       8.89803356       0.00000000 NULL      -0.08576600       0.07349900      -0.07426700
P       -0.54557196       3.10002353      10.40369819       0.00000000 NULL      -0.08576500      -0.10106700      -0.02651800
P        3.87391991      12.21327894       0.82386921       0.00000000 NULL      -0.05291800       0.08066600       0.08010700
P        3.87391991       1.19741148       0.42623909       0.00000000 NULL      -0.05291800       0.02903900      -0.10991500
P        3.87391991       6.36098743      10.16507522       0.00000000 NULL      -0.05291800      -0.10970500       0.02980800
39
Lattice="5.561335367894837 0.0 0.0 0.0 13.229973383032865 -1.2632949404335668e-14 0.0 -6.614986691516421 11.457493041098422" Properties=species:S:1:pos:R:3:initial_magmoms:R:1:castep_labels:S:1:forces:R:3 n_minim_iter=4 energy=-204.973231294801 stress="-0.0005721707652311455 -0.0 0.0 -0.0 -0.0001845076933782236 -1.1862395099538614e-08 0.0 -1.1862395099538614e-08 -0.00018449583098312407" free_energy=-204.973231294801 pbc="T T T"
P        4.75441121      -0.29893019       5.37933051       0.00000000 NULL       0.09340400       0.06002200       0.03012300
P        4.75441121      -1.80688472       9.02670892       0.00000000 NULL       0.09340400      -0.00392300      -0.06704200
P        4.75441121       2.10581491       8.50894665       0.00000000 NULL       0.09340400      -0.05609800       0.03691900
P        0.25077973      11.40532846       1.56885690       0.00000000 NULL       0.06856700       0.07235700      -0.03700500
P        0.25077973       2.27099239       0.79576040       0.00000000 NULL       0.06856800      -0.06822600      -0.04416200
P        0.25077973       6.16863922       9.09287573       0.00000000 NULL       0.06856700      -0.00413400       0.08116600
P        2.58022210       1.58989806       9.23913982       0.00000000 NULL       0.02508200      -0.22491000       0.12808800
P        2.58022210       0.59139407       5.46103101       0.00000000 NULL       0.02508200       0.22338200       0.13073400
P        2.58022210      -2.18129214       8.21481524       0.00000000 NULL       0.02508200       0.00152700      -0.25882200
P        0.56654915       8.82538144       7.05049732       0.00000000 NULL       0.03262200      -0.07448400       0.05208800
P        0.56654915       8.30820576       0.28923985       0.00000000 NULL       0.03262100       0.08235300       0.03846000
P        0.56654915       2.71137287       4.11775586       0.00000000 NULL       0.03262200      -0.00786800      -0.09054900
P        4.93692803       4.32121799       0.98428851       0.00000000 NULL       0.08007600      -0.03903400       0.15450900
P        4.93692803       5.30679656       7.22306422       0.00000000 NULL       0.08007600       0.15332500      -0.04345000
P        4.93692803      10.21694553       3.25014029       0.00000000 NULL       0.08007600      -0.11429200      -0.11105800
P        4.90021768       7.20544793       6.00332194       0.00000000 NULL       0.08877900      -0.03220500       0.03548600
P        4.90021768       8.21129204       2.21573112       0.00000000 NULL       0.08877900       0.04683400       0.01014700
P        4.90021768       4.42822011       3.23843997       0.00000000 NULL       0.08877900      -0.01462900      -0.04563300
P        2.48591815      -2.62692662      10.39953488       0.00000000 NULL       0.01054800      -0.18095500       0.14908100
P        2.48591815       3.70473802       8.53271078       0.00000000 NULL       0.01054800       0.21958500       0.08217100
P        2.48591815      -1.07781140       3.98274041       0.00000000 NULL       0.01054800      -0.03863000      -0.23125200
P        1.30157232      -1.16316378       5.82927730       0.00000000 NULL      -0.14986900      -0.19835400       0.15521700
P        1.30157232      -0.98510257       9.55018377       0.00000000 NULL      -0.14986900       0.23359900       0.09417100
P        1.30157232       2.14826635       7.53552500       0.00000000 NULL      -0.14986900      -0.03524400      -0.24938800
P        1.99340608       9.99018981       0.79583455       0.00000000 NULL      -0.01158100      -0.07097200      -0.06654400
P        1.99340608       2.30910472       2.40781760       0.00000000 NULL      -0.01158000      -0.02214200       0.09473500
P        1.99340608       7.54566554       8.25384089       0.00000000 NULL      -0.01158000       0.09311400      -0.02819200
P        6.57079228       5.77245967       5.83151116       0.00000000 NULL      -0.05953100       0.19706300       0.19065900
P        6.57079228       8.77899367       3.54264074       0.00000000 NULL      -0.05953100       0.06658400      -0.26599100
P        6.57079228       5.29350674       2.08334113       0.00000000 NULL      -0.05953100      -0.26364700       0.07533200
P        1.22399011       4.45523560      10.19853922       0.00000000 NULL      -0.12622400      -0.00042000       0.09961400
P        1.22399011      -0.01041044       2.49987621       0.00000000 NULL      -0.12622300       0.08647900      -0.04944200
P        1.22399011      -4.44482516      10.21657064       0.00000000 NULL      -0.12622300      -0.08605700      -0.05017100
P       -0.55346212       0.87526538       3.55420438       0.00000000 NULL       0.05167900       0.04070800       0.10046200
P       -0.55346212      -3.97458809       8.92238879       0.00000000 NULL       0.05167900       0.06664900      -0.08548500
P       -0.55346212       3.09932271      10.43839290       0.00000000 NULL       0.05168000      -0.10735800      -0.01497600
P        3.84265176      12.26854844       0.83480075       0.00000000 NULL      -0.10355500       0.08912600       0.06810800
P        3.84265176       1.20367113       0.41521804       0.00000000 NULL      -0.10355400       0.01442400      -0.11124000
P        3.84265176       6.37274050      10.20747424       0.00000000 NULL      -0.10355500      -0.10355000       0.04313100
39
Lattice="5.563079347055975 0.0 0.0 0.0 13.239917413380425 -1.1526091755314225e-14 0.0 -6.619958706690202 11.466104823995408" Properties=species:S:1:pos:R:3:initial_magmoms:R:1:castep_labels:S:1:forces:R:3 n_minim_iter=5 energy=-205.041011674396 stress="-0.0005869163797937515 -0.0 0.0 -0.0 -0.00020142503150627448 -1.184086952596993e-08 0.0 -1.184086952596993e-08 -0.0002014131906367485" free_energy=-205.041011674396 pbc="T T T"
P        4.76334892      -0.29164557       5.40041683       0.00000000 NULL       0.09262900       0.05764400       0.01516500
P        4.76334892      -1.79723776       9.01846887       0.00000000 NULL       0.09262900      -0.01568900      -0.05750300
P        4.76334892       2.08888332       8.51332394       0.00000000 NULL       0.09262900      -0.04195500       0.04233900
P        0.24446763      11.41705657       1.55895770       0.00000000 NULL       0.09450700       0.14435100      -0.07616500
P        0.24446763       2.26152739       0.79916494       0.00000000 NULL       0.09450800      -0.13813600      -0.08693100
P        0.24446763       6.18129215       9.10798217       0.00000000 NULL       0.09450800      -0.00621700       0.16309500
P        2.58936741       1.58213725       9.23354883       0.00000000 NULL      -0.07196600      -0.16311100       0.08736900
P        2.58936741       0.58546052       5.47915935       0.00000000 NULL      -0.07196600       0.15721900       0.09757400
P        2.58936741      -2.16759777       8.21950146       0.00000000 NULL      -0.07196600       0.00589200      -0.18494300
P        0.57233911       8.82912361       7.05882181       0.00000000 NULL       0.02808700      -0.03928300      -0.02658400
P        0.57233911       8.31851591       0.29044857       0.00000000 NULL       0.02808600      -0.00337800       0.04731000
P        0.57233911       2.71223660       4.11683443       0.00000000 NULL       0.02808600       0.04266300      -0.02072800
P        4.94609073       4.30677469       1.00885221       0.00000000 NULL      -0.02250600      -0.04680700      -0.09764700
P        4.94609073       5.34026301       7.23190242       0.00000000 NULL      -0.02250600      -0.06116100       0.08935900
P        4.94609073      10.21283842       3.22535018       0.00000000 NULL      -0.02250600       0.10796700       0.00828800
P        4.89981496       7.20797339       6.01032494       0.00000000 NULL       0.04086200       0.18884300      -0.00927100
P        4.89981496       8.22106610       2.21865428       0.00000000 NULL       0.04086200      -0.10245000      -0.15890700
P        4.89981496       4.43083663       3.23712559       0.00000000 NULL       0.04086200      -0.08639300       0.16817800
P        2.48138367      -2.64720669      10.40376013       0.00000000 NULL      -0.05553000      -0.06256700       0.06370400
P        2.48138367       3.71356521       8.55677300       0.00000000 NULL      -0.05553000       0.08645300       0.02233300
P        2.48138367      -1.06635852       3.97167651       0.00000000 NULL      -0.05553000      -0.02388600      -0.08603700
P        1.28580027      -1.16716999       5.83500980       0.00000000 NULL       0.01798200      -0.18188000       0.03851100
P        1.28580027      -0.98310699       9.55939878       0.00000000 NULL       0.01798200       0.12429200       0.13825700
P        1.28580027       2.15027698       7.53780106       0.00000000 NULL       0.01798200       0.05758800      -0.17676900
P        2.01000870       9.99175544       0.79088406       0.00000000 NULL      -0.09548500      -0.06017400      -0.02412400
P        2.01000870       2.30900668       2.41754875       0.00000000 NULL      -0.09548500       0.00919600       0.06417400
P        2.01000870       7.55911400       8.25767200       0.00000000 NULL      -0.09548400       0.05097800      -0.04005100
P        6.58322301       5.80629116       5.86060116       0.00000000 NULL       0.10006000       0.12486100       0.10004300
P        6.58322301       8.79224261       3.50740859       0.00000000 NULL       0.10006000       0.02420900      -0.15815400
P        6.58322301       5.26134234       2.09809507       0.00000000 NULL       0.10006000      -0.14907000       0.05811100
P        1.21583926       4.45071761      10.22400958       0.00000000 NULL      -0.13752300       0.03262400       0.01218900
P        1.21583926       0.00893451       2.49966551       0.00000000 NULL      -0.13752200      -0.00575600      -0.03434700
P        1.21583926      -4.45965212      10.20853455       0.00000000 NULL      -0.13752300      -0.02686800       0.02216000
P       -0.55555904       0.88200233       3.57579590       0.00000000 NULL       0.06867900       0.03170400       0.01138600
P       -0.55555904      -3.96422978       8.91437045       0.00000000 NULL       0.06867900      -0.00599100      -0.03314900
P       -0.55555904       3.08222745      10.44204329       0.00000000 NULL       0.06868100      -0.02571300       0.02176400
P        3.82878153      12.29389679       0.84814735       0.00000000 NULL      -0.05979800       0.02507600       0.11912000
P        3.82878153       1.20752746       0.39520421       0.00000000 NULL      -0.05979700       0.09062800      -0.08127900
P        3.82878153       6.35845186      10.22275325       0.00000000 NULL      -0.05979800      -0.11570400      -0.03784200
39
Lattice="5.570623122045652 0.0 0.0 0.0 13.210220373535533 -1.1698502335709933e-14 0.0 -6.605110186767756 11.440386433072533" Properties=species:S:1:pos:R:3:initial_magmoms:R:1:castep_labels:S:1:forces:R:3 n_minim_iter=6 energy=-205.141448776494 stress="-0.0005991412095273023 0.0 0.0 0.0 -0.0005226108708547063 0.0 0.0 0.0 -0.0005226108708547063" free_energy=-205.141448776494 pbc="T T T"
P        4.79026239      -0.27363311       5.41730399       0.00000000 NULL       0.01531800       0.05461800       0.03340600
P        4.79026239      -1.77677076       8.96870765       0.00000000 NULL       0.01531800       0.00162100      -0.06400400
P        4.79026239       2.05040386       8.49476121       0.00000000 NULL       0.01531800      -0.05623900       0.03059800
P        0.24420024      11.41573713       1.52618810       0.00000000 NULL      -0.04857100       0.08446800      -0.06815400
P        0.24420024       2.21895929       0.79097402       0.00000000 NULL      -0.04857100      -0.10125800      -0.03907300
P        0.24420024       6.18063414       9.12322430       0.00000000 NULL      -0.04857100       0.01678800       0.10722900
P        2.59138966       1.55673347       9.19379728       0.00000000 NULL      -0.05702800      -0.04009900       0.03646600
P        2.59138966       0.57858508       5.49531706       0.00000000 NULL      -0.05702800       0.05163000       0.01649400
P        2.59138966      -2.13531855       8.19165852       0.00000000 NULL      -0.05702800      -0.01153100      -0.05295900
P        0.58459234       8.80437271       7.03858165       0.00000000 NULL       0.02107100       0.14256900      -0.15085000
P        0.58459234       8.29851435       0.29628518       0.00000000 NULL       0.02107200      -0.20192600      -0.04804100
P        0.58459234       2.71244350       4.10551960       0.00000000 NULL       0.02107100       0.05935500       0.19889300
P        4.95428182       4.26230156       1.01449149       0.00000000 NULL       0.15217700       0.06553000       0.04603600
P        4.95428182       5.35253481       7.24187925       0.00000000 NULL       0.15217700       0.00710300      -0.07976800
P        4.95428182      10.20049418       3.18401568       0.00000000 NULL       0.15217700      -0.07263300       0.03373200
P        4.90248375       7.22395037       5.99601562       0.00000000 NULL       0.15799800      -0.02149200       0.01840300
P        4.90248375       8.18583686       2.18625408       0.00000000 NULL       0.15799800       0.02668300       0.00941200
P        4.90248375       4.40554333       3.25811672       0.00000000 NULL       0.15799800      -0.00519100      -0.02781400
P        2.46376608      -2.66583849      10.37046310       0.00000000 NULL       0.02498900      -0.00688300       0.03635500
P        2.46376608       3.70889355       8.56383873       0.00000000 NULL       0.02498900       0.03492700      -0.01221700
P        2.46376608      -1.04305506       3.94647102       0.00000000 NULL       0.02498900      -0.02804300      -0.02413900