14
Lattice="4.292977821345812 -0.3652950253680021 -0.20027553133049286 -1.4519955844750527 5.540857610345938 0.9554255163536955 -0.5114900047807173 -0.504005723544238 12.28038327312953" Properties=species:S:1:pos:R:3:initial_magmoms:R:1:castep_labels:S:1:forces:R:3 n_minim_iter=1 energy=-75.59564554282 stress="0.0005387129765993121 -0.0004550919618065174 -0.0004986264343142196 -0.0004550919618065174 0.0007677739571458387 0.0001257275566022444 -0.0004986264343142196 0.0001257275566022444 0.0026590159256144478" free_energy=-75.59564554282 pbc="T T T"
P       -0.71273612       5.07226936       6.92836519       0.00000000 NULL       0.06596200      -0.01106300       0.05647400
P        0.89887679       2.90274407      11.48423907       0.00000000 NULL       0.00218700       0.10243000       0.03249800
P       -1.67551767       3.65407261       3.53776021       0.00000000 NULL      -0.02570100       0.07040600      -0.06983400
P        2.41078870       1.02674829       6.25776069       0.00000000 NULL       0.03124700       0.00742500      -0.00426800
P        0.53260999       0.86246639      10.63821647       0.00000000 NULL      -0.12660500       0.03048400      -0.14826700
P        2.26380377       5.28401033       8.51299426       0.00000000 NULL       0.06201600      -0.05742000       0.00272600
P       -0.47056867       0.93501227       4.71643874       0.00000000 NULL      -0.06093500       0.05454200       0.01072700
P        0.72793267       1.77762676       8.57287261       0.00000000 NULL      -0.02465700      -0.10403900       0.03681700
P        2.18470128       0.33378313       1.55046120       0.00000000 NULL      -0.02807400      -0.05190100      -0.04949500
P        3.51918569       2.21603024       9.81681395       0.00000000 NULL       0.10849900      -0.05607200       0.05076600
P       -0.01510722       2.90221666       0.84195673       0.00000000 NULL       0.00392300      -0.00789500       0.05299500
P        1.16466354       4.66454131       4.32160095       0.00000000 NULL       0.05993700      -0.05651800      -0.09962300
P        1.07070305       1.95364890       2.49539347       0.00000000 NULL      -0.07280300       0.05976900      -0.03452400
P       -0.98059880       4.70713541       1.66456743       0.00000000 NULL       0.00500500       0.01985200       0.16300800
14
Lattice="4.290632196644729 -0.36323993940953525 -0.19780431667814813 -1.4485574863018786 5.536277286803103 0.9518255343573407 -0.5058830034695102 -0.5052673885612221 12.250525210500902" Properties=species:S:1:pos:R:3:initial_magmoms:R:1:castep_labels:S:1:forces:R:3 n_minim_iter=2 energy=-75.597144969713 stress="-0.0011823726311933661 -9.926798925678187e-06 -0.00010922974169980399 -9.926798925678187e-06 -0.000747795550056194 -6.7984591233958e-05 -0.00010922974169980399 -6.7984591233958e-05 -0.00010835590376620555" free_energy=-75.597144969713 pbc="T T T"
P       -0.70693848       5.06760548       6.91089477       0.00000000 NULL       0.08923400      -0.03910400       0.03830700
P        0.90484922       2.90010202      11.45665835       0.00000000 NULL       0.03043000       0.12480000       0.02986500
P       -1.67166229       3.65064586       3.52781149       0.00000000 NULL      -0.01517800       0.04609600      -0.04513100
P        2.41296716       1.02633821       6.24359640       0.00000000 NULL       0.01086700       0.03185100       0.00393700
P        0.53712553       0.86096640      10.61217589       0.00000000 NULL      -0.11470700      -0.01562300      -0.11132800
P        2.26893594       5.28010295       8.49284823       0.00000000 NULL       0.04979900      -0.07564700       0.04000500
P       -0.46800671       0.93379863       4.70475212       0.00000000 NULL      -0.04818900       0.06840400      -0.02194000
P        0.73211850       1.77537812       8.55239385       0.00000000 NULL       0.00335000      -0.09236100      -0.01305600
P        2.18438241       0.33411291       1.54750884       0.00000000 NULL      -0.02045700      -0.04836400      -0.08030400
P        3.52317090       2.21464092       9.79458749       0.00000000 NULL       0.06025900      -0.02595800       0.05209100
P       -0.01350442       2.90006211       0.83975100       0.00000000 NULL      -0.01676500      -0.01973100       0.04750700
P        1.16817177       4.66109302       4.31083522       0.00000000 NULL       0.04694400      -0.06019800      -0.06897800
P        1.07188726       1.95263189       2.48951453       0.00000000 NULL      -0.07332200       0.06082900      -0.00659700
P       -0.97739934       4.70331444       1.66007761       0.00000000 NULL      -0.00226600       0.04500500       0.13562300
14
Lattice="4.3029146439161075 -0.3618805858074646 -0.19410793896877937 -1.44961675654118 5.543826292424195 0.9491563267480984 -0.4981527437919555 -0.505220412927685 12.22427741794563" Properties=species:S:1:pos:R:3:initial_magmoms:R:1:castep_labels:S:1:forces:R:3 n_minim_iter=3 energy=-75.598818269806 stress="0.0006315629329426928 0.0003130961906106845 0.0006302028581561238 0.0003130961906106845 0.000741798738079736 0.0003297309514617979 0.0006302028581561238 0.0003297309514617979 -0.000452381798240343" free_energy=-75.598818269806 pbc="T T T"
P       -0.70032217       5.07486039       6.89676639       0.00000000 NULL       0.09139600       0.00441600       0.02079600
P        0.91794033       2.90729036      11.43385384       0.00000000 NULL       0.00747000       0.08499500       0.00321400
P       -1.67246527       3.65623461       3.51871260       0.00000000 NULL      -0.04497400       0.03117600      -0.03438600
P        2.42552828       1.02977769       6.23241050       0.00000000 NULL       0.00282100      -0.00815600       0.01068700
P        0.54569427       0.86328143      10.58870779       0.00000000 NULL      -0.11501600       0.01254500      -0.06400500
P        2.28518907       5.28860600       8.47754539       0.00000000 NULL       0.04961600      -0.04298700       0.04373700
P       -0.46602205       0.93621258       4.69436545       0.00000000 NULL      -0.04389100       0.02883000      -0.03945200
P        0.74160084       1.77774781       8.53506644       0.00000000 NULL      -0.00679700      -0.09649600      -0.04405900
P        2.19183715       0.33504756       1.54499633       0.00000000 NULL      -0.05762000      -0.04446000      -0.08796600
P        3.54300217       2.21982351       9.77753099       0.00000000 NULL       0.07408300      -0.02809600       0.06292500
P       -0.01176512       2.90415116       0.83885317       0.00000000 NULL      -0.02069500      -0.00453400       0.05074400
P        1.17765815       4.66801290       4.30202724       0.00000000 NULL       0.06242400      -0.03562300      -0.04457600
P        1.07684585       1.95698046       2.48507808       0.00000000 NULL      -0.02067300       0.06006500       0.00975600
P       -0.97690323       4.71042879       1.65808848       0.00000000 NULL       0.02185500       0.03832500       0.11258600
14
Lattice="4.311853155302074 -0.3649796340764646 -0.20157111419996246 -1.4591018711845776 5.537800448482722 0.9429768215731605 -0.5220602652809673 -0.522247520922051 12.215520141320379" Properties=species:S:1:pos:R:3:initial_magmoms:R:1:castep_labels:S:1:forces:R:3 n_minim_iter=4 energy=-75.601549629157 stress="0.0007814236611150509 -0.0006729303773319061 -0.0008301427602616446 -0.0006729303773319061 0.00013569507142404888 -0.00026661239296757997 -0.0008301427602616446 -0.00026661239296757997 -0.0009001350523068942" free_energy=-75.601549629157 pbc="T T T"
P       -0.71591171       5.05927589       6.88604419       0.00000000 NULL       0.03175700       0.02286100      -0.00494100
P        0.89591343       2.89063518      11.41879738       0.00000000 NULL       0.00055900       0.06416900       0.05581100
P       -1.68679381       3.65028815       3.51184075       0.00000000 NULL      -0.02176500       0.03556300      -0.00284400
P        2.41772417       1.01781646       6.22120825       0.00000000 NULL       0.03985200      -0.02109900       0.02243000
P        0.52114564       0.84639057      10.57368629       0.00000000 NULL      -0.08274600      -0.01200800      -0.01526200
P        2.27068743       5.26618850       8.45966828       0.00000000 NULL       0.03197800      -0.06196500      -0.02507600
P       -0.47860411       0.93063495       4.68887079       0.00000000 NULL      -0.01528400       0.02408700       0.02451500
P        0.72493678       1.75890605       8.52297294       0.00000000 NULL      -0.00054500      -0.04375800      -0.01825000
P        2.19129933       0.32866160       1.53593693       0.00000000 NULL      -0.04700200       0.01166600      -0.04497900
P        3.53195618       2.19876418       9.76140932       0.00000000 NULL       0.03548600      -0.01299800       0.00667800
P       -0.01658276       2.89938097       0.83582839       0.00000000 NULL      -0.01380600       0.01773300      -0.01151100
P        1.16973703       4.65377563       4.28688832       0.00000000 NULL       0.04346800      -0.02544200      -0.04659400
P        1.07046676       1.95265196       2.47793672       0.00000000 NULL       0.00532100      -0.00024600       0.00549000
P       -0.98573860       4.70534670       1.65661378       0.00000000 NULL      -0.00727300       0.00143600       0.05453500
14
Lattice="4.3066277929068 -0.35813009313333444 -0.19685266008111563 -1.4482527839232906 5.528718740445982 0.9422015302188256 -0.5076164801039146 -0.5255699224381544 12.245756327905545" Properties=species:S:1:pos:R:3:initial_magmoms:R:1:castep_labels:S:1:forces:R:3 n_minim_iter=5 energy=-75.603653819456 stress="0.0002864132746688099 0.0003259149472433396 -8.26292709634911e-06 0.0003259149472433396 -0.00028989974179807114 -0.0003412205379407964 -8.26292709634911e-06 -0.0003412205379407964 0.0001572396675296814" free_energy=-75.603653819456 pbc="T T T"
P       -0.69639062       5.05008916       6.90214202       0.00000000 NULL       0.02547400       0.02642200      -0.02587500
P        0.91352630       2.88935110      11.44901818       0.00000000 NULL      -0.02877200       0.00887700       0.03276400
P       -1.67656552       3.64414900       3.51641261       0.00000000 NULL       0.01557900      -0.02242600      -0.01832900
P        2.42496686       1.01862665       6.23990840       0.00000000 NULL       0.02937200      -0.02283200       0.03125000
P        0.53011513       0.84330685      10.59769328       0.00000000 NULL      -0.02477400      -0.02930400       0.00780600
P        2.28822957       5.25850266       8.48314841       0.00000000 NULL       0.02184400      -0.04927800      -0.04884200
P       -0.47270714       0.92932910       4.69935285       0.00000000 NULL      -0.00417800      -0.01393800       0.03459900
P        0.73689662       1.75227116       8.54399166       0.00000000 NULL       0.01915300      -0.04797900      -0.00266100
P        2.18968582       0.32982196       1.53942279       0.00000000 NULL      -0.02245700       0.01707900      -0.00648500
P        3.54588402       2.19771824       9.79137926       0.00000000 NULL      -0.02061200       0.05814500       0.01411400
P       -0.01190652       2.89548947       0.83852014       0.00000000 NULL       0.00742100       0.01142600      -0.03010100
P        1.18274771       4.64702197       4.29551959       0.00000000 NULL       0.00701700       0.04396700      -0.01954500
P        1.07380442       1.95303030       2.48492993       0.00000000 NULL       0.00254700       0.00732200      -0.00107800
P       -0.97554944       4.69896369       1.66285623       0.00000000 NULL      -0.02761300       0.01251900       0.03238200
14
Lattice="4.302080408736001 -0.3616423350966533 -0.19620864921653175 -1.4503948626952388 5.534196145318332 0.9474242403713489 -0.5037480573506016 -0.513423720762995 12.246581561926925" Properties=species:S:1:pos:R:3:initial_magmoms:R:1:castep_labels:S:1:forces:R:3 n_minim_iter=6 energy=-75.604086413705 stress="-0.000228200189760207 -9.200551743656213e-05 -2.3716357792593724e-05 -9.200551743656213e-05 0.00012758005412545273 0.00018317398695103272 -2.3716357792593724e-05 0.00018317398695103272 1.2625472824880777e-05" free_energy=-75.604086413705 pbc="T T T"
P       -0.69669136       5.06085777       6.90769496       0.00000000 NULL       0.01358700       0.02553700      -0.02393900
P        0.91298300       2.90274977      11.45404287       0.00000000 NULL      -0.01468300      -0.01099500       0.01124300
P       -1.67656001       3.65124636       3.51956346       0.00000000 NULL       0.00802300      -0.02534200       0.00245200
P        2.42351939       1.02347949       6.24265979       0.00000000 NULL       0.03687700      -0.01824800       0.02795200
P        0.53026763       0.85361511      10.59938648       0.00000000 NULL      -0.02429400      -0.00956200       0.03093400
P        2.28458743       5.26755010       8.48955118       0.00000000 NULL       0.01458100      -0.05102400      -0.03766300
P       -0.47210584       0.93511718       4.70097862       0.00000000 NULL       0.00368800      -0.01881800       0.02032700
P        0.73704701       1.76009464       8.54670741       0.00000000 NULL       0.01948100      -0.03622300      -0.00503700
P        2.18680263       0.32990021       1.53977342       0.00000000 NULL      -0.01504500       0.04185700       0.00443300
P        3.54304502       2.20665848       9.79607720       0.00000000 NULL      -0.01929200       0.05047300       0.00016000
P       -0.01382686       2.89825666       0.84143292       0.00000000 NULL      -0.01467400       0.02977400      -0.01235300
P        1.17966088       4.65347951       4.30020212       0.00000000 NULL       0.00768300       0.04075600      -0.01236500
P        1.07154628       1.95641108       2.48739741       0.00000000 NULL       0.00532900      -0.01822400      -0.00846300
P       -0.97769815       4.70466980       1.66872418       0.00000000 NULL      -0.02126100       0.00003800       0.00231900
14
Lattice="4.30670414554099 -0.3634317762660721 -0.1924042993815935 -1.4543390726484493 5.527159881579049 0.940592739486211 -0.4940464026955085 -0.5258076498957378 12.251160296315021" Properties=species:S:1:pos:R:3:initial_magmoms:R:1:castep_labels:S:1:forces:R:3 n_minim_iter=7 energy=-75.605427234524 stress="7.525046926692076e-05 -0.0006060138579192845 0.0005862771732088688 -0.0006060138579192845 -0.00023255114899958045 -0.0003286541579428768 0.0005862771732088688 -0.0003286541579428768 6.241813715838191e-05" free_energy=-75.605427234524 pbc="T T T"
P       -0.69087249       5.05032608       6.90191784       0.00000000 NULL       0.00311200      -0.01411400      -0.05556600
P        0.91973892       2.88798138      11.45844385       0.00000000 NULL      -0.01375600      -0.01355400      -0.01799900
P       -1.67716796       3.64211157       3.51429624       0.00000000 NULL      -0.00032900      -0.00914100       0.02460600
P        2.43493783       1.01184458       6.24932343       0.00000000 NULL       0.03361400       0.00293200       0.03749800
P        0.53341306       0.83895816      10.60363873       0.00000000 NULL      -0.04268100       0.02997700       0.00534600
P        2.29396370       5.24337352       8.48473450       0.00000000 NULL      -0.00029400      -0.04338200      -0.01054200
P       -0.47016959       0.92818880       4.70368394       0.00000000 NULL       0.04219200       0.00915900       0.00892200
P        0.74586794       1.74164523       8.54741380       0.00000000 NULL      -0.01255900      -0.01146000       0.05958000
P        2.18711634       0.32963808       1.54000749       0.00000000 NULL       0.02141500       0.01350300       0.00724200
P        3.55287247       2.19657432       9.80170743       0.00000000 NULL       0.04076000       0.00366800      -0.02088500
P       -0.01613731       2.89641742       0.83742634       0.00000000 NULL      -0.00389900      -0.00581000       0.02399400
P        1.18395445       4.64605306       4.29462212       0.00000000 NULL      -0.00967700       0.01951600      -0.02140500
P        1.07328640       1.95064762       2.48638767       0.00000000 NULL      -0.04166600       0.02001600      -0.01882600
P       -0.98253833       4.69877766       1.66743688       0.00000000 NULL      -0.01623100      -0.00130900      -0.02196500
14
Lattice="4.308163848523236 -0.35743250414078886 -0.19797951054672758 -1.4483591233043083 5.524866885001699 0.9441602188713951 -0.5105744479342067 -0.522702242889567 12.25189478214095" Properties=species:S:1:pos:R:3:initial_magmoms:R:1:castep_labels:S:1:forces:R:3 n_minim_iter=8 energy=-75.606295412048 stress="0.00020692487065618684 8.184966244958333e-05 -8.554474942558667e-05 8.184966244958333e-05 -0.00027012480167028165 0.0002396577637738013 -8.554474942558667e-05 0.0002396577637738013 -1.722049968061932e-05" free_energy=-75.606295412048 pbc="T T T"
P       -0.69033752       5.05264631       6.90248806       0.00000000 NULL       0.03138600      -0.04010800      -0.04093200
P        0.90823548       2.89347300      11.45994574       0.00000000 NULL      -0.01150800      -0.04104400      -0.01585600
P       -1.67693607       3.63924775       3.51709027       0.00000000 NULL       0.00092900      -0.00348000       0.02777400
P        2.43252625       1.01567010       6.24935603       0.00000000 NULL      -0.00477700       0.01849700       0.01321800
P        0.51731467       0.84201864      10.60410769       0.00000000 NULL      -0.02215800       0.04124500       0.01748800
P        2.29340813       5.24362382       8.48092635       0.00000000 NULL       0.03878000      -0.04642700       0.02648100
P       -0.47513805       0.92836339       4.70630865       0.00000000 NULL       0.02582400       0.03771100      -0.01279400
P        0.73895117       1.74079234       8.54712154       0.00000000 NULL      -0.04987900      -0.01178300       0.09152700
P        2.18475105       0.33523804       1.53634027       0.00000000 NULL       0.02038500       0.00102900      -0.00885400
P        3.54492370       2.20777128       9.79891631       0.00000000 NULL       0.03635100       0.00208500      -0.07026700
P       -0.01402138       2.89799830       0.83785851       0.00000000 NULL      -0.00997200       0.00535800       0.00785000
P        1.18680607       4.65112885       4.29247440       0.00000000 NULL       0.00021300      -0.00058500      -0.00649100
P        1.07266753       1.95290111       2.48506695       0.00000000 NULL      -0.03453800       0.03658600       0.00379800
P       -0.98021223       4.69818675       1.67250318       0.00000000 NULL      -0.02103600       0.00091500      -0.03294300
14
Lattice="4.301083928181656 -0.3542234754014848 -0.20040579019999896 -1.4417577898669796 5.537847943329398 0.9334490107933425 -0.5193307143875384 -0.5509854879196852 12.254555993210975" Properties=species:S:1:pos:R:3:initial_magmoms:R:1:castep_labels:S:1:forces:R:3 n_minim_iter=9 energy=-75.607487430536 stress="-0.00035662317464687967 0.00015013330915099972 -0.00010954544954746026 0.00015013330915099972 0.0007827608909989637 -0.00038499290498726104 -0.00010954544954746026 -0.00038499290498726104 -0.00011285235063008139" free_energy=-75.607487430536 pbc="T T T"
P       -0.68530981       5.05286164       6.88857272       0.00000000 NULL       0.03895400      -0.03573600      -0.05272400
P        0.89863838       2.87796146      11.45558299       0.00000000 NULL       0.01763700      -0.06062400       0.00845400
P       -1.67317188       3.63914412       3.51118618       0.00000000 NULL       0.01921600       0.03607200       0.00270800
P        2.42888330       1.00627141       6.25001341       0.00000000 NULL      -0.01646900      -0.00268300       0.02196000
P        0.50327564       0.82261998      10.60446376       0.00000000 NULL      -0.02196800       0.08100900       0.00758900
P        2.29221598       5.23450269       8.46618535       0.00000000 NULL       0.03237900      -0.01034700       0.02853300
P       -0.47616763       0.92131110       4.70681591       0.00000000 NULL       0.04225100       0.02758600      -0.00730700
P        0.73270179       1.72202333       8.54703163       0.00000000 NULL      -0.03920200      -0.04214600       0.08942500
P        2.17889919       0.33773372       1.53247878       0.00000000 NULL       0.03439400      -0.03617000       0.01130900
P        3.53532721       2.20114089       9.79090605       0.00000000 NULL      -0.00821400      -0.00828100      -0.08079000
P       -0.01353553       2.90711080       0.83132765       0.00000000 NULL      -0.01196100       0.00961800       0.00597600
P        1.18764687       4.66012938       4.27889106       0.00000000 NULL      -0.01982700       0.02088700      -0.01876700
P        1.06872971       1.95590099       2.47963145       0.00000000 NULL      -0.04217100       0.05313500       0.00007300
P       -0.97879159       4.70859233       1.66512625       0.00000000 NULL      -0.02501800      -0.03232000      -0.01643800
14
Lattice="4.303622310808516 -0.35009691460042397 -0.2052540643886226 -1.4394419944606702 5.527444877264793 0.9294297780046298 -0.5340532238924174 -0.5681802028415167 12.28448760721491" Properties=species:S:1:pos:R:3:initial_magmoms:R:1:castep_labels:S:1:forces:R:3 n_minim_iter=10 energy=-75.611922836813 stress="0.00038633215159118413 -8.07074454336239e-05 4.41770728450198e-05 -8.07074454336239e-05 0.0002765672451831806 2.4156621264585963e-05 4.41770728450198e-05 2.4156621264585963e-05 0.00019617261930550097" free_energy=-75.611922836813 pbc="T T T"
P       -0.66932872       5.03608448       6.87806614       0.00000000 NULL       0.01030300      -0.04571600       0.00363700
P        0.88039398       2.85332639      11.48357418       0.00000000 NULL       0.07982700       0.02717300       0.01143200
P       -1.67248604       3.62253645       3.51760015       0.00000000 NULL      -0.01223000       0.09720400      -0.00574700
P        2.43894676       0.99290972       6.27798316       0.00000000 NULL       0.00775400      -0.04138900      -0.01208300
P        0.46643901       0.81302626      10.63408792       0.00000000 NULL      -0.02979100      -0.07730400       0.07581900
P        2.30610658       5.18226289       8.46716532       0.00000000 NULL       0.01985600       0.01252700      -0.00630700
P       -0.47504151       0.91740426       4.72347559       0.00000000 NULL       0.02677600       0.07209200       0.00167400
P        0.72123360       1.68028578       8.58268530       0.00000000 NULL       0.04157900      -0.02003700      -0.03896500
P        2.17478918       0.34599953       1.52712312       0.00000000 NULL      -0.01166900      -0.03959900       0.00625200
P        3.53282299       2.20524540       9.79537674       0.00000000 NULL      -0.10468300       0.02753700      -0.07290900
P       -0.01907429       2.91180272       0.82786430       0.00000000 NULL      -0.03009400      -0.01997200       0.00909500
P        1.19277444       4.66336326       4.26720859       0.00000000 NULL      -0.00409800      -0.00852600       0.03045000
P        1.05694089       1.95999976       2.47864076       0.00000000 NULL      -0.01381100       0.01089300       0.01029100
P       -0.99186752       4.70073989       1.66988554       0.00000000 NULL       0.02028100       0.00511600      -0.01264000
14
Lattice="4.295699426495435 -0.34069575293359783 -0.21549663016307183 -1.4279586787185699 5.52001536865776 0.9204576376307828 -0.5658751488566837 -0.5971757253065348 12.286732008068682" Properties=species:S:1:pos:R:3:initial_magmoms:R:1:castep_labels:S:1:forces:R:3 n_minim_iter=11 energy=-75.615439897631 stress="0.0006231291213874087 -5.685395684599157e-05 -4.330237031836245e-05 -5.685395684599157e-05 0.0008168924228441521 -0.00019888433801088594 -4.330237031836245e-05 -0.00019888433801088594 0.0005127307211147695" free_energy=-75.615439897631 pbc="T T T"
P       -0.65390486       5.01071995       6.84860005       0.00000000 NULL      -0.01576500      -0.03503300       0.01749000
P        0.85826136       2.82684019      11.48200390       0.00000000 NULL      -0.08417600      -0.04004000      -0.05329400
P       -1.66923644       3.61682463       3.51431588       0.00000000 NULL      -0.00980000       0.05040600      -0.01836200
P        2.43589107       0.97381318       6.28493307       0.00000000 NULL      -0.00136100      -0.04507100      -0.02591800
P        0.41098347       0.78421093      10.64754947       0.00000000 NULL      -0.08086600       0.07258600       0.00393900
P        2.31118662       5.13250170       8.44008126       0.00000000 NULL       0.01951100       0.00476600      -0.01280300
P       -0.47475194       0.91984845       4.72856869       0.00000000 NULL       0.00932000       0.04677600       0.00088600
P        0.70361001       1.63193178       8.59049706       0.00000000 NULL       0.02146400      -0.02789900       0.00785800
P        2.16293469       0.35088228       1.51557742       0.00000000 NULL      -0.03916700       0.03282500       0.01024200
P        3.49606877       2.21177530       9.75988893       0.00000000 NULL       0.10364300      -0.07692300       0.04577100
P       -0.02610187       2.91554682       0.82112987       0.00000000 NULL       0.00175100      -0.02486900      -0.10941800
P        1.19386136       4.66766680       4.24411286       0.00000000 NULL      -0.00447600       0.03272500       0.11230400
P        1.03921666       1.96653588       2.47005691       0.00000000 NULL       0.06954000      -0.04015500       0.04335500
P       -0.99651027       4.69611855       1.66590739       0.00000000 NULL       0.01038100       0.04990600      -0.02205000
14
Lattice="4.298114440471139 -0.33392245504789336 -0.2240597198613529 -1.422808618435315 5.509778227622779 0.9204914718092337 -0.592448593407582 -0.601194245871125 12.272730284568404" Properties=species:S:1:pos:R:3:initial_magmoms:R:1:castep_labels:S:1:forces:R:3 n_minim_iter=12 energy=-75.620552935506 stress="0.0012172307155034392 -0.00020206302180669135 -0.00013266058791731636 -0.00020206302180669135 0.0012984678702622802 -0.0002517409209136232 -0.00013266058791731636 -0.0002517409209136232 0.0008647724798157483" free_energy=-75.620552935506 pbc="T T T"
P       -0.64293062       4.98803663       6.82464506       0.00000000 NULL      -0.04200600       0.03114100       0.00370400
P        0.83392655       2.81675326      11.46509249       0.00000000 NULL      -0.06404100       0.00335500      -0.04847900
P       -1.67129180       3.62051552       3.51176790       0.00000000 NULL      -0.02831300       0.02269600      -0.01612400
P        2.43964317       0.96151925       6.28246437       0.00000000 NULL      -0.01503900      -0.05078900      -0.01251100
P        0.35446563       0.77947178      10.65137553       0.00000000 NULL      -0.04484900       0.01683200      -0.04849300
P        2.32348362       5.09448882       8.41408211       0.00000000 NULL       0.00988800       0.00833800       0.00179600
P       -0.47316669       0.93764199       4.72792795       0.00000000 NULL       0.01077300      -0.02173100       0.01918700
P        0.69510891       1.59846580       8.58943210       0.00000000 NULL       0.00733900      -0.03806300       0.03131100
P        2.15309608       0.36140596       1.50480595       0.00000000 NULL      -0.00813300       0.02142400       0.03658500
P        3.48146176       2.22444299       9.72487415       0.00000000 NULL       0.09850900      -0.07721000       0.00473500
P       -0.03461873       2.91381101       0.80628330       0.00000000 NULL      -0.01511300       0.00978900       0.03096400
P        1.19574278       4.67662687       4.24145352       0.00000000 NULL       0.01821700       0.02762300       0.05849900
P        1.03243136       1.96887591       2.46879192       0.00000000 NULL       0.05488800       0.05072300      -0.01197400
P       -1.00339345       4.69833124       1.66418768       0.00000000 NULL       0.01788100      -0.00412900      -0.04920000
14
Lattice="4.301727324895166 -0.33391107425735445 -0.22405017922954817 -1.4245991181466593 5.500280981042131 0.9252670871970563 -0.592220788826113 -0.5875746184613689 12.261442363025141" Properties=species:S:1:pos:R:3:initial_magmoms:R:1:castep_labels:S:1:forces:R:3 n_minim_iter=13 energy=-75.623538245162 stress="0.0014959456333327105 -0.00024359355088102966 -0.00010038964546647834 -0.00024359355088102966 0.0013833133481751983 -0.00013942617659560373 -0.00010038964546647834 -0.00013942617659560373 0.0008578592526360214" free_energy=-75.623538245162 pbc="T T T"
P       -0.63678592       4.98069095       6.81439731       0.00000000 NULL      -0.02692300       0.01161800       0.00823100
P        0.82883216       2.82608752      11.45226606       0.00000000 NULL      -0.09461000      -0.06898900      -0.01724500
P       -1.67510978       3.62436809       3.51193129       0.00000000 NULL      -0.01682300       0.06389100      -0.00438000
P        2.44802522       0.95455769       6.28382191       0.00000000 NULL       0.01670600      -0.03263900       0.01649200
P        0.33074093       0.77949459      10.65039913       0.00000000 NULL      -0.01520500       0.08809200      -0.02401000
P        2.33916769       5.07107289       8.40872283       0.00000000 NULL      -0.03858800       0.02099000       0.00726300
P       -0.46553558       0.95105412       4.72908851       0.00000000 NULL       0.00691000      -0.00444600       0.00648300
P        0.70380462       1.58167804       8.59196156       0.00000000 NULL       0.00331600      -0.03678300       0.01899700
P        2.15128731       0.37064956       1.50536977       0.00000000 NULL      -0.01816500      -0.00829200       0.03829000
P        3.48927814       2.23526964       9.70672719       0.00000000 NULL       0.07852200      -0.09028000      -0.00906800