12
Lattice="5.621860602265564 -0.7451676881535166 -1.2255830099869292 1.9523109413140336 4.635010628667567 -0.8808738614068131 -0.5030391872123594 0.06333727434014697 8.706962810814115" Properties=species:S:1:pos:R:3:initial_magmoms:R:1:castep_labels:S:1:forces:R:3 n_minim_iter=1 energy=-63.884833838602 stress="0.0023591467913557387 -0.0014541990696729445 0.0007925691455179247 -0.0014541990696729445 0.003949781401015152 0.0008732804705362603 0.0007925691455179247 0.0008732804705362603 0.0028465856945178083" free_energy=-63.884833838602 pbc="T T T"
P        7.30072832       3.50150015       1.67404544       0.00000000 NULL       0.09261600      -0.08754100       0.01632300
P        7.72144294       3.49898838      -0.50496629       0.00000000 NULL       0.15347900      -0.01945500      -0.07533200
P        3.83904079       1.37089178       6.83106137       0.00000000 NULL       0.12055800       0.01900000       0.15721100
P       -0.24825308       1.51322771       6.58947152       0.00000000 NULL       0.00348600       0.01180600      -0.04567300
P        5.78448319       1.00810990      -0.20489327       0.00000000 NULL       0.03012000       0.00658800      -0.05573500
P        4.65332216       4.07549329       6.05885937       0.00000000 NULL      -0.08914300      -0.13556300       0.08758000
P        5.19658961       2.36602398       1.47568689       0.00000000 NULL      -0.04421600      -0.08265600      -0.08153300
P        2.69065402       2.44677467       3.85088867       0.00000000 NULL      -0.01820500       0.11332900      -0.14082300
P        6.19019901       2.78796811       4.99776906       0.00000000 NULL       0.00619700      -0.03418400       0.03624300
P        4.28772369       4.03222608       0.30910425       0.00000000 NULL      -0.12948100       0.16319700       0.02941200
P        3.28675392       1.23019495       2.11074950       0.00000000 NULL      -0.05719300       0.07982700       0.13026300
P        4.52501391       3.76066737       3.86800162       0.00000000 NULL      -0.06821800      -0.03434800      -0.05793600
12
Lattice="5.6099981601957305 -0.7343660547178764 -1.2258636123486457 1.95481723458691 4.6219781006741965 -0.8836090783867895 -0.5080256603912718 0.05572891962619233 8.685281715605779" Properties=species:S:1:pos:R:3:initial_magmoms:R:1:castep_labels:S:1:forces:R:3 n_minim_iter=2 energy=-63.889356077574 stress="-0.0011959628092340165 -0.0010436648864528796 0.0005753903329478219 -0.0010436648864528796 -0.0004114132523603509 0.0004974724480208926 0.0005753903329478219 0.0004974724480208926 -0.0008930719502128132" free_energy=-63.889356077574 pbc="T T T"
P        7.28913307       3.49702372       1.66203751       0.00000000 NULL       0.06706200      -0.01988700       0.04566300
P        7.71072456       3.49700459      -0.51210961       0.00000000 NULL       0.13035600      -0.05874000      -0.09726800
P        3.82842350       1.36582281       6.81064141       0.00000000 NULL       0.06239100       0.07865100       0.15296100
P       -0.25040271       1.50255384       6.57166490       0.00000000 NULL       0.03259900      -0.06169600      -0.07216900
P        5.77393515       1.01221689      -0.20943129       0.00000000 NULL       0.07362700       0.00573600      -0.07448700
P        4.64424220       4.06202147       6.03746387       0.00000000 NULL      -0.12688600      -0.10919900       0.14553500
P        5.18756107       2.36298369       1.46617146       0.00000000 NULL      -0.03442400      -0.08069100      -0.02599100
P        2.68540215       2.43911832       3.83685201       0.00000000 NULL      -0.03174900       0.06822200      -0.07121800
P        6.17734799       2.78218619       4.97877607       0.00000000 NULL       0.07964300      -0.05075200       0.02622900
P        4.28324529       4.02400264       0.30229910       0.00000000 NULL      -0.13308600       0.16783500      -0.00902600
P        3.27976336       1.22878698       2.10264511       0.00000000 NULL      -0.03369000       0.05311800       0.09789000
P        4.51741618       3.75020749       3.85192652       0.00000000 NULL      -0.08584400       0.00740100      -0.11812100
12
Lattice="5.620551712363843 -0.7103154037516815 -1.236969075676019 1.9775960511364465 4.625517871541896 -0.8970228920576295 -0.526613403033154 0.03742804493771959 8.69313098095606" Properties=species:S:1:pos:R:3:initial_magmoms:R:1:castep_labels:S:1:forces:R:3 n_minim_iter=3 energy=-63.892729084699 stress="0.0004807552853480319 0.001088253598295784 -0.0005322526202693421 0.001088253598295784 0.0005738335262347304 -0.00024195235456830395 -0.0005322526202693421 -0.00024195235456830395 -0.00018164514499516645" free_energy=-63.892729084699 pbc="T T T"
P        7.31375212       3.51650433       1.64239169       0.00000000 NULL       0.01176000       0.01387300      -0.00297200
P        7.74150889       3.52187375      -0.53624695       0.00000000 NULL       0.13132000      -0.05502600      -0.07192400
P        3.82791456       1.36662328       6.80780096       0.00000000 NULL       0.04438000       0.05090000       0.10409400
P       -0.25838261       1.48681640       6.57362641       0.00000000 NULL       0.01793700      -0.04145500      -0.04577700
P        5.79016166       1.03301627      -0.22436198       0.00000000 NULL       0.06916800      -0.01507400      -0.06204600
P        4.65417995       4.06158376       6.02701853       0.00000000 NULL      -0.06399600      -0.03881200       0.10391600
P        5.20279725       2.37563345       1.45174643       0.00000000 NULL      -0.03482200      -0.05184600       0.01223100
P        2.69136406       2.44011862       3.82862315       0.00000000 NULL       0.02073500       0.06778600      -0.04134600
P        6.19029762       2.79189431       4.96521985       0.00000000 NULL       0.04169300      -0.11197800       0.05184500
P        4.30397365       4.03701955       0.28614209       0.00000000 NULL      -0.13380800       0.14831200       0.01066600
P        3.28578827       1.23641062       2.09673837       0.00000000 NULL       0.02133400       0.03442700       0.03040000
P        4.53098649       3.75539422       3.83714561       0.00000000 NULL      -0.12570100      -0.00110800      -0.08908700
12
Lattice="5.623399955998348 -0.7144406244182407 -1.237173014263481 1.9717008249418628 4.607768258583035 -0.9023555064333574 -0.5233445983744115 0.03060690051562914 8.715103711012102" Properties=species:S:1:pos:R:3:initial_magmoms:R:1:castep_labels:S:1:forces:R:3 n_minim_iter=4 energy=-63.896574984822 stress="0.0003861508575430815 -0.0002421905477676753 -0.00036805469319686805 -0.0002421905477676753 -0.001569427109734308 -0.0002827685351134198 -0.00036805469319686805 -0.0002827685351134198 0.0017956504536670891" free_energy=-63.896574984822 pbc="T T T"
P        7.31406605       3.49300974       1.64733698       0.00000000 NULL       0.00326500       0.04770400      -0.05508000
P        7.74472255       3.49779723      -0.54041165       0.00000000 NULL       0.06118300      -0.06619700      -0.01071600
P        3.83251402       1.35318511       6.83039903       0.00000000 NULL       0.06727200       0.02833700       0.07379000
P       -0.25700306       1.47475978       6.58697625       0.00000000 NULL      -0.03992800      -0.08061500      -0.00430000
P        5.79371031       1.02163275      -0.22588936       0.00000000 NULL       0.04823900       0.01946300      -0.05176600
P        4.64960883       4.03355834       6.04550850       0.00000000 NULL      -0.03713800      -0.04641900       0.00214500
P        5.20096886       2.35679880       1.45540764       0.00000000 NULL      -0.03330700      -0.00506000      -0.02386300
P        2.69069219       2.42750853       3.83529507       0.00000000 NULL      -0.01376500       0.03200000      -0.01720900
P        6.19311152       2.76654799       4.97976089       0.00000000 NULL      -0.01652800      -0.03143000       0.01588100
P        4.29533910       4.02295364       0.28545775       0.00000000 NULL      -0.04347800       0.07315300       0.02189100
P        3.28620100       1.22757638       2.10474983       0.00000000 NULL       0.02773500       0.01549600       0.01615100
P        4.52522868       3.73313396       3.84201109       0.00000000 NULL      -0.02355000       0.01356700       0.03307500
12
Lattice="5.6179763260462865 -0.7177761353210874 -1.224553772562749 1.9684356277097812 4.620621312691098 -0.8948239590959439 -0.510198454675064 0.033451139001393855 8.681971763707288" Properties=species:S:1:pos:R:3:initial_magmoms:R:1:castep_labels:S:1:forces:R:3 n_minim_iter=5 energy=-63.899402508065 stress="-0.00041354126491746423 1.54363722314005e-05 0.00029414391064143825 1.54363722314005e-05 0.0003882119690460501 -0.0006949778857109541 0.00029414391064143825 -0.0006949778857109541 0.00013022839998535118" free_energy=-63.899402508065 pbc="T T T"
P        7.31226017       3.50312357       1.65259452       0.00000000 NULL      -0.01382200       0.03097400      -0.02734500
P        7.74284421       3.50425072      -0.52851122       0.00000000 NULL      -0.00816600      -0.01614800      -0.03949900
P        3.84229425       1.36067686       6.81549173       0.00000000 NULL      -0.01097900      -0.03643500       0.03897000
P       -0.24728679       1.47872740       6.56094687       0.00000000 NULL      -0.02405100      -0.03594700      -0.01944900
P        5.79201931       1.02377701      -0.21886004       0.00000000 NULL       0.07440500      -0.01000800      -0.03106100
P        4.65183594       4.04383480       6.03434351       0.00000000 NULL       0.00112400      -0.02026800       0.01047800
P        5.19790498       2.36145569       1.45776391       0.00000000 NULL      -0.03553900       0.03610900      -0.04203000
P        2.69400612       2.43772194       3.82382544       0.00000000 NULL      -0.04970200       0.06013100       0.03420600
P        6.19723682       2.77241911       4.97246929       0.00000000 NULL      -0.05381200      -0.01519900       0.00213000
P        4.28809558       4.03939304       0.29220267       0.00000000 NULL       0.05832500       0.01979800       0.03733800
P        3.28724777       1.23270437       2.10399075       0.00000000 NULL       0.03064300      -0.00887100      -0.01713600
P        4.52406351       3.74468945       3.83313000       0.00000000 NULL       0.03157200      -0.00413600       0.05339600
12
Lattice="5.625729407757157 -0.7204301439333644 -1.2275969166371998 1.9713209450164204 4.617218161602325 -0.8840200595523293 -0.5156232018420631 0.0533795240438462 8.669910224841585" Properties=species:S:1:pos:R:3:initial_magmoms:R:1:castep_labels:S:1:forces:R:3 n_minim_iter=6 energy=-63.900255159825 stress="-5.6527037648459934e-05 1.4675698830996391e-05 -0.00025285717142824307 1.4675698830996391e-05 0.00010507629715332591 0.0003263209894136378 -0.00025285717142824307 0.0003263209894136378 -3.9504933481112375e-05" free_energy=-63.900255159825 pbc="T T T"
P        7.32062539       3.50642820       1.65373946       0.00000000 NULL      -0.02733200       0.03440100      -0.03214900
P        7.75403380       3.50103252      -0.52529283       0.00000000 NULL      -0.00681600      -0.02238600      -0.03882600
P        3.84391999       1.37601851       6.80858614       0.00000000 NULL      -0.01359300      -0.05075000      -0.01487100
P       -0.25154482       1.49215993       6.55435295       0.00000000 NULL      -0.04462000      -0.03695000       0.00918900
P        5.80120384       1.02284261      -0.22062472       0.00000000 NULL       0.07182900       0.02161100       0.00083200
P        4.65338876       4.05542329       6.03355169       0.00000000 NULL       0.02019800      -0.02988400       0.00571500
P        5.20268422       2.36401098       1.45747026       0.00000000 NULL      -0.01832500      -0.00051700      -0.03765600
P        2.69449340       2.44728613       3.82237140       0.00000000 NULL      -0.02322600       0.02854000       0.03276100
P        6.20189043       2.78196233       4.96869029       0.00000000 NULL      -0.06033500       0.00940000       0.01021600
P        4.29278774       4.04070636       0.29929339       0.00000000 NULL       0.05506600       0.04260800       0.02106300
P        3.29069871       1.23745609       2.10231616       0.00000000 NULL       0.02349200       0.00095000      -0.00182500
P        4.52702932       3.75237502       3.83376738       0.00000000 NULL       0.02366200       0.00297600       0.04555000
12
Lattice="5.640982644975678 -0.7189551693591627 -1.2140128127535035 1.975790130589911 4.6108422490150245 -0.8797555098637674 -0.49944871922291867 0.05119312563806061 8.65511170694583" Properties=species:S:1:pos:R:3:initial_magmoms:R:1:castep_labels:S:1:forces:R:3 n_minim_iter=7 energy=-63.901687192531 stress="0.0013395415122702647 7.460618746491396e-05 0.0006604503147623001 7.460618746491396e-05 -0.0005457470339771922 3.412518580442034e-07 0.0006604503147623001 3.412518580442034e-07 -0.0006472694617453428" free_energy=-63.901687192531 pbc="T T T"
P        7.34606471       3.50388744       1.66279585       0.00000000 NULL      -0.03270700       0.02300400      -0.01699000
P        7.77922340       3.49361055      -0.51366011       0.00000000 NULL       0.02279500      -0.01369200      -0.04205700
P        3.87031963       1.37013871       6.80769676       0.00000000 NULL      -0.00163900      -0.03822900       0.01986500
P       -0.24168927       1.48447259       6.54229067       0.00000000 NULL      -0.03759300      -0.04695200      -0.00164200
P        5.82587060       1.02257144      -0.21067355       0.00000000 NULL       0.02770100       0.00767800      -0.05874400
P        4.68000462       4.04491370       6.03473611       0.00000000 NULL       0.01403100      -0.01056100       0.04847400
P        5.21966698       2.36020982       1.46202323       0.00000000 NULL       0.00745200       0.01675700      -0.00703700
P        2.70841210       2.44687530       3.82271311       0.00000000 NULL      -0.01566400       0.04276700       0.03005200
P        6.22806764       2.77568097       4.97399777       0.00000000 NULL      -0.05787700       0.00499400      -0.01858900
P        4.30906780       4.04025688       0.30863522       0.00000000 NULL       0.04330500       0.01896600       0.01883200
P        3.30745886       1.23583531       2.10590585       0.00000000 NULL       0.02661300       0.00787000      -0.00054900
P        4.54955044       3.74634250       3.83831553       0.00000000 NULL       0.00358200      -0.01260100       0.02838600
12
Lattice="5.630488154054732 -0.7205616404617753 -1.2149169320578916 1.9705533811596339 4.613664320748083 -0.8833497886015471 -0.4988108695010724 0.04631682510543766 8.66320116821692" Properties=species:S:1:pos:R:3:initial_magmoms:R:1:castep_labels:S:1:forces:R:3 n_minim_iter=8 energy=-63.904533532784 stress="-5.807490944736375e-05 4.3182812902815666e-05 5.461857758458898e-06 4.3182812902815666e-05 -8.150115873950386e-05 4.190268999067686e-05 5.461857758458898e-06 4.190268999067686e-05 0.00010799970302077711" free_energy=-63.904533532784 pbc="T T T"
P        7.32771581       3.50875857       1.65689588       0.00000000 NULL       0.00232500       0.00287100      -0.04034600
P        7.76725973       3.48783995      -0.52576653       0.00000000 NULL      -0.01950100       0.05749600       0.00049500
P        3.86269498       1.36005394       6.81844754       0.00000000 NULL      -0.00646100      -0.03839100       0.01970300
P       -0.24856912       1.47255740       6.54594060       0.00000000 NULL      -0.03231500      -0.00325400      -0.00545600
P        5.82862790       1.02364807      -0.21710095       0.00000000 NULL      -0.02473400      -0.01831700      -0.03279000
P        4.66887382       4.03548856       6.04366349       0.00000000 NULL      -0.01447400       0.01559100       0.05917000
P        5.20415675       2.35922528       1.45536562       0.00000000 NULL       0.06361500       0.02321800      -0.03234200
P        2.69697345       2.45431215       3.82858094       0.00000000 NULL      -0.01371000       0.01398400      -0.03844100
P        6.20628156       2.77018104       4.97879495       0.00000000 NULL       0.01655800      -0.06792500      -0.01432100
P        4.30477043       4.05235840       0.31103469       0.00000000 NULL       0.05346000      -0.06641400      -0.01704800
P        3.30540273       1.23567617       2.10808260       0.00000000 NULL       0.00017200       0.06856100       0.09408600
P        4.54021958       3.74502120       3.84496629       0.00000000 NULL      -0.02493600       0.01258000       0.00728900
12
Lattice="5.633279224684973 -0.7313221638253576 -1.2120071849847642 1.960721675743666 4.6179653865287165 -0.8927235069959438 -0.49906831370391563 0.028205471381590668 8.654061991858256" Properties=species:S:1:pos:R:3:initial_magmoms:R:1:castep_labels:S:1:forces:R:3 n_minim_iter=9 energy=-63.907775296341 stress="0.0006763920956328136 -0.0007450505203203384 -0.0006773302852869288 -0.0007450505203203384 0.0003944661045711825 -0.0006231285102696344 -0.0006773302852869288 -0.0006231285102696344 -0.0004430813866480634" free_energy=-63.907775296341 pbc="T T T"
P        7.31812888       3.50123958       1.63633178       0.00000000 NULL       0.04530100      -0.01541900      -0.00842600
P        7.76313808       3.47789213      -0.54371488       0.00000000 NULL       0.05308700       0.05747600      -0.00833900
P        3.85990369       1.32665949       6.81685641       0.00000000 NULL      -0.02876700      -0.00541600      -0.01023700
P       -0.26368277       1.44997334       6.53325780       0.00000000 NULL      -0.03426200       0.02284600      -0.02912200
P        5.84068866       1.01286385      -0.22944094       0.00000000 NULL      -0.02672900      -0.04411800       0.02071700
P        4.65827465       4.01160326       6.04278864       0.00000000 NULL      -0.00622000      -0.02971300      -0.00411800
P        5.20295660       2.35104685       1.43698935       0.00000000 NULL       0.07535900       0.02254000       0.00274500
P        2.68412904       2.45559671       3.81851525       0.00000000 NULL      -0.04148500       0.05750000      -0.00441300
P        6.19345061       2.73795359       4.96798822       0.00000000 NULL      -0.01999600      -0.03972700      -0.00796300
P        4.30972769       4.05224264       0.30478253       0.00000000 NULL      -0.04008000      -0.03434700      -0.00934900
P        3.30880241       1.23585388       2.11646988       0.00000000 NULL       0.01844900      -0.00242900       0.01377500
P        4.53033346       3.73347232       3.83960943       0.00000000 NULL       0.00534400       0.01080800       0.04473100
12
Lattice="5.615179744275622 -0.7229799914087566 -1.1964641889533194 1.9613254422048312 4.6223952402213815 -0.8841932958955978 -0.46849913047999686 0.03476093417934349 8.672017006558585" Properties=species:S:1:pos:R:3:initial_magmoms:R:1:castep_labels:S:1:forces:R:3 n_minim_iter=10 energy=-63.909791551283 stress="0.0001049088404063115 0.00011705797470773317 0.0002564106765721104 0.00011705797470773317 0.0003549252357671473 -4.544202514145796e-05 0.0002564106765721104 -4.544202514145796e-05 0.00027410152125663666" free_energy=-63.909791551283 pbc="T T T"
P        7.31194327       3.52101342       1.66043587       0.00000000 NULL       0.02737900      -0.00068000      -0.02117000
P        7.75212036       3.49369795      -0.52296289       0.00000000 NULL       0.05279300       0.04273600       0.01464900
P        3.87573475       1.33214114       6.85153852       0.00000000 NULL      -0.05882900       0.01230600       0.03860000
P       -0.24652587       1.44916212       6.54623947       0.00000000 NULL       0.00434700       0.02569700      -0.06614000
P        5.83641437       1.02243608      -0.21559828       0.00000000 NULL      -0.05411800      -0.02256500       0.00511400
P        4.67356444       4.02196284       6.08473476       0.00000000 NULL      -0.03915800      -0.03421300      -0.04956700
P        5.20347815       2.36444343       1.45244857       0.00000000 NULL       0.07432500      -0.01619700       0.01660600
P        2.68956641       2.47318308       3.83789431       0.00000000 NULL      -0.02468000       0.06370600       0.02891100
P        6.19571125       2.74591308       5.00260019       0.00000000 NULL       0.00667500      -0.04357000      -0.02579000
P        4.31562310       4.06370969       0.32521240       0.00000000 NULL      -0.01275700       0.01946300      -0.01499900
P        3.31457302       1.25037714       2.14218120       0.00000000 NULL       0.01099100      -0.06762700      -0.02558200
P        4.53816590       3.74727802       3.87194669       0.00000000 NULL       0.01303300       0.02094300       0.09936800
12
Lattice="5.5951481345287695 -0.7210792167550871 -1.171618002553308 1.9517386453850178 4.633655986992668 -0.892436396187819 -0.42735127671636697 0.007080690953476651 8.692759808180226" Properties=species:S:1:pos:R:3:initial_magmoms:R:1:castep_labels:S:1:forces:R:3 n_minim_iter=11 energy=-63.91401027458 stress="0.0005339400925597137 -0.0001837240672302848 0.00019691407668868876 -0.0001837240672302848 0.001650963700016098 -0.0002223154820005183 0.00019691407668868876 -0.0002223154820005183 0.00041833604191944426" free_energy=-63.91401027458 pbc="T T T"
P        7.30133978       3.53459192       1.66358288       0.00000000 NULL       0.02892600       0.01519700       0.03114300
P        7.74585811       3.51238424      -0.51634476       0.00000000 NULL       0.00465200      -0.05004400       0.01910600
P        3.88268937       1.29502216       6.90234153       0.00000000 NULL      -0.00808700      -0.00854900       0.01763100
P       -0.23753658       1.41732035       6.53966403       0.00000000 NULL      -0.07126700       0.02676600      -0.02068900
P        5.83151070       1.01964109      -0.20683465       0.00000000 NULL      -0.05996600       0.03159600      -0.05586300
P        4.67683970       3.99033566       6.12388129       0.00000000 NULL      -0.00909900      -0.00823500       0.05031700
P        5.21997762       2.36523104       1.45722457       0.00000000 NULL      -0.05975900       0.04221100      -0.00136100
P        2.68053754       2.49940389       3.85771833       0.00000000 NULL       0.04780500      -0.01651700      -0.05336700
P        6.18953213       2.70553597       5.03138420       0.00000000 NULL       0.02956100       0.02063800      -0.01885800
P        4.32227962       4.08123365       0.33368210       0.00000000 NULL       0.09210700      -0.04953700       0.04494200
P        3.32838302       1.24932195       2.17721742       0.00000000 NULL       0.02304900      -0.01299400       0.01815300
P        4.54256863       3.74961402       3.92383805       0.00000000 NULL      -0.01792200       0.00946600      -0.03115300
12
Lattice="5.576976261479607 -0.707161081137115 -1.142312438399561 1.9509196732818987 4.6258072451650305 -0.8940475254771602 -0.3767120634827234 -0.012058364772718318 8.720308530039546" Properties=species:S:1:pos:R:3:initial_magmoms:R:1:castep_labels:S:1:forces:R:3 n_minim_iter=12 energy=-63.917530626661 stress="0.0005913895011135139 -0.00013121161672883033 0.0002497280835274037 -0.00013121161672883033 0.0016759727966652318 -0.00024482894848720387 0.0002497280835274037 -0.00024482894848720387 0.0003142688625352537" free_energy=-63.917530626661 pbc="T T T"
P        7.30926237       3.55295449       1.69085518       0.00000000 NULL       0.04192900      -0.01281700       0.04194400
P        7.75211895       3.50985989      -0.48707126       0.00000000 NULL       0.01505500       0.03298300      -0.03265500
P        3.90070690       1.27379819       6.96278893       0.00000000 NULL      -0.04433700       0.00090600      -0.03294200
P       -0.23019823       1.38942706       6.53679448       0.00000000 NULL      -0.05789100       0.01868300      -0.00016100
P        5.81506127       1.03350749      -0.19911981       0.00000000 NULL       0.03766500      -0.10480300       0.02607400
P        4.69596915       3.95553818       6.18106219       0.00000000 NULL       0.03795900       0.02438600       0.04810600
P        5.23155626       2.37059483       1.48070938       0.00000000 NULL      -0.02129200      -0.02749400       0.00478200
P        2.69886465       2.50874794       3.87984295       0.00000000 NULL       0.00950000      -0.03512700      -0.07405400
P        6.21130315       2.68073102       5.06984601       0.00000000 NULL      -0.06787700       0.04649100      -0.00781400
P        4.35283123       4.07983593       0.35885480       0.00000000 NULL      -0.01279200      -0.01008400       0.00901400
P        3.35428092       1.23949760       2.21369383       0.00000000 NULL       0.03558000       0.07171200       0.05865700
P        4.55793857       3.75125535       3.97821143       0.00000000 NULL       0.02650000      -0.00483700      -0.04095200
12
Lattice="5.576871722431505 -0.7058826558162599 -1.1330989344801423 1.9493906127335465 4.61726907423373 -0.8939163908340989 -0.364277043064709 -0.017940803407860594 8.715360810813362" Properties=species:S:1:pos:R:3:initial_magmoms:R:1:castep_labels:S:1:forces:R:3 n_minim_iter=13 energy=-63.919617970179 stress="0.0007473945182337696 6.404043055813174e-05 0.00020010499868397568 6.404043055813174e-05 0.0012106202992709224 2.5573478602880608e-05 0.00020010499868397568 2.5573478602880608e-05 0.00027661196639075703" free_energy=-63.919617970179 pbc="T T T"
P        7.32405918       3.56131525       1.69543168       0.00000000 NULL       0.03562400      -0.07372700       0.00815900
P        7.77067770       3.49985352      -0.48504214       0.00000000 NULL      -0.03995300      -0.02609800       0.01706100
P        3.88728378       1.26480278       6.96918196       0.00000000 NULL       0.07265400      -0.00214500      -0.00015800
P       -0.25646828       1.37433040       6.51453667       0.00000000 NULL      -0.03863500       0.05826100       0.04353400
P        5.81634349       1.01831889      -0.20127078       0.00000000 NULL      -0.01189200       0.03506000      -0.00632600
P        4.69955762       3.93296509       6.19890074       0.00000000 NULL       0.01695800       0.01407900       0.02117000
P        5.24025781       2.35986703       1.48760258       0.00000000 NULL       0.04589700      -0.01576300      -0.07073000
P        2.70532565       2.50576538       3.87046669       0.00000000 NULL      -0.01276200       0.05824200       0.01649500
P        6.20974173       2.66837090       5.06468258       0.00000000 NULL      -0.07344900      -0.02701000       0.04104800
P        4.37044434       4.07602827       0.36654415       0.00000000 NULL       0.01642600      -0.02892600       0.02968700
P        3.38001343       1.23638104       2.23207486       0.00000000 NULL       0.02154200       0.01468900      -0.02210800
P        4.56574862       3.75348019       3.99417502       0.00000000 NULL      -0.03240900      -0.00666400      -0.07783200
12
Lattice="5.584568448177895 -0.7090543355632563 -1.1351964958880851 1.9488873512681486 4.61457484299366 -0.8963600697052149 -0.3697837963577285 -0.021159138927681845 8.71028243561689" Properties=species:S:1:pos:R:3:initial_magmoms:R:1:castep_labels:S:1:forces:R:3 n_minim_iter=14 energy=-63.921435388996 stress="0.0007246681764814356 5.463717181458665e-06 0.00012011640741113033 5.463717181458665e-06 0.0009790725077431046 0.00016246021556743498 0.00012011640741113033 0.00016246021556743498 0.00026247185116241666" free_energy=-63.921435388996 pbc="T T T"
P        7.33905519       3.55456353       1.69000059       0.00000000 NULL      -0.01003800      -0.04570200      -0.02015000
P        7.78092690       3.48821970      -0.49002227       0.00000000 NULL      -0.00324600      -0.01006100       0.00054800
P        3.88296726       1.26239043       6.96299597       0.00000000 NULL       0.03580900      -0.01769300       0.03368100
P       -0.28053099       1.37355767       6.50702392       0.00000000 NULL      -0.00602900       0.01838000       0.02052900
P        5.82123973       1.01126650      -0.20726574       0.00000000 NULL       0.01696100       0.00008200      -0.02393600
P        4.69745512       3.92357494       6.19749050       0.00000000 NULL      -0.00081900       0.03547300      -0.03161000
P        5.25236831       2.34893761       1.47823810       0.00000000 NULL       0.02311700       0.03628400      -0.03518200
P        2.70336900       2.50725163       3.86485584       0.00000000 NULL       0.03454500       0.00057400      -0.00461800
P        6.20008960       2.65852819       5.05702726       0.00000000 NULL      -0.04340400      -0.00633300       0.03288700
P        4.37804777       4.07114769       0.36584181       0.00000000 NULL       0.00493800      -0.01990900       0.03304000
P        3.39463509       1.23265851       2.22982515       0.00000000 NULL      -0.02930500       0.01788500       0.00466700
P        4.56416146       3.75407743       3.98473013       0.00000000 NULL      -0.02253000      -0.00898000      -0.00985600
12
Lattice="5.592619174901873 -0.7054164183851483 -1.1392074036645912 1.9528207188030715 4.61094156247288 -0.9055737771076575 -0.3756950070746385 -0.03410373659811786 8.7226489038794" Properties=species:S:1:pos:R:3:initial_magmoms:R:1:castep_labels:S:1:forces:R:3 n_minim_iter=15 energy=-63.922998475668 stress="0.0004425954541055526 -1.4192035264049014e-05 -2.6977652619048127e-05 -1.4192035264049014e-05 0.00033664530495712666 0.0002212337989660013 -2.6977652619048127e-05 0.0002212337989660013 0.00030924146509291186" free_energy=-63.922998475668 pbc="T T T"
P        7.35312152       3.54469350       1.68014097       0.00000000 NULL      -0.02837800      -0.02668000      -0.01486400
P        7.79628265       3.48006128      -0.49955884       0.00000000 NULL      -0.01426600      -0.00059000      -0.01137000