21
Lattice="7.919539999999997 -1.1622685394346697e-18 0.0 -3.9597699999999985 6.858522826287011 0.0 0.0 0.0 8.484619999999998" Properties=species:S:1:pos:R:3:initial_magmoms:R:1:castep_labels:S:1 n_minim_iter=1 pbc="T T T"
P        4.55982761       3.34523422       7.15097604       0.00000000 NULL
P        2.74256838       2.27630943       7.15097604       0.00000000 NULL
P        4.57691402       1.23697917       7.15097604       0.00000000 NULL
P       -2.13779746       4.65862145       5.83047644       0.00000000 NULL
P        0.99418421       2.67782519       5.83047644       0.00000000 NULL
P        1.14361326       6.38059901       5.83047644       0.00000000 NULL
P        3.11472261       3.16859777       1.42491557       0.00000000 NULL
P        3.61809253       1.11313001       1.42491557       0.00000000 NULL
P        5.14649486       2.57679503       1.42491557       0.00000000 NULL
P        1.21300743       4.48259746       7.06145905       0.00000000 NULL
P       -0.52877699       5.66771934       7.06145905       0.00000000 NULL
P       -0.68423043       3.56672884       7.06145905       0.00000000 NULL
P       -0.18118561       1.58805255       7.04830959       0.00000000 NULL
P        2.67506896       5.90758520       7.04830959       0.00000000 NULL
P       -2.49388334       6.22140789       7.04830959       0.00000000 NULL
P        2.19711561       0.75071196       8.32665165       0.00000000 NULL
P        6.17084657       1.52740195       8.32665165       0.00000000 NULL
P        3.51134783       4.58040891       8.32665165       0.00000000 NULL
P        1.72450320       1.77318672       1.84156386       0.00000000 NULL
P        5.52166366       0.60687021       1.84156386       0.00000000 NULL
P        4.63314315       4.47846588       1.84156386       0.00000000 NULL
21
Lattice="7.982688848415477 2.1589957931277583e-17 0.0 -3.9913444242077385 6.9132113332345515 0.0 0.0 0.0 8.528672085875842" Properties=species:S:1:pos:R:3:initial_magmoms:R:1:castep_labels:S:1 n_minim_iter=2 pbc="T T T"
P        4.59645902       3.37200138       7.18784623       0.00000000 NULL
P        2.76422049       2.29464958       7.18784623       0.00000000 NULL
P        4.61335378       1.24656037       7.18784623       0.00000000 NULL
P       -2.15480570       4.69552596       5.86035421       0.00000000 NULL
P        1.00230251       2.69933187       5.86035421       0.00000000 NULL
P        1.15250319       6.43156483       5.86035421       0.00000000 NULL
P        3.13936899       3.19404643       1.43244657       0.00000000 NULL
P        3.64687901       1.12175008       1.43244657       0.00000000 NULL
P        5.18778528       2.59741482       1.43244657       0.00000000 NULL
P        1.22275537       4.51813474       7.09818761       0.00000000 NULL
P       -0.53285272       5.71308117       7.09818761       0.00000000 NULL
P       -0.68990264       3.59520675       7.09818761       0.00000000 NULL
P       -0.18251111       1.60031763       7.08490612       0.00000000 NULL
P        2.69668426       5.95499325       7.08490612       0.00000000 NULL
P       -2.51417314       6.27111177       7.08490612       0.00000000 NULL
P        2.21451993       0.75666409       8.37015631       0.00000000 NULL
P        6.22013856       1.53949847       8.37015631       0.00000000 NULL
P        3.53937479       4.61704877       8.37015631       0.00000000 NULL
P        1.73775698       1.78720199       1.85130402       0.00000000 NULL
P        5.56604803       0.61134069       1.85130402       0.00000000 NULL
P        4.67022827       4.51466864       1.85130402       0.00000000 NULL
21
Lattice="8.550384676563384 7.035895896024821e-16 0.0 -4.275192338281693 7.404850342033083 0.0 0.0 0.0 8.925870213786796" Properties=species:S:1:pos:R:3:initial_magmoms:R:1:castep_labels:S:1 n_minim_iter=3 pbc="T T T"
P        4.92591738       3.61270146       7.52014729       0.00000000 NULL
P        2.95873475       2.45961885       7.52014729       0.00000000 NULL
P        4.94092489       1.33253003       7.52014729       0.00000000 NULL
P       -2.30761766       5.02701861       6.12968484       0.00000000 NULL
P        1.07547535       2.89288552       6.12968484       0.00000000 NULL
P        1.23214232       6.88979655       6.12968484       0.00000000 NULL
P        3.36095395       3.42286042       1.50041613       0.00000000 NULL
P        3.90562362       1.19924128       1.50041613       0.00000000 NULL
P        5.55899945       2.78274862       1.50041613       0.00000000 NULL
P        1.31036138       4.83746672       7.42934445       0.00000000 NULL
P       -0.56935742       6.12092322       7.42934445       0.00000000 NULL
P       -0.74100395       3.85131073       7.42934445       0.00000000 NULL
P       -0.19432391       1.71037761       7.41486111       0.00000000 NULL
P        2.89112384       6.38137209       7.41486111       0.00000000 NULL
P       -2.69679992       6.71795098       7.41486111       0.00000000 NULL
P        2.37087183       0.81027156       8.76258801       0.00000000 NULL
P        6.66323301       1.64809945       8.76258801       0.00000000 NULL
P        3.79147218       4.94647932       8.76258801       0.00000000 NULL
P        1.85663652       1.91309048       1.93912454       0.00000000 NULL
P        5.96528147       0.65134914       1.93912454       0.00000000 NULL
P        5.00365904       4.84041071       1.93912454       0.00000000 NULL
21
Lattice="8.78980623126082 3.548424548428585e-17 0.0 -4.39490311563041 7.612195490614628 0.0 0.0 0.0 9.108368908879433" Properties=species:S:1:pos:R:3:initial_magmoms:R:1:castep_labels:S:1 n_minim_iter=4 pbc="T T T"
P        5.06486200       3.71494573       7.67231743       0.00000000 NULL
P        3.04013786       2.52882629       7.67231743       0.00000000 NULL
P        5.07970949       1.36842347       7.67231743       0.00000000 NULL
P       -2.37174906       5.16559269       6.25325238       0.00000000 NULL
P        1.10724315       2.97540420       6.25325238       0.00000000 NULL
P        1.26450592       7.08339408       6.25325238       0.00000000 NULL
P        3.45442130       3.51984127       1.53199242       0.00000000 NULL
P        4.01432362       1.23169596       1.53199242       0.00000000 NULL
P        5.71596443       2.86065825       1.53199242       0.00000000 NULL
P        1.34729419       4.97153338       7.58149016       0.00000000 NULL
P       -0.58421818       6.29321979       7.58149016       0.00000000 NULL
P       -0.76307600       3.95963780       7.58149016       0.00000000 NULL
P       -0.19880993       1.75632103       7.56624132       0.00000000 NULL
P        2.97328945       6.56186052       7.56624132       0.00000000 NULL
P       -2.77447951       6.90620942       7.56624132       0.00000000 NULL
P        2.43648742       0.83425645       8.94404122       0.00000000 NULL
P        6.84907525       1.69293177       8.94404122       0.00000000 NULL
P        3.89914669       5.08500726       8.94404122       0.00000000 NULL
P        1.90606110       1.96563805       1.97890685       0.00000000 NULL
P        6.13448320       0.66787830       1.97890685       0.00000000 NULL
P        5.14416505       4.97867913       1.97890685       0.00000000 NULL
21
Lattice="8.91046326598912 4.3162711071956865e-16 0.0 -4.45523163299456 7.716687547834636 0.0 0.0 0.0 9.21053134632608" Properties=species:S:1:pos:R:3:initial_magmoms:R:1:castep_labels:S:1 n_minim_iter=5 pbc="T T T"
P        5.13469112       3.76764532       7.75695308       0.00000000 NULL
P        3.08024115       2.56295029       7.75695308       0.00000000 NULL
P        5.15076263       1.38609193       7.75695308       0.00000000 NULL
P       -2.40365379       5.23392438       6.32208918       0.00000000 NULL
P        1.12434706       3.01810011       6.32208918       0.00000000 NULL
P        1.27930674       7.18135060       6.32208918       0.00000000 NULL
P        3.50136441       3.56961733       1.55013111       0.00000000 NULL
P        4.06840177       1.24746185       1.55013111       0.00000000 NULL
P        5.79592873       2.89960835       1.55013111       0.00000000 NULL
P        1.36598718       5.03835006       7.66670468       0.00000000 NULL
P       -0.59110110       6.38049210       7.66670468       0.00000000 NULL
P       -0.77488607       4.01453292       7.66670468       0.00000000 NULL
P       -0.20058290       1.77912134       7.65066145       0.00000000 NULL
P        3.01475881       6.65341698       7.65066145       0.00000000 NULL
P       -2.81417590       7.00083676       7.65066145       0.00000000 NULL
P        2.46929678       0.84846805       9.04723500       0.00000000 NULL
P        6.94101999       1.71423971       9.04723500       0.00000000 NULL
P        3.95537814       5.15397978       9.04723500       0.00000000 NULL
P        1.93045388       1.99126726       2.00026159       0.00000000 NULL
P        6.22074830       0.67618846       2.00026159       0.00000000 NULL
P        5.21449273       5.04923182       2.00026159       0.00000000 NULL
21
Lattice="8.90979769965047 4.158285037329675e-16 0.0 -4.454898849825235 7.716111150477461 0.0 0.0 0.0 9.222885945797021" Properties=species:S:1:pos:R:3:initial_magmoms:R:1:castep_labels:S:1 n_minim_iter=6 pbc="T T T"
P        5.13417123       3.76912845       7.76629183       0.00000000 NULL
P        3.07855110       2.56175847       7.76629183       0.00000000 NULL
P        5.15197424       1.38522421       7.76629183       0.00000000 NULL
P       -2.40274777       5.23120828       6.33005702       0.00000000 NULL
P        1.12591347       3.01966639       6.33005702       0.00000000 NULL
P        1.27683431       7.18134762       6.33005702       0.00000000 NULL
P        3.50085961       3.57073078       1.55296453       0.00000000 NULL
P        4.06702433       1.24646796       1.55296453       0.00000000 NULL
P        5.79681261       2.89891240       1.55296453       0.00000000 NULL
P        1.36601446       5.03688402       7.67702038       0.00000000 NULL
P       -0.59017790       6.38067236       7.67702038       0.00000000 NULL
P       -0.77583656       4.01466591       7.67702038       0.00000000 NULL
P       -0.19982051       1.77851296       7.66043026       0.00000000 NULL
P        3.01457171       6.65380502       7.66043026       0.00000000 NULL
P       -2.81475118       6.99990431       7.66043026       0.00000000 NULL
P        2.46872355       0.85158872       9.06206859       0.00000000 NULL
P        6.93793846       1.71218294       9.06206859       0.00000000 NULL
P        3.95803455       5.15233948       9.06206859       0.00000000 NULL
P        1.92948184       1.98979953       2.00153242       0.00000000 NULL
P        6.22183984       0.67608052       2.00153242       0.00000000 NULL
P        5.21337488       5.05023109       2.00153242       0.00000000 NULL
21
Lattice="8.895871602867189 5.043219042921577e-16 0.0 -4.447935801433594 7.704050796887579 0.0 0.0 0.0 9.246957995894595" Properties=species:S:1:pos:R:3:initial_magmoms:R:1:castep_labels:S:1 n_minim_iter=7 pbc="T T T"
P        5.12568358       3.76857194       7.78330856       0.00000000 NULL
P        3.06935078       2.55468621       7.78330856       0.00000000 NULL
P        5.14877306       1.38079263       7.78330856       0.00000000 NULL
P       -2.39680176       5.21594702       6.34513830       0.00000000 NULL
P        1.12919405       3.02038607       6.34513830       0.00000000 NULL
P        1.26760771       7.17176849       6.34513830       0.00000000 NULL
P        3.49463692       3.56938561       1.55931418       0.00000000 NULL
P        4.05737453       1.24175154       1.55931418       0.00000000 NULL
P        5.79179596       2.89291364       1.55931418       0.00000000 NULL
P        1.36427980       5.02566286       7.69716710       0.00000000 NULL
P       -0.58655580       6.37272032       7.69716710       0.00000000 NULL
P       -0.77772399       4.00971840       7.69716710       0.00000000 NULL
P       -0.19729589       1.77443465       7.67891246       0.00000000 NULL
P        3.00987827       6.64597022       7.67891246       0.00000000 NULL
P       -2.81258237       6.98769672       7.67891246       0.00000000 NULL
P        2.46358963       0.85993713       9.09396017       0.00000000 NULL
P        6.91934939       1.70356263       9.09396017       0.00000000 NULL
P        3.96086840       5.14055103       9.09396017       0.00000000 NULL
P        1.92393274       1.98266729       2.00231719       0.00000000 NULL
P        6.21686499       0.67484097       2.00231719       0.00000000 NULL
P        5.20300968       5.04654252       2.00231719       0.00000000 NULL
21
Lattice="8.830052201298805 6.086074805054063e-16 0.0 -4.415026100649403 7.647049523067469 0.0 0.0 0.0 9.347068598392696" Properties=species:S:1:pos:R:3:initial_magmoms:R:1:castep_labels:S:1 n_minim_iter=8 pbc="T T T"
P        5.08427854       3.77952180       7.84192401       0.00000000 NULL
P        3.01475104       2.51335346       7.84192401       0.00000000 NULL
P        5.14604874       1.35417424       7.84192401       0.00000000 NULL
P       -2.36337939       5.12337068       6.40366831       0.00000000 NULL
P        1.15974664       3.03861758       6.40366831       0.00000000 NULL
P        1.20363276       7.13211077       6.40366831       0.00000000 NULL
P        3.46217596       3.57569663       1.59405800       0.00000000 NULL
P        4.00232010       1.21048401       1.59405800       0.00000000 NULL
P        5.78058225       2.86086887       1.59405800       0.00000000 NULL
P        1.35755853       4.96180116       7.78217495       0.00000000 NULL
P       -0.56079902       6.34182911       7.78217495       0.00000000 NULL
P       -0.79675950       3.99046876       7.78217495       0.00000000 NULL
P       -0.18018301       1.75326219       7.75052730       0.00000000 NULL
P        2.98674801       6.61437536       7.75052730       0.00000000 NULL
P       -2.80656499       6.92646149       7.75052730       0.00000000 NULL
P        2.43298403       0.92471217       9.25542708       0.00000000 NULL
P        6.81273596       1.64466989       9.25542708       0.00000000 NULL
P        3.99935832       5.07766746       9.25542708       0.00000000 NULL
P        1.88779714       1.93765496       1.98877753       0.00000000 NULL
P        6.20809521       0.66605279       1.98877753       0.00000000 NULL
P        5.14918596       5.04334176       1.98877753       0.00000000 NULL
21
Lattice="9.016491260692984 1.0163733059718437e-16 0.0 -4.508245630346491 7.808510484760505 0.0 0.0 0.0 9.097980725431556" Properties=species:S:1:pos:R:3:initial_magmoms:R:1:castep_labels:S:1 n_minim_iter=9 pbc="T T T"
P        5.18592525       3.88215101       7.59875824       0.00000000 NULL
P        3.06148724       2.55006750       7.59875824       0.00000000 NULL
P        5.27732441       1.37629196       7.59875824       0.00000000 NULL
P       -2.40489701       5.16589797       6.22983181       0.00000000 NULL
P        1.23689526       3.14285959       6.22983181       0.00000000 NULL
P        1.16800176       7.30826340       6.22983181       0.00000000 NULL
P        3.51646467       3.69531227       1.57645814       0.00000000 NULL
P        4.05802462       1.19769159       1.57645814       0.00000000 NULL
P        5.95024761       2.91550661       1.57645814       0.00000000 NULL
P        1.39445133       5.02720714       7.58819732       0.00000000 NULL
P       -0.54266913       6.50253718       7.58819732       0.00000000 NULL
P       -0.85178219       4.08727663       7.58819732       0.00000000 NULL
P       -0.16875674       1.80645954       7.52616835       0.00000000 NULL
P        3.02818415       6.75913308       7.52616835       0.00000000 NULL
P       -2.85942739       7.05142834       7.52616835       0.00000000 NULL
P        2.44477656       1.00763365       9.06970193       0.00000000 NULL
P        6.92146664       1.61342178       9.06970193       0.00000000 NULL
P        4.15849369       5.18745505       9.06970193       0.00000000 NULL
P        1.87147105       1.94813241       1.89176269       0.00000000 NULL
P        6.39362358       0.64667526       1.89176269       0.00000000 NULL
P        5.25964227       5.21370280       1.89176269       0.00000000 NULL
21
Lattice="8.549054487448233 3.0825304496182126e-15 0.0 -4.274527243724118 7.403698364467522 0.0 0.0 0.0 9.149806656589574" Properties=species:S:1:pos:R:3:initial_magmoms:R:1:castep_labels:S:1 n_minim_iter=10 pbc="T T T"
P        4.91569832       3.68151527       7.63982356       0.00000000 NULL
P        2.90291958       2.41636198       7.63982356       0.00000000 NULL
P        5.00496384       1.30582110       7.63982356       0.00000000 NULL
P       -2.28093692       4.89435463       6.26655660       0.00000000 NULL
P        1.17636026       2.98117173       6.26655660       0.00000000 NULL
P        1.10457666       6.93187037       6.26655660       0.00000000 NULL
P        3.33618438       3.50609962       1.58812206       0.00000000 NULL
P        3.84459096       1.13617061       1.58812206       0.00000000 NULL
P        5.64280640       2.76142813       1.58812206       0.00000000 NULL
P        1.32169055       4.76639199       7.63336668       0.00000000 NULL
P       -0.51413457       6.16511995       7.63336668       0.00000000 NULL
P       -0.80755597       3.87588478       7.63336668       0.00000000 NULL
P       -0.15887641       1.71890603       7.56672786       0.00000000 NULL
P        2.86534916       6.40665433       7.56672786       0.00000000 NULL
P       -2.70647274       6.68183635       7.56672786       0.00000000 NULL
P        2.31705982       0.95775742       9.11981288       0.00000000 NULL
P        6.56108233       1.52775395       9.11981288       0.00000000 NULL
P        3.94543960       4.91818699       9.11981288       0.00000000 NULL
P        1.77452938       1.84845094       1.90276140       0.00000000 NULL
P        6.06098432       0.61256205       1.90276140       0.00000000 NULL
P        4.98806803       4.94268537       1.90276140       0.00000000 NULL
21
Lattice="8.79170582626724 -9.925866243614507e-16 0.0 -4.395852913133618 7.61384058814709 0.0 0.0 0.0 9.405145631325436" Properties=species:S:1:pos:R:3:initial_magmoms:R:1:castep_labels:S:1 n_minim_iter=11 pbc="T T T"
P        5.05533284       3.78541256       7.85185205       0.00000000 NULL
P        2.98577597       2.48534038       7.85185205       0.00000000 NULL
P        5.14644994       1.34308764       7.85185205       0.00000000 NULL
P       -2.34600801       5.03183643       6.43914572       0.00000000 NULL
P        1.21115874       3.06621984       6.43914572       0.00000000 NULL
P        1.13484927       7.12962490       6.43914572       0.00000000 NULL
P        3.42966359       3.60648673       1.63393666       0.00000000 NULL
P        3.95356491       1.16693242       1.63393666       0.00000000 NULL
P        5.80433025       2.84042143       1.63393666       0.00000000 NULL
P        1.35950795       4.90038680       7.84778374       0.00000000 NULL
P       -0.52776052       6.34101560       7.84778374       0.00000000 NULL
P       -0.83174742       3.98627877       7.84778374       0.00000000 NULL
P       -0.16295049       1.76709757       7.77753420       0.00000000 NULL
P        2.94697677       6.58917253       7.77753420       0.00000000 NULL
P       -2.78402627       6.87141107       7.77753420       0.00000000 NULL
P        2.38122529       0.98426559       9.37390363       0.00000000 NULL
P        6.74869418       1.57006879       9.37390363       0.00000000 NULL
P        4.05763928       5.05950619       9.37390363       0.00000000 NULL
P        1.82126333       1.90113672       1.95719479       0.00000000 NULL
P        6.23464147       0.62669194       1.95719479       0.00000000 NULL
P        5.13165395       5.08601191       1.95719479       0.00000000 NULL
21
Lattice="8.76569410477039 -3.28667317237736e-16 0.0 -4.382847052385194 7.591313776534652 0.0 0.0 0.0 9.401228227245282" Properties=species:S:1:pos:R:3:initial_magmoms:R:1:castep_labels:S:1 n_minim_iter=12 pbc="T T T"
P        5.03997837       3.77419463       7.84838594       0.00000000 NULL
P        2.97715650       2.47765198       7.84838594       0.00000000 NULL
P        5.13140630       1.33946716       7.84838594       0.00000000 NULL
P       -2.33921668       5.01591482       6.43640903       0.00000000 NULL
P        1.20854574       3.05753529       6.43640903       0.00000000 NULL
P        1.13067095       7.10917744       6.43640903       0.00000000 NULL
P        3.41936757       3.59669341       1.63366422       0.00000000 NULL
P        3.94118246       1.16291247       1.63366422       0.00000000 NULL
P        5.78799114       2.83170789       1.63366422       0.00000000 NULL
P        1.35565704       4.88523515       7.84519240       0.00000000 NULL
P       -0.52571921       6.32272963       7.84519240       0.00000000 NULL
P       -0.82993782       3.97466276       7.84519240       0.00000000 NULL
P       -0.16213416       1.76285325       7.77370481       0.00000000 NULL
P        2.93723844       6.56947484       7.77370481       0.00000000 NULL
P       -2.77510427       6.85029945       7.77370481       0.00000000 NULL
P        2.37350035       0.98208810       9.37019190       0.00000000 NULL
P        6.72843069       1.56446755       9.37019190       0.00000000 NULL
P        4.04661012       5.04475812       9.37019190       0.00000000 NULL
P        1.81474266       1.89549905       1.95594167       0.00000000 NULL
P        6.21677245       0.62386371       1.95594167       0.00000000 NULL
P        5.11702606       5.07195101       1.95594167       0.00000000 NULL
