44
Lattice="9.4504143406618 5.081538144060018e-07 3.1229169136294085e-16 -4.725207632395907 8.593275344840608 0.6651702261385054 1.2107927164072015e-07 -2.251777427196347 12.016999538343233" Properties=species:S:1:pos:R:3:initial_magmoms:R:1:castep_labels:S:1:forces:R:3 n_minim_iter=1 energy=-228.913664301988 stress="0.002770662379724649 0.0 0.0 0.0 0.009382442096013438 0.0017132874954369076 0.0 0.0017132874954369076 -0.006558429180985046" free_energy=-228.913664301988 pbc="T T T"
P       -1.52084869       2.66534556      11.33558662       0.00000000 NULL      -0.12275800       0.29045000      -0.39836600
P        3.20435842       3.67615270       1.34658314       0.00000000 NULL      -0.12276100      -0.29045100       0.39836600
P        6.24605552       3.67615286       1.34658314       0.00000000 NULL       0.12275800      -0.29045000       0.39836600
P        1.52084840       2.66534573      11.33558662       0.00000000 NULL       0.12276100       0.29045100      -0.39836600
P        3.45726298       3.44116721      12.23522841       0.00000000 NULL       0.06445700       0.07229700      -0.05607400
P       -1.26794416       2.90033108       0.44694135       0.00000000 NULL       0.06445900      -0.07229900       0.05607300
P        1.26794385       2.90033122       0.44694135       0.00000000 NULL      -0.06445700      -0.07229700       0.05607400
P        5.99315099       3.44116734      12.23522841       0.00000000 NULL      -0.06445900       0.07229900      -0.05607300
P        1.11823420       6.50315451       2.28572315       0.00000000 NULL      -0.59659200      -0.47933300       0.02909700
P        5.84344172      -0.16165596      10.39644661       0.00000000 NULL      -0.59659200       0.47933300      -0.02909700
P        3.60697263      -0.16165608      10.39644661       0.00000000 NULL       0.59659200       0.47933300      -0.02909700
P       -1.11823490       6.50315439       2.28572315       0.00000000 NULL       0.59659200      -0.47933300       0.02909700
P        3.55413908       4.56424969       9.08987525       0.00000000 NULL       0.54571300      -0.08555400       0.03792400
P       -1.17106794       1.77724861       3.59229451       0.00000000 NULL       0.54571400       0.08555200      -0.03792500
P        1.17106775       1.77724874       3.59229451       0.00000000 NULL      -0.54571300       0.08555400      -0.03792400
P        5.89627477       4.56424981       9.08987525       0.00000000 NULL      -0.54571400      -0.08555200       0.03792500
P       -1.11391255       4.12854388       8.44866536       0.00000000 NULL      -0.40254900      -0.00850000      -0.01776500
P        3.61129472       2.21295443       4.23350440       0.00000000 NULL      -0.40254900       0.00850000       0.01776500
P        5.83911938       2.21295455       4.23350440       0.00000000 NULL       0.40254900       0.00850000       0.01776500
P        1.11391211       4.12854400       8.44866536       0.00000000 NULL       0.40254900      -0.00850000      -0.01776500
P        3.58570814       5.74013793       7.06789015       0.00000000 NULL      -0.24477300       0.37099900      -0.01600000
P        8.31091559       0.60136088       5.61427961       0.00000000 NULL      -0.24477200      -0.37099800       0.01600000
P        1.13949868       0.60136050       5.61427961       0.00000000 NULL       0.24477300      -0.37099900       0.01600000
P       -3.58570876       5.74013754       7.06789015       0.00000000 NULL       0.24477200       0.37099800      -0.01600000
P       -2.47739585       7.64702714       7.75428951       0.00000000 NULL      -0.08720600      -0.39136800       0.06951600
P        2.24781180      -1.30552898       4.92788024       0.00000000 NULL      -0.08720800       0.39136800      -0.06951500
P        7.20260268      -1.30552872       4.92788024       0.00000000 NULL       0.08720600       0.39136800      -0.06951600
P        2.47739503       7.64702741       7.75428951       0.00000000 NULL       0.08720700      -0.39136800       0.06951500
P       -1.91549704       4.21785986       6.18449668       0.00000000 NULL      -0.16392500      -0.15255100       0.10572600
P        2.80971024       2.12363836       6.49767308       0.00000000 NULL      -0.16392500       0.15255000      -0.10572500
P        6.64070387       2.12363857       6.49767308       0.00000000 NULL       0.16392500       0.15255100      -0.10572600
P        1.91549659       4.21786007       6.18449668       0.00000000 NULL       0.16392500      -0.15255000       0.10572500
P        1.16598460       0.78125212       1.59815128       0.00000000 NULL      -0.40699000       0.13255900      -0.15545700
P       -3.55922282       5.56024592      11.08401847       0.00000000 NULL      -0.40699000      -0.13256200       0.15545700
P        3.55922222       5.56024631      11.08401847       0.00000000 NULL       0.40699000      -0.13255900       0.15545700
P        8.28442965       0.78125250       1.59815128       0.00000000 NULL       0.40699000       0.13256200      -0.15545700
P        6.21790636       2.02727100       9.90442432       0.00000000 NULL       0.18765500      -0.30563700       0.05297500
P        1.49269907       4.31422759       2.77774544       0.00000000 NULL       0.18765700       0.30563800      -0.05297500
P       -1.49269953       4.31422743       2.77774544       0.00000000 NULL      -0.18765500       0.30563700      -0.05297500
P        3.23250776       2.02727084       9.90442432       0.00000000 NULL      -0.18765700      -0.30563800       0.05297500
P       -1.52066740       1.94314803       8.43383694       0.00000000 NULL      -0.11506400      -0.28722200       0.14713600
P        3.20453964       4.39835023       4.24833281       0.00000000 NULL      -0.11506600       0.28722100      -0.14713600
P        6.24587423       4.39835040       4.24833281       0.00000000 NULL       0.11506400       0.28722200      -0.14713500
P        1.52066719       1.94314819       8.43383694       0.00000000 NULL       0.11506600      -0.28722100       0.14713700
44
Lattice="9.393786802925382 5.051089215742979e-07 3.5768969706661856e-16 -4.696893854089302 8.417744319557533 0.6428650569773022 1.2103496741031505e-07 -2.250953476331895 12.197607681704723" Properties=species:S:1:pos:R:3:initial_magmoms:R:1:castep_labels:S:1:forces:R:3 n_minim_iter=2 energy=-229.083254089087 stress="-0.0028162796223073195 1.0223766525960995e-08 -0.0 1.0223766525960995e-08 -0.0036285169777288163 0.001802030864099359 -0.0 0.001802030864099359 -0.004572426222238165" free_energy=-229.083254089087 pbc="T T T"
P       -1.51200301       2.57029151      11.48731968       0.00000000 NULL      -0.03540700       0.39917600      -0.49641000
P        3.18489034       3.59649967       1.35315305       0.00000000 NULL      -0.03540600      -0.39917800       0.49641000
P        6.20889608       3.59649983       1.35315305       0.00000000 NULL       0.03540700      -0.39917600       0.49641000
P        1.51200273       2.57029168      11.48731968       0.00000000 NULL       0.03540600       0.39917800      -0.49641000
P        3.43668721       3.32668377      12.39774576       0.00000000 NULL       0.11762800       0.11183300      -0.04622200
P       -1.26020617       2.84010744       0.44272697       0.00000000 NULL       0.11762800      -0.11183300       0.04622200
P        1.26020586       2.84010758       0.44272697       0.00000000 NULL      -0.11762800      -0.11183300       0.04622200
P        5.95709924       3.32668391      12.39774576       0.00000000 NULL      -0.11762800       0.11183300      -0.04622200
P        1.11023438       6.36268410       2.29446177       0.00000000 NULL      -0.51667400      -0.21472000      -0.01259600
P        5.80712813      -0.19589263      10.54601096       0.00000000 NULL      -0.51667300       0.21472000       0.01259600
P        3.58665869      -0.19589275      10.54601096       0.00000000 NULL       0.51667400       0.21472000       0.01259600
P       -1.11023506       6.36268398       2.29446177       0.00000000 NULL       0.51667300      -0.21472000      -0.01259600
P        3.53403092       4.43846241       9.20335255       0.00000000 NULL       0.52055300      -0.03422800       0.09417000
P       -1.16286234       1.72832882       3.63712018       0.00000000 NULL       0.52055200       0.03422700      -0.09417000
P        1.16286215       1.72832894       3.63712018       0.00000000 NULL      -0.52055300       0.03422800      -0.09417000
P        5.85975541       4.43846253       9.20335255       0.00000000 NULL      -0.52055200      -0.03422700       0.09417000
P       -1.10811459       4.01407333       8.55444089       0.00000000 NULL      -0.38097800       0.34844200      -0.07089800
P        3.58877891       2.15271790       4.28603184       0.00000000 NULL      -0.38097700      -0.34844300       0.07089800
P        5.80500766       2.15271802       4.28603184       0.00000000 NULL       0.38097800      -0.34844200       0.07089800
P        1.10811416       4.01407345       8.55444089       0.00000000 NULL       0.38097700       0.34844300      -0.07089800
P        3.56368926       5.59914115       7.14790159       0.00000000 NULL      -0.23199300       0.26897100      -0.03806600
P        8.26058293       0.56765058       5.69257114       0.00000000 NULL      -0.23199200      -0.26897000       0.03806600
P        1.13320381       0.56765020       5.69257114       0.00000000 NULL       0.23199300      -0.26897100       0.03806600
P       -3.56368986       5.59914077       7.14790159       0.00000000 NULL       0.23199200       0.26896900      -0.03806600
P       -2.46274104       7.46344541       7.83727124       0.00000000 NULL      -0.02026700      -0.32876800      -0.11861300
P        2.23415283      -1.29665433       5.00320149       0.00000000 NULL      -0.02026800       0.32876800       0.11861300
P        7.15963411      -1.29665407       5.00320149       0.00000000 NULL       0.02026700       0.32876800       0.11861300
P        2.46274024       7.46344568       7.83727124       0.00000000 NULL       0.02026800      -0.32876800      -0.11861300
P       -1.90437625       4.10966962       6.25775983       0.00000000 NULL      -0.05126700       0.00826000       0.07015500
P        2.79251726       2.05712153       6.58271290       0.00000000 NULL      -0.05126400      -0.00826300      -0.07015500
P        6.60126932       2.05712173       6.58271290       0.00000000 NULL       0.05126700      -0.00826000      -0.07015500
P        1.90437581       4.10966982       6.25775983       0.00000000 NULL       0.05126400       0.00826300       0.07015500
P        1.15811158       0.75988216       1.61781960       0.00000000 NULL      -0.33981300       0.04348100      -0.09685400
P       -3.53878207       5.40690880      11.22265313       0.00000000 NULL      -0.33981400      -0.04348400       0.09685300
P        3.53878149       5.40690919      11.22265313       0.00000000 NULL       0.33981300      -0.04348100       0.09685400
P        8.23567514       0.75988254       1.61781960       0.00000000 NULL       0.33981400       0.04348400      -0.09685300
P        6.18105692       1.94908709      10.03901369       0.00000000 NULL       0.25144000      -0.12726300       0.01483500
P        1.48416340       4.21770442       2.80145904       0.00000000 NULL       0.25143800       0.12726500      -0.01483500
P       -1.48416385       4.21770426       2.80145904       0.00000000 NULL      -0.25144000       0.12726300      -0.01483500
P        3.21272967       1.94908693      10.03901369       0.00000000 NULL      -0.25143800      -0.12726500       0.01483500
P       -1.51180605       1.87214603       8.54786613       0.00000000 NULL      -0.21976500      -0.63999400       0.07040900
P        3.18508722       4.29464516       4.29260660       0.00000000 NULL      -0.21976500       0.63999400      -0.07040900
P        6.20869912       4.29464532       4.29260660       0.00000000 NULL       0.21976500       0.63999400      -0.07040900
P        1.51180585       1.87214619       8.54786613       0.00000000 NULL       0.21976500      -0.63999400       0.07040900
44
Lattice="9.41568416247481 5.062863542526772e-07 3.719972070985969e-16 -4.707842533898507 8.418385793874657 0.6220355688152693 1.2309410199235863e-07 -2.289248327686075 12.313857327776224" Properties=species:S:1:pos:R:3:initial_magmoms:R:1:castep_labels:S:1:forces:R:3 n_minim_iter=3 energy=-229.11943088453 stress="0.0011848534715148483 1.0106480646168431e-08 -0.0 1.0106480646168431e-08 0.0003219722604256338 0.0004541347078355785 -0.0 0.0004541347078355785 0.0017453487816707033" free_energy=-229.11943088453 pbc="T T T"
P       -1.51563078       2.53633213      11.58111625       0.00000000 NULL      -0.12162000       0.31867400      -0.45635000
P        3.19221125       3.59280568       1.35477664       0.00000000 NULL      -0.12162100      -0.31867600       0.45635000
P        6.22347253       3.59280584       1.35477664       0.00000000 NULL       0.12162000      -0.31867400       0.45635000
P        1.51563050       2.53633229      11.58111625       0.00000000 NULL       0.12162100       0.31867600      -0.45635000
P        3.44488110       3.28968480      12.49808149       0.00000000 NULL       0.05644900       0.06026200      -0.08113800
P       -1.26296096       2.83945303       0.43781140       0.00000000 NULL       0.05645000      -0.06026400       0.08113800
P        1.26296065       2.83945317       0.43781140       0.00000000 NULL      -0.05644900      -0.06026200       0.08113800
P        5.97080271       3.28968494      12.49808149       0.00000000 NULL      -0.05645000       0.06026400      -0.08113800
P        1.11187324       6.35710475       2.29490119       0.00000000 NULL      -0.53133300      -0.25167600       0.00181900
P        5.81971568      -0.22796666      10.64099170       0.00000000 NULL      -0.53133300       0.25167600      -0.00181900
P        3.59596851      -0.22796678      10.64099170       0.00000000 NULL       0.53133300       0.25167600      -0.00181900
P       -1.11187392       6.35710463       2.29490119       0.00000000 NULL       0.53133300      -0.25167600       0.00181900
P        3.54319937       4.41139648       9.27183339       0.00000000 NULL       0.54152200       0.00750400       0.13078500
P       -1.16464257       1.71774137       3.66405950       0.00000000 NULL       0.54152200      -0.00750600      -0.13078600
P        1.16464238       1.71774149       3.66405950       0.00000000 NULL      -0.54152200      -0.00750400      -0.13078500
P        5.87248432       4.41139661       9.27183339       0.00000000 NULL      -0.54152200       0.00750600       0.13078600
P       -1.11138011       3.98939490       8.61819867       0.00000000 NULL      -0.37347100       0.29950100      -0.12018700
P        3.59646207       2.13974295       4.31769422       0.00000000 NULL      -0.37347100      -0.29950100       0.12018700
P        5.81922186       2.13974307       4.31769422       0.00000000 NULL       0.37347100      -0.29950100       0.12018700
P        1.11137968       3.98939502       8.61819867       0.00000000 NULL       0.37347100       0.29950100      -0.12018700
P        3.57158098       5.57936514       7.19411403       0.00000000 NULL      -0.26021200       0.24254900      -0.01648900
P        8.27942334       0.54977322       5.74177886       0.00000000 NULL      -0.26021100      -0.24254700       0.01649000
P        1.13626077       0.54977283       5.74177886       0.00000000 NULL       0.26021200      -0.24254900       0.01648900
P       -3.57158159       5.57936476       7.19411403       0.00000000 NULL       0.26021100       0.24254700      -0.01648900
P       -2.46854879       7.44102394       7.88370684       0.00000000 NULL      -0.05134800      -0.32489200      -0.28130500
P        2.23929376      -1.31188623       5.05218605       0.00000000 NULL      -0.05135000       0.32489300       0.28130600
P        7.17639054      -1.31188597       5.05218605       0.00000000 NULL       0.05134800       0.32489200       0.28130500
P        2.46854799       7.44102421       7.88370684       0.00000000 NULL       0.05135000      -0.32489300      -0.28130600
P       -1.90895845       4.09160257       6.30092183       0.00000000 NULL      -0.09138400      -0.02723700       0.09241200
P        2.79888374       2.03753520       6.63497106       0.00000000 NULL      -0.09138300       0.02723500      -0.09241100
P        6.61680020       2.03753540       6.63497106       0.00000000 NULL       0.09138400       0.02723700      -0.09241200
P        1.90895801       4.09160278       6.30092183       0.00000000 NULL       0.09138300      -0.02723500       0.09241100
P        1.16018013       0.75525016       1.62968861       0.00000000 NULL      -0.39671700       0.13347400      -0.04754600
P       -3.54766220       5.37388744      11.30620428       0.00000000 NULL      -0.39671800      -0.13347700       0.04754500
P        3.54766162       5.37388782      11.30620428       0.00000000 NULL       0.39671800      -0.13347400       0.04754600
P        8.25550395       0.75525054       1.62968861       0.00000000 NULL       0.39671800       0.13347700      -0.04754500
P        6.19587929       1.91845290      10.12273404       0.00000000 NULL       0.31910600      -0.10787800       0.03233000
P        1.48803708       4.21068523       2.81315885       0.00000000 NULL       0.31910700       0.10788000      -0.03233000
P       -1.48803754       4.21068507       2.81315885       0.00000000 NULL      -0.31910600       0.10787800      -0.03233000
P        3.21980467       1.91845274      10.12273404       0.00000000 NULL      -0.31910700      -0.10788000       0.03233000
P       -1.51566918       1.84544527       8.61861472       0.00000000 NULL      -0.29321000      -0.56184400       0.02757200
P        3.19217277       4.28369254       4.31727817       0.00000000 NULL      -0.29321100       0.56184300      -0.02757200
P        6.22351094       4.28369270       4.31727817       0.00000000 NULL       0.29321000       0.56184400      -0.02757200
P        1.51566899       1.84544543       8.61861472       0.00000000 NULL       0.29321100      -0.56184300       0.02757200
44
Lattice="9.37179227704518 5.039262641660164e-07 2.7843072622017695e-16 -4.685896591404781 8.42249750511028 0.5480641660425146 1.2875091285659503e-07 -2.3944511345400783 12.3226727316903" Properties=species:S:1:pos:R:3:initial_magmoms:R:1:castep_labels:S:1:forces:R:3 n_minim_iter=4 energy=-229.17579887158 stress="-0.003948758488520625 0.0 0.0 0.0 0.002146246479492522 -0.0030811327652900127 0.0 -0.0030811327652900127 0.00014059234270582995" free_energy=-229.17579887158 pbc="T T T"
P       -1.50969252       2.44621337      11.54313756       0.00000000 NULL      -0.01209400       0.20243400      -0.36400800
P        3.17620356       3.58183334       1.32759933       0.00000000 NULL      -0.01209600      -0.20243500       0.36400700
P        6.19558833       3.58183351       1.32759933       0.00000000 NULL       0.01209400      -0.20243400       0.36400800
P        1.50969225       2.44621353      11.54313756       0.00000000 NULL       0.01209600       0.20243500      -0.36400700
P        3.42957668       3.18988178      12.45722964       0.00000000 NULL       0.04967900       0.05754600      -0.00471200
P       -1.25631944       2.83816496       0.41350725       0.00000000 NULL       0.04968200      -0.05754800       0.00471100
P        1.25631914       2.83816509       0.41350725       0.00000000 NULL      -0.04967900      -0.05754600       0.00471200
P        5.94221526       3.18988192      12.45722964       0.00000000 NULL      -0.04968200       0.05754800      -0.00471100
P        1.10092440       6.34230327       2.23744827       0.00000000 NULL      -0.35596300      -0.29126400       0.00928000
P        5.78682089      -0.31425628      10.63328862       0.00000000 NULL      -0.35596300       0.29126400      -0.00928000
P        3.58497142      -0.31425640      10.63328862       0.00000000 NULL       0.35596300       0.29126400      -0.00928000
P       -1.10092508       6.34230316       2.23744827       0.00000000 NULL       0.35596300      -0.29126400       0.00928000
P        3.53251596       4.33887540       9.22634212       0.00000000 NULL       0.43417300      -0.00892200      -0.00319500
P       -1.15338004       1.68917135       3.64439477       0.00000000 NULL       0.43417400       0.00892000       0.00319400
P        1.15337986       1.68917147       3.64439477       0.00000000 NULL      -0.43417300       0.00892200       0.00319500
P        5.83927585       4.33887553       9.22634212       0.00000000 NULL      -0.43417400      -0.00892000      -0.00319400
P       -1.11028420       3.92510032       8.57432811       0.00000000 NULL      -0.34743100       0.20520500      -0.09034200
P        3.57561203       2.10294644       4.29640878       0.00000000 NULL      -0.34743200      -0.20520500       0.09034200
P        5.79618002       2.10294656       4.29640878       0.00000000 NULL       0.34743100      -0.20520500       0.09034200
P        1.11028378       3.92510044       8.57432811       0.00000000 NULL       0.34743200       0.20520500      -0.09034200
P        3.55217772       5.52823140       7.13865138       0.00000000 NULL      -0.23804700       0.17344900       0.02061100
P        8.23807413       0.49981586       5.73208551       0.00000000 NULL      -0.23804600      -0.17344600      -0.02061100
P        1.13371809       0.49981548       5.73208551       0.00000000 NULL       0.23804700      -0.17344900      -0.02061100
P       -3.55217832       5.52823101       7.13865138       0.00000000 NULL       0.23804600       0.17344600       0.02061100
P       -2.45754588       7.38008703       7.80908899       0.00000000 NULL      -0.03746700      -0.22946100      -0.16095100
P        2.22835073      -1.35204042       5.06164790       0.00000000 NULL      -0.03746800       0.22946200       0.16095200
P        7.14344169      -1.35204016       5.06164790       0.00000000 NULL       0.03746700       0.22946100       0.16095100
P        2.45754509       7.38008730       7.80908899       0.00000000 NULL       0.03746800      -0.22946200      -0.16095200
P       -1.90099566       4.04329450       6.26055878       0.00000000 NULL      -0.03249700      -0.04866000       0.15178800
P        2.78490059       1.98475217       6.61017811       0.00000000 NULL      -0.03249600       0.04865800      -0.15178700
P        6.58689147       1.98475238       6.61017811       0.00000000 NULL       0.03249700       0.04866000      -0.15178800
P        1.90099522       4.04329470       6.26055878       0.00000000 NULL       0.03249600      -0.04865800       0.15178700
P        1.15058831       0.74372449       1.62088614       0.00000000 NULL      -0.26519500       0.13699000      -0.18433300
P       -3.53530807       5.28432200      11.24985075       0.00000000 NULL      -0.26519600      -0.13699300       0.18433200
P        3.53530750       5.28432238      11.24985075       0.00000000 NULL       0.26519600      -0.13699000       0.18433300
P        8.22120389       0.74372487       1.62088614       0.00000000 NULL       0.26519500       0.13699300      -0.18433200
P        6.17024692       1.83488436      10.09720851       0.00000000 NULL       0.21588600      -0.13285400       0.05178300
P        1.48435066       4.19316267       2.77352838       0.00000000 NULL       0.21588800       0.13285500      -0.05178300
P       -1.48435111       4.19316251       2.77352838       0.00000000 NULL      -0.21588600       0.13285400      -0.05178300
P        3.20154516       1.83488420      10.09720851       0.00000000 NULL      -0.21588800      -0.13285500       0.05178300
P       -1.51153787       1.76962286       8.59532791       0.00000000 NULL      -0.20236900      -0.42128300      -0.04216100
P        3.17435814       4.25842385       4.27540898       0.00000000 NULL      -0.20237100       0.42128100       0.04216000
P        6.19743368       4.25842402       4.27540898       0.00000000 NULL       0.20236900       0.42128300       0.04216100
P        1.51153768       1.76962302       8.59532791       0.00000000 NULL       0.20237100      -0.42128100      -0.04215900
44
Lattice="9.644144735462069 5.185708009446412e-07 2.4792783570690463e-16 -4.822072812731492 8.275916601612359 0.5129549733116376 1.2901712507304232e-07 -2.399402029582005 12.248563590784276" Properties=species:S:1:pos:R:3:initial_magmoms:R:1:castep_labels:S:1:forces:R:3 n_minim_iter=5 energy=-229.323645365609 stress="0.007510369785231498 1.0106333015174226e-08 -0.0 1.0106333015174226e-08 -0.005072742474637505 -0.003272824777301006 -0.0 -0.003272824777301006 -0.004252148659137419" free_energy=-229.323645365609 pbc="T T T"
P       -1.55948934       2.38178669      11.42444794       0.00000000 NULL      -0.13106400       0.29021100      -0.05174900
P        3.26258297       3.49472823       1.33707061       0.00000000 NULL      -0.13106200      -0.29021300       0.05175000
P        6.38156139       3.49472840       1.33707061       0.00000000 NULL       0.13106400      -0.29021100       0.05174900
P        1.55948908       2.38178686      11.42444794       0.00000000 NULL       0.13106200       0.29021300      -0.05174900
P        3.53379289       3.09313631      12.35705200       0.00000000 NULL      -0.09659300      -0.21840700      -0.14117900
P       -1.28827946       2.78337864       0.40446655       0.00000000 NULL      -0.09659400       0.21840700       0.14118000
P        1.28827916       2.78337878       0.40446655       0.00000000 NULL       0.09659300       0.21840700       0.14117900
P        6.11035151       3.09313645      12.35705200       0.00000000 NULL       0.09659400      -0.21840700      -0.14118000
P        1.09863781       6.20843270       2.19928938       0.00000000 NULL      -0.33713600      -0.00036700      -0.04052500
P        5.92071053      -0.33191749      10.56222917       0.00000000 NULL      -0.33713500       0.00036700       0.04052500
P        3.72343424      -0.33191761      10.56222917       0.00000000 NULL       0.33713600       0.00036700       0.04052500
P       -1.09863848       6.20843258       2.19928938       0.00000000 NULL       0.33713500      -0.00036700      -0.04052500
P        3.67083759       4.22941481       9.15476666       0.00000000 NULL       0.28934900      -0.19303100      -0.26166000
P       -1.15123464       1.64710016       3.60675190       0.00000000 NULL       0.28934800       0.19303000       0.26165900
P        1.15123446       1.64710028       3.60675190       0.00000000 NULL      -0.28934900       0.19303100       0.26166000
P        5.97330669       4.22941493       9.15476666       0.00000000 NULL      -0.28934800      -0.19303000      -0.26165900
P       -1.16808757       3.84391250       8.49416599       0.00000000 NULL       0.17828300       0.07242600      -0.00663500
P        3.65398489       2.03260247       4.26735257       0.00000000 NULL       0.17828400      -0.07242700       0.00663500
P        5.99015962       2.03260260       4.26735257       0.00000000 NULL      -0.17828300      -0.07242600       0.00663500
P        1.16808716       3.84391262       8.49416599       0.00000000 NULL      -0.17828400       0.07242700      -0.00663500
P        3.63814134       5.42198777       7.06858278       0.00000000 NULL       0.13974200      -0.18354900      -0.09228400
P        8.46021397       0.45452771       5.69293577       0.00000000 NULL       0.13974200       0.18355000       0.09228400
P        1.18393071       0.45452732       5.69293577       0.00000000 NULL      -0.13974200       0.18354900       0.09228400
P       -3.63814192       5.42198738       7.06858278       0.00000000 NULL      -0.13974200      -0.18355000      -0.09228400
P       -2.53202337       7.20479894       7.71400318       0.00000000 NULL       0.22213300       0.01978600       0.51954000
P        2.29004946      -1.32828412       5.04751538       0.00000000 NULL       0.22213200      -0.01978600      -0.51953900
P        7.35409542      -1.32828385       5.04751538       0.00000000 NULL      -0.22213300      -0.01978600      -0.51954000
P        2.53202259       7.20479921       7.71400318       0.00000000 NULL      -0.22213200       0.01978600       0.51953900
P       -1.96144022       3.94847152       6.21039226       0.00000000 NULL       0.07555100       0.11739000       0.18666000
P        2.86063226       1.92804336       6.55112630       0.00000000 NULL       0.07555400      -0.11739300      -0.18666000
P        6.78351227       1.92804357       6.55112630       0.00000000 NULL      -0.07555100      -0.11739000      -0.18666000
P        1.96143979       3.94847173       6.21039226       0.00000000 NULL      -0.07555400       0.11739300       0.18666000
P        1.15906811       0.73267345       1.60097901       0.00000000 NULL      -0.27342700      -0.13216600      -0.34868200
P       -3.66300449       5.14384125      11.16053955       0.00000000 NULL      -0.27342800       0.13216200       0.34868000
P        3.66300394       5.14384164      11.16053955       0.00000000 NULL       0.27342700       0.13216600       0.34868200
P        8.48507655       0.73267384       1.60097901       0.00000000 NULL       0.27342800      -0.13216200      -0.34868000
P        6.36911472       1.75777462      10.02490174       0.00000000 NULL       0.11518200       0.11558300       0.02811200
P        1.54704223       4.11874064       2.73661682       0.00000000 NULL       0.11518000      -0.11558100      -0.02811100
P       -1.54704267       4.11874048       2.73661682       0.00000000 NULL      -0.11518200      -0.11558300      -0.02811200
P        3.27502982       1.75777445      10.02490174       0.00000000 NULL      -0.11518000       0.11558100       0.02811100