32
Lattice="7.049797042491188 -0.33283051474018965 1.0332248796496661 0.6658531396374701 7.026169232824857 1.0332248796496626 3.4206111540101034 2.967385578169328 14.543506598246317" Properties=species:S:1:pos:R:3:initial_magmoms:R:1:castep_labels:S:1:forces:R:3 n_minim_iter=1 energy=-167.935113901918 stress="0.003633725454993294 -0.0007416530759075265 -0.0015425074294408896 -0.0007416530759075265 0.0038452660441779902 -0.001338134707950801 -0.0015425074294408896 -0.001338134707950801 0.0017185331515296683" free_energy=-167.935113901918 pbc="T T T"
P        6.99083112       3.52062827       4.42624597       0.00000000 NULL      -0.01028800       0.04038400       0.00456600
P        6.66387581       3.23699401      12.18371039       0.00000000 NULL      -0.03852800       0.01588700      -0.00456600
P        4.55422139       5.15807892      12.62410504       0.00000000 NULL       0.03951100       0.09057800       0.02214300
P        5.38684896       5.88038465       3.98585132       0.00000000 NULL      -0.09524800      -0.02632800      -0.02214300
P        7.72296356       4.28445686      15.08570977       0.00000000 NULL       0.10839100       0.21820300       0.34172500
P        5.80433007       2.62003928       1.52424659       0.00000000 NULL      -0.23132000      -0.07649800      -0.34172500
P        7.95519003       1.70256541       5.28685456       0.00000000 NULL       0.21745300       0.01433900       0.09592000
P        8.32757036       2.02560594      11.32310180       0.00000000 NULL      -0.04489700      -0.21325000      -0.09592000
P        4.28990651       3.15177377       8.29215283       0.00000000 NULL       0.13543800      -0.12430600      -0.00451600
P        7.41037463       5.85878479       8.31780353       0.00000000 NULL       0.10394000      -0.15163100       0.00451600
P        7.08225706       1.44843387       9.48953836       0.00000000 NULL      -0.34744300      -0.09542000       0.20627400
P        8.70240422       2.85391409       7.12041800       0.00000000 NULL       0.14351700       0.33049200      -0.20627500
P        4.12533686       4.68174223       1.37200405       0.00000000 NULL       0.18416900      -0.02939200      -0.06210600
P        5.91896759       6.23771972      15.23795231       0.00000000 NULL       0.00309400      -0.18647300       0.06210500
P       10.17108154       6.53314899      14.16328362       0.00000000 NULL       0.10229300      -0.04491300      -0.03684600
P        3.23251779       0.51393398       2.44667274       0.00000000 NULL       0.03001900      -0.10760800       0.03684600
P        5.58255558       9.00330158      11.14916473       0.00000000 NULL       0.26242100       0.04871600      -0.04637700
P        1.43495601       5.40525240       5.46079163       0.00000000 NULL      -0.08527800      -0.25291600       0.04637800
P        4.74557555       5.40996032      10.45451049       0.00000000 NULL       0.09590300       0.08290800      -0.04284700
P        5.11047373       5.72651007       6.15544587       0.00000000 NULL      -0.09561700      -0.08323700       0.04284800
P        7.39252672       3.58683036      10.05735021       0.00000000 NULL       0.23917900       0.17148100      -0.19226400
P        6.54162212       2.84866927       6.55260615       0.00000000 NULL      -0.20353100      -0.21257200       0.19226400
P        5.14497243       2.42432254       3.70931824       0.00000000 NULL      -0.16425600       0.07879000       0.16051000
P        8.00981341       4.90957661      12.90063812       0.00000000 NULL      -0.05481000       0.17373500      -0.16051000
P        3.77579829       4.31474865       3.52899843       0.00000000 NULL       0.18601400       0.02806300       0.05538700
P        6.33163569       6.53194163      13.08095793       0.00000000 NULL      -0.05404500      -0.18018900      -0.05538700
P        2.34128175       6.26709449       8.27132585       0.00000000 NULL      -0.22211000       0.08127400      -0.10328900
P        4.60138410       8.22773685       8.33863051       0.00000000 NULL      -0.04910000       0.23135900       0.10328900
P        3.15138045       6.62726793       6.25676781       0.00000000 NULL      -0.08524400       0.13118800       0.08681500
P        4.13044207       7.47660543      10.35318855       0.00000000 NULL      -0.11783900       0.10291200      -0.08681500
P        2.58804799       6.18175486       2.27626257       0.00000000 NULL      -0.03708400      -0.08087100       0.09044000
P        4.65102833       7.97139356      14.33369379       0.00000000 NULL       0.08529600       0.02529500      -0.09044000
32
Lattice="7.022227683084847 -0.32386811022732365 1.0430523640796303 0.6708332915478712 6.997610655134825 1.0430523640796265 3.434470601628719 2.9794086708662757 14.52561339337778" Properties=species:S:1:pos:R:3:initial_magmoms:R:1:castep_labels:S:1:forces:R:3 n_minim_iter=2 energy=-167.952820749891 stress="-0.0005956379532173042 0.0003005389547510807 -0.0012498038744637428 0.0003005389547510807 -0.0006813657026707243 -0.0010842056435567625 -0.0012498038744637428 -0.0010842056435567625 -0.0024965673350038943" free_energy=-167.952820749891 pbc="T T T"
P        6.97267824       3.51793361       4.43520958       0.00000000 NULL       0.00389100       0.12261200      -0.07650200
P        6.66037669       3.24701152      12.17650854       0.00000000 NULL      -0.12193300       0.01345900       0.07650200
P        4.56195066       5.15872262      12.61531224       0.00000000 NULL       0.02314300       0.00263000       0.05937900
P        5.37639067       5.86525061       3.99640588       0.00000000 NULL      -0.00587200      -0.02253900      -0.05937900
P        7.72130632       4.29554110      15.07687067       0.00000000 NULL       0.11255300       0.15654600       0.33985600
P        5.78486109       2.61567180       1.53484745       0.00000000 NULL      -0.17086900      -0.08932300      -0.33985600
P        7.93341405       1.70988918       5.29321801       0.00000000 NULL       0.29643200      -0.10377500       0.07050800
P        8.31466472       2.04062473      11.31850011       0.00000000 NULL       0.06088400      -0.30811400      -0.07050800
P        4.28960763       3.15401528       8.28826082       0.00000000 NULL       0.11710700      -0.00911200      -0.04550300
P        7.39946802       5.85182407       8.32345730       0.00000000 NULL      -0.00751300      -0.11722100       0.04550300
P        7.07028822       1.46233548       9.48596375       0.00000000 NULL      -0.30116800      -0.17386900       0.16216300
P        8.68160197       2.86015270       7.12575438       0.00000000 NULL       0.21464900       0.27360100      -0.16216300
P        4.11496398       4.66680381       1.38356413       0.00000000 NULL       0.24024600      -0.00673400      -0.13315000
P        5.92649113       6.23830648      15.22815399       0.00000000 NULL      -0.02725400      -0.23879000       0.13315000
P       10.15958578       6.53463041      14.16331667       0.00000000 NULL       0.02904200       0.03113600      -0.06178000
P        3.22394452       0.51795066       2.44840145       0.00000000 NULL      -0.03492200      -0.02435500       0.06178100
P        5.58706785       8.98570441      11.15078286       0.00000000 NULL       0.24316100       0.04897900       0.03250400
P        1.44301007       5.39072774       5.46093526       0.00000000 NULL      -0.08281900      -0.23380800      -0.03250400
P        4.74902032       5.40635478      10.45056298       0.00000000 NULL       0.12918600      -0.01052300      -0.09741900
P        5.10482703       5.71501767       6.16115514       0.00000000 NULL      -0.00782200      -0.12937800       0.09741900
P        7.38305363       3.59296207      10.05579478       0.00000000 NULL       0.23827500       0.28526400      -0.27179200
P        6.52815956       2.85134011       6.55592334       0.00000000 NULL      -0.31604800      -0.19561200       0.27179200
P        5.13200212       2.42383644       3.71504273       0.00000000 NULL      -0.16308800      -0.00351200       0.21056800
P        8.00339614       4.91477528      12.89667539       0.00000000 NULL       0.02650300       0.16095900      -0.21056800
P        3.77034145       4.30449336       3.53537405       0.00000000 NULL       0.11804300       0.00799400       0.11067500
P        6.33382893       6.52832281      13.07634407       0.00000000 NULL      -0.02458000      -0.11573100      -0.11067500
P        2.35101575       6.25439849       8.26862921       0.00000000 NULL      -0.21049800       0.07511400       0.00838100
P        4.60384883       8.20873475       8.34308891       0.00000000 NULL      -0.04464200       0.21899400      -0.00838100
P        3.15477425       6.61070355       6.26029033       0.00000000 NULL      -0.10496900       0.18291200       0.04480600
P        4.13763159       7.46333385      10.35142779       0.00000000 NULL      -0.16626000       0.12974100      -0.04480600
P        2.58649852       6.16025786       2.28589856       0.00000000 NULL      -0.12625400      -0.04603400       0.08697800
P        4.66379900       7.96231930      14.32581957       0.00000000 NULL       0.06339800       0.11848900      -0.08697900
32
Lattice="7.0130169674376495 -0.3190265585505741 1.0829716521114614 0.6743258979046008 6.987808634618162 1.0829716521114574 3.501426102962971 3.0374926740144934 14.632788838329699" Properties=species:S:1:pos:R:3:initial_magmoms:R:1:castep_labels:S:1:forces:R:3 n_minim_iter=3 energy=-167.969384042267 stress="0.0005135343834982346 0.00155622074155056 0.0007874154178771962 0.00155622074155056 6.967619269914875e-05 0.0006830797857328299 0.0007874154178771962 0.0006830797857328299 0.0006988611456176799" free_energy=-167.969384042267 pbc="T T T"
P        6.98066661       3.53049271       4.50943806       0.00000000 NULL      -0.02384100       0.10309200      -0.09767600
P        6.70805292       3.29399990      12.28929408       0.00000000 NULL      -0.09869300       0.03815700       0.09767600
P        4.61681850       5.20393128      12.72813496       0.00000000 NULL       0.05151400       0.01861100       0.03935100
P        5.38512556       5.87043887       4.07059718       0.00000000 NULL      -0.02569700      -0.04837100      -0.03935100
P        7.78275194       4.35408236      15.21663133       0.00000000 NULL       0.13268200       0.17656100       0.35225500
P        5.77946823       2.61623057       1.58210082       0.00000000 NULL      -0.19352500      -0.10642400      -0.35225500
P        7.94547355       1.72894108       5.36961824       0.00000000 NULL       0.31524800      -0.06353900       0.14543500
P        8.35533840       2.08449948      11.42911390       0.00000000 NULL       0.01839200      -0.32106100      -0.14543600
P        4.32357457       3.18379249       8.36756363       0.00000000 NULL       0.13234600      -0.04153200      -0.07725600
P        7.42643074       5.87552512       8.43116852       0.00000000 NULL       0.02242800      -0.13688400       0.07725500
P        7.10226556       1.50009169       9.57944296       0.00000000 NULL      -0.23314400      -0.11721700       0.22488400
P        8.70094654       2.88694996       7.21928918       0.00000000 NULL       0.14896300       0.21426100      -0.22488300
P        4.11447186       4.66300740       1.43189626       0.00000000 NULL       0.20958200      -0.02631100      -0.11396900
P        5.99155639       6.29138119      15.36683589       0.00000000 NULL      -0.00354400      -0.21119600       0.11396900
P       10.21078507       6.58342571      14.31837383       0.00000000 NULL       0.08587000       0.09739100      -0.00509100
P        3.22964665       0.52727711       2.48035831       0.00000000 NULL      -0.10854200      -0.07126200       0.00508900
P        5.63332280       9.01661236      11.27788523       0.00000000 NULL       0.17443100       0.02659100      -0.00793000
P        1.46711846       5.40242352       5.52084691       0.00000000 NULL      -0.05095400      -0.16893300       0.00792900
P        4.79293376       5.44136972      10.55329546       0.00000000 NULL       0.13846400      -0.03349400      -0.00668000
P        5.12520017       5.72961136       6.24543669       0.00000000 NULL       0.01360900      -0.14180600       0.00668000
P        7.42026485       3.63113671      10.16092513       0.00000000 NULL       0.23229300       0.26367800      -0.25178500
P        6.54635092       2.87301499       6.63780702       0.00000000 NULL      -0.29383700      -0.19273900       0.25178400
P        5.13928280       2.43511415       3.77266243       0.00000000 NULL      -0.11933900      -0.00699200       0.22812700
P        8.05244084       4.96228335      13.02606972       0.00000000 NULL       0.02377100       0.11715600      -0.22812700
P        3.78109691       4.31116428       3.59286083       0.00000000 NULL       0.11451800       0.02222500       0.07056100
P        6.38694368       6.57174047      13.20587131       0.00000000 NULL      -0.03817100      -0.11023300      -0.07056100
P        2.38680780       6.27849765       8.35172774       0.00000000 NULL      -0.25839900       0.08291200      -0.04120400
P        4.63617506       8.22982729       8.44700440       0.00000000 NULL      -0.04559800       0.26751900       0.04120600
P        3.17925602       6.62563579       6.33895758       0.00000000 NULL      -0.15263100       0.14117600       0.02140700
P        4.18062978       7.49432911      10.45977456       0.00000000 NULL      -0.11821000       0.17103700      -0.02140600
P        2.59185132       6.15725659       2.33892731       0.00000000 NULL      -0.07231200      -0.01223400       0.13880200
P        4.72725184       8.00971992      14.45980483       0.00000000 NULL       0.02232300       0.06986200      -0.13880000
32
Lattice="6.989037464519133 -0.3634105433159949 1.0986843411486091 0.6270008910724373 6.970335844565859 1.0986843411486051 3.4957340654889513 3.032554822516523 14.68434865612569" Properties=species:S:1:pos:R:3:initial_magmoms:R:1:castep_labels:S:1:forces:R:3 n_minim_iter=4 energy=-167.986734146305 stress="-0.0009486902861681954 -0.0014075426445789637 0.0001137980143266637 -0.0014075426445789637 -0.0005471627250491967 9.872354977951867e-05 0.0001137980143266637 9.872354977951867e-05 0.0012219579085981556" free_energy=-167.986734146305 pbc="T T T"
P        6.93763214       3.48522432       4.53982573       0.00000000 NULL       0.06776200       0.09245500      -0.04520200
P        6.68194727       3.26341729      12.34189161       0.00000000 NULL      -0.10109600      -0.05402900       0.04520200
P        4.58888979       5.18396318      12.78072296       0.00000000 NULL      -0.03792700      -0.02033000      -0.02033100
P        5.33184029       5.82847392       4.10099438       0.00000000 NULL       0.02548200       0.03467800       0.02033100
P        7.75367402       4.32085107      15.28435073       0.00000000 NULL       0.01487200       0.08803300       0.25523500
P        5.73947555       2.57353072       1.59736661       0.00000000 NULL      -0.08925100      -0.00229500      -0.25523400
P        7.91603786       1.68045360       5.40357764       0.00000000 NULL       0.21338100       0.04134800       0.15324500
P        8.33049960       2.03999981      11.47813970       0.00000000 NULL      -0.07106300      -0.20540600      -0.15324700
P        4.30281557       3.16188160       8.40313670       0.00000000 NULL       0.14361700       0.03859700      -0.04225900
P        7.37405653       5.82618799       8.47858064       0.00000000 NULL      -0.05849300      -0.13672800       0.04225600
P        7.07921505       1.46414446       9.62389779       0.00000000 NULL      -0.20192600      -0.13939100       0.21331900
P        8.66279159       2.83789960       7.25781955       0.00000000 NULL       0.16650900       0.18022500      -0.21331700
P        4.07212332       4.62778213       1.44988186       0.00000000 NULL       0.23449500       0.05285500      -0.04016700
P        5.95541137       6.26153749      15.43183548       0.00000000 NULL      -0.08543300      -0.22468300       0.04016700
P       10.15454425       6.52623050      14.38726545       0.00000000 NULL       0.10529600       0.06535200      -0.04681000
P        3.21721294       0.50808463       2.49445190       0.00000000 NULL      -0.07956700      -0.09501800       0.04680700
P        5.57499230       8.97947080      11.33420931       0.00000000 NULL       0.17456500       0.08504000      -0.00262400
P        1.43512701       5.38813112       5.54750803       0.00000000 NULL      -0.10883800      -0.16081400       0.00262300
P        4.75951038       5.41560977      10.59959554       0.00000000 NULL       0.12394900       0.01183400       0.04359600
P        5.07842452       5.69226830       6.28212180       0.00000000 NULL      -0.02921600      -0.12103600      -0.04359700
P        7.38881405       3.59419596      10.20565907       0.00000000 NULL       0.27599200       0.22344100      -0.18235500
P        6.51036557       2.83214051       6.67605827       0.00000000 NULL      -0.26017600      -0.24168000       0.18235500
P        5.10805213       2.40210173       3.79929191       0.00000000 NULL      -0.18783200      -0.00976800       0.18707500
P        8.01253543       4.92174558      13.08242543       0.00000000 NULL       0.03619000       0.18457100      -0.18707500
P        3.74559711       4.28307541       3.61795303       0.00000000 NULL       0.06078900      -0.08254100       0.00397500
P        6.34276679       6.53612421      13.26376431       0.00000000 NULL       0.07313200      -0.07183400      -0.00397500
P        2.34874890       6.26442235       8.38895221       0.00000000 NULL      -0.19983400       0.09035600       0.00507300
P        4.57848629       8.19872305       8.49276513       0.00000000 NULL      -0.06123500       0.21059500      -0.00507000
P        3.13305367       6.60300386       6.37362885       0.00000000 NULL      -0.01904300       0.15706500       0.00480300
P        4.13256169       7.47007864      10.50808849       0.00000000 NULL      -0.15279900       0.04103200      -0.00480200
P        2.54379486       6.13048373       2.36171881       0.00000000 NULL      -0.08168700      -0.09884100       0.09914200
P        4.68354498       7.98672034      14.51999853       0.00000000 NULL       0.10938700       0.06691700      -0.09913900
32
Lattice="7.015392514428491 -0.35778316111593883 1.1079180973854945 0.6362929298290582 6.995632368079888 1.1079180973854903 3.549443072389273 3.0791474708235285 14.566281466630906" Properties=species:S:1:pos:R:3:initial_magmoms:R:1:castep_labels:S:1:forces:R:3 n_minim_iter=5 energy=-168.034168139824 stress="0.001030474772435941 -0.0014076238950073564 0.0015546633642442359 -0.0014076238950073564 0.0014319232347019277 0.0013486582963403815 0.0015546633642442359 0.0013486582963403815 -0.0036473278919357277" free_energy=-168.034168139824 pbc="T T T"
P        6.97640565       3.51652720       4.52330876       0.00000000 NULL      -0.01794500      -0.05983300      -0.01861800
P        6.73483968       3.30696834      12.25880890       0.00000000 NULL       0.06176700       0.00931800       0.01861900
P        4.64292186       5.23385683      12.68993537       0.00000000 NULL      -0.01489300      -0.02349600       0.13904700
P        5.36417384       5.85954406       4.09218229       0.00000000 NULL       0.02536600       0.01142400      -0.13904700
P        7.82872592       4.38328195      15.19334941       0.00000000 NULL      -0.05530200       0.00767000       0.00491000
P        5.75642970       2.58556170       1.58876825       0.00000000 NULL       0.00021500       0.05583100      -0.00491100
P        7.97277129       1.70195681       5.38800775       0.00000000 NULL       0.07331300       0.19385900       0.09670200
P        8.39055778       2.06438725      11.39410991       0.00000000 NULL      -0.20226700      -0.04520800      -0.09670100
P        4.34923096       3.19392678       8.34318000       0.00000000 NULL       0.14861000       0.15331700      -0.10239200
P        7.42513514       5.86227851       8.43893766       0.00000000 NULL      -0.17275600      -0.12547600       0.10239500
P        7.11751164       1.48881779       9.56987467       0.00000000 NULL      -0.09003700      -0.00948000       0.11426300
P        8.72231448       2.88098678       7.21224299       0.00000000 NULL       0.02209100       0.08779700      -0.11426600
P        4.10445903       4.64876965       1.45553634       0.00000000 NULL       0.04581500       0.00632300      -0.15302600
P        6.01942476       6.31000544      15.32658133       0.00000000 NULL      -0.01272800      -0.04446400       0.15302600
P       10.23629444       6.59048967      14.29831096       0.00000000 NULL       0.16337400       0.09062000      -0.10373800
P        3.23141138       0.51374255       2.48380670       0.00000000 NULL      -0.11277800      -0.14893600       0.10374000
P        5.64052383       9.04130974      11.26843988       0.00000000 NULL       0.03027300       0.00121000       0.09636700
P        1.45401132       5.40950353       5.51367778       0.00000000 NULL      -0.00547000      -0.02979800      -0.09636500
P        4.81457473       5.46068834      10.52860713       0.00000000 NULL       0.09355800       0.17287600      -0.14591700
P        5.11537916       5.72163666       6.25351053       0.00000000 NULL      -0.18435300      -0.06821300       0.14591800
P        7.45683043       3.64721576      10.13002840       0.00000000 NULL       0.23192700      -0.08337600      -0.16581400
P        6.53762986       2.84980781       6.65208927       0.00000000 NULL       0.04980200      -0.24137500       0.16581500
P        5.12884823       2.42199514       3.79590602       0.00000000 NULL      -0.07593200       0.04410000       0.21102200
P        8.07926122       4.98148307      12.98621164       0.00000000 NULL      -0.03293700       0.08139800      -0.21102200
P        3.77602698       4.30649066       3.60907466       0.00000000 NULL       0.06640000      -0.05767100       0.08409100
P        6.40464585       6.58682168      13.17304300       0.00000000 NULL       0.04771700      -0.07387800      -0.08409000
P        2.37141623       6.31031182       8.33293250       0.00000000 NULL      -0.20792400       0.07276400       0.24539800
P        4.61921223       8.26027840       8.44918516       0.00000000 NULL      -0.04268000       0.21610900      -0.24540100
P        3.16035444       6.64948981       6.34177685       0.00000000 NULL       0.08883200       0.03269600      -0.19787100
P        4.17204295       7.52713119      10.44034081       0.00000000 NULL      -0.04491300      -0.08333000       0.19787000
P        2.55806509       6.15427577       2.36847013       0.00000000 NULL       0.02404900      -0.10424900       0.09917000
P        4.74733258       8.05346877      14.41364754       0.00000000 NULL       0.09980600      -0.03853000      -0.09917200
32
Lattice="7.001240414791888 -0.3304067294424247 1.0937268684312624 0.6613970123997535 6.977756798897826 1.0937268684312582 3.518731885693892 3.052505467864057 14.599263374999595" Properties=species:S:1:pos:R:3:initial_magmoms:R:1:castep_labels:S:1:forces:R:3 n_minim_iter=6 energy=-168.062302565372 stress="-0.0005099866389389352 0.00018163271130512836 -0.00016255055883410182 0.00018163271130512836 -0.0005617617800504242 -0.00014101006150427848 -0.00016255055883410182 -0.00014101006150427848 -0.00041793361590313475" free_energy=-168.062302565372 pbc="T T T"
P        6.96976463       3.52883621       4.50969674       0.00000000 NULL      -0.07723400      -0.12926200       0.09332000
P        6.70383241       3.29813958      12.27702037       0.00000000 NULL       0.13887200       0.05821000      -0.09332000
P        4.62484457       5.21059968      12.70976580       0.00000000 NULL       0.01876700      -0.05665200       0.01421800
P        5.36999111       5.85701548       4.07695131       0.00000000 NULL       0.05343400      -0.02657600      -0.01421800
P        7.79831411       4.37420111      15.22418331       0.00000000 NULL      -0.22493500      -0.11943400      -0.17446800
P        5.74995416       2.59724562       1.56253380       0.00000000 NULL       0.14999500       0.20581900       0.17446800
P        7.96329275       1.71816399       5.38577198       0.00000000 NULL       0.03345100       0.18932800       0.08697200
P        8.35609200       2.05891797      11.40094514       0.00000000 NULL      -0.19215500      -0.00638500      -0.08697400
P        4.33914463       3.18482435       8.35053070       0.00000000 NULL       0.15182200       0.24232400      -0.04452500
P        7.41581125       5.85383751       8.43618642       0.00000000 NULL      -0.26133800      -0.11608800       0.04452200
P        7.08047870       1.48820086       9.58692578       0.00000000 NULL       0.00501600       0.00269800       0.05036700
P        8.70839465       2.90042052       7.19979134       0.00000000 NULL      -0.00337500      -0.00458300      -0.05036500
P        4.12138785       4.65067706       1.43541044       0.00000000 NULL      -0.00280800      -0.08279700      -0.06737000
P        5.99538710       6.27637437      15.35130668       0.00000000 NULL       0.08236500      -0.00891100       0.06737000
P       10.21476079       6.58535176      14.30281909       0.00000000 NULL       0.04032900       0.09080100      -0.07473300
P        3.21977892       0.51719394       2.48389802       0.00000000 NULL      -0.09558700      -0.02710900       0.07473200
P        5.64661784       9.01732655      11.27122009       0.00000000 NULL      -0.07840900       0.02365300       0.09528700
P        1.45713466       5.38294328       5.51549702       0.00000000 NULL      -0.01234800       0.08096100      -0.09528900
P        4.80705520       5.44299194      10.53810471       0.00000000 NULL       0.09567200       0.13093100      -0.06441800
P        5.11420076       5.70944120       6.24861241       0.00000000 NULL      -0.14312700      -0.07622800       0.06441700
P        7.44354606       3.65282717      10.12836681       0.00000000 NULL       0.16163000      -0.21480700      -0.01298800
P        6.51419105       2.84661024       6.65835030       0.00000000 NULL       0.18983000      -0.19034000       0.01298700
P        5.11647174       2.42852585       3.79685168       0.00000000 NULL       0.02210000      -0.01090600       0.10984100
P        8.05478414       4.97751650      12.98986543       0.00000000 NULL       0.00767700      -0.02341900      -0.10984100
P        3.78251886       4.30188749       3.60331249       0.00000000 NULL       0.03743000       0.01108900      -0.02935200
P        6.38852713       6.56260378      13.18340462       0.00000000 NULL      -0.01626200      -0.03548900       0.02935200
P        2.36424386       6.28780309       8.34065756       0.00000000 NULL      -0.07174700       0.09849600       0.15496100
P        4.62274894       8.24705981       8.44605956       0.00000000 NULL      -0.08737800       0.08494000      -0.15495800
P        3.16426648       6.63601705       6.33950222       0.00000000 NULL       0.01074200      -0.01025500      -0.09023000
P        4.16506921       7.50421500      10.44721490       0.00000000 NULL       0.00863800      -0.01207900       0.09023000
P        2.57115225       6.14141937       2.35925113       0.00000000 NULL      -0.02209500      -0.07869500       0.08282500
P        4.73845323       8.02155639      14.42746598       0.00000000 NULL       0.08103000       0.01076600      -0.08282300
32
Lattice="7.003734483351101 -0.3472036920411269 1.1111361190926277 0.6451204428339998 6.982597420107078 1.1111361190926234 3.5555639839653614 3.084457371282352 14.56331328929356" Properties=species:S:1:pos:R:3:initial_magmoms:R:1:castep_labels:S:1:forces:R:3 n_minim_iter=7 energy=-168.136423847622 stress="-0.0006824533610405272 3.8647885647498336e-05 -0.00018640947880815565 3.8647885647498336e-05 -0.0006934805701411952 -0.00016172237084881552 -0.00018640947880815565 -0.00016172237084881552 -0.0008984392287871732" free_energy=-168.136423847622 pbc="T T T"
P        6.96476417       3.51445521       4.53108650       0.00000000 NULL      -0.08244000      -0.02016700       0.10022700
P        6.74182495       3.32105508      12.25449903       0.00000000 NULL       0.03160500       0.07876600      -0.10022700
P        4.65235320       5.23048231      12.69394563       0.00000000 NULL      -0.04576800      -0.02257300      -0.00973200
P        5.36947335       5.85258518       4.09163990       0.00000000 NULL       0.02880900       0.04212200       0.00973200
P        7.81259602       4.39340740      15.20360537       0.00000000 NULL      -0.02405900       0.13076300      -0.11292200
P        5.75197342       2.60581405       1.58198016       0.00000000 NULL      -0.12605600       0.04228000       0.11292200
P        7.99382805       1.73360573       5.41554476       0.00000000 NULL       0.10946300      -0.08206100      -0.20725500
P        8.35954332       2.05086430      11.37004077       0.00000000 NULL       0.06578400      -0.11995200       0.20725500
P        4.38151509       3.22251322       8.33378048       0.00000000 NULL       0.14785700       0.06762500      -0.02881200
P        7.39556731       5.83720828       8.45180505       0.00000000 NULL      -0.08782300      -0.13682800       0.02881200
P        7.08954155       1.48869921       9.59714966       0.00000000 NULL      -0.00755500      -0.10655300      -0.20998200
P        8.72967132       2.91151438       7.18843587       0.00000000 NULL       0.10655200      -0.00756600       0.20998200
P        4.12492735       4.63637429       1.44299645       0.00000000 NULL      -0.02481800      -0.10068600      -0.01374400