36
Lattice="9.598869999999998 -2.7169383705530953e-16 0.0 -4.799435 8.312865267624332 0.0 0.0 0.0 9.921869999999997" Properties=species:S:1:pos:R:3:initial_magmoms:R:1:castep_labels:S:1 n_minim_iter=1 pbc="T T T"
P       -1.58054705       2.82974423       1.80874003       0.00000000 NULL
P        3.13907862       5.52919842       1.80874003       0.00000000 NULL
P       -1.55853012       8.26678705       1.80874003       0.00000000 NULL
P        4.02881804       4.74946164       0.14427391       0.00000000 NULL
P        3.47130703       1.11432711       0.14427391       0.00000000 NULL
P        6.89818138       2.44907568       0.14427391       0.00000000 NULL
P       -0.18711077       2.95558937       6.91886325       0.00000000 NULL
P        2.33337539       6.67302707       6.91886325       0.00000000 NULL
P       -2.14626317       6.99711326       6.91886325       0.00000000 NULL
P        3.93155749       5.62599343       7.90347788       0.00000000 NULL
P        2.76083851       0.59183111       7.90347788       0.00000000 NULL
P        7.70591045       2.09503989       7.90347788       0.00000000 NULL
P        4.23917775       7.26521148       3.53872423       0.00000000 NULL
P        1.18742390       0.03862905       3.53872423       0.00000000 NULL
P        8.97170480       1.00902391       3.53872423       0.00000000 NULL
P       -0.23574105       6.73758644       7.45646688       0.00000000 NULL
P       -0.91761501       4.73991347       7.45646688       0.00000000 NULL
P        1.15335751       5.14822979       7.45646688       0.00000000 NULL
P        5.89573874       3.36546932       4.20566340       0.00000000 NULL
P        3.73641919       3.42312403       4.20566340       0.00000000 NULL
P        4.76614852       1.52427109       4.20566340       0.00000000 NULL
P        0.36391236       7.59712757       1.72497465       0.00000000 NULL
P       -1.96182617       4.82945800       1.72497465       0.00000000 NULL
P        1.59791526       4.19914414       1.72497465       0.00000000 NULL
P        3.03933580       2.92020732       1.02223141       0.00000000 NULL
P        5.55022886       1.17203752       1.02223141       0.00000000 NULL
P        5.80874179       4.22061960       1.02223141       0.00000000 NULL
P        7.69972589       0.70535327       9.40598435       0.00000000 NULL
P        5.13815369       6.31548075       9.40598435       0.00000000 NULL
P        1.56042687       1.29203041       9.40598435       0.00000000 NULL
P        6.70154372       4.04623480       6.00744920       0.00000000 NULL
P        2.74395650       3.78058887       6.00744920       0.00000000 NULL
P        4.95280623       0.48604076       6.00744920       0.00000000 NULL
P        6.32454138       2.11433489       2.65751335       0.00000000 NULL
P        4.60553207       4.42004522       2.65751335       0.00000000 NULL
P        3.46823300       1.77848432       2.65751335       0.00000000 NULL
36
Lattice="9.6955867866948 2.2871989997383864e-17 0.0 -4.847793393347401 8.396624461874431 0.0 0.0 0.0 10.003873348616084" Properties=species:S:1:pos:R:3:initial_magmoms:R:1:castep_labels:S:1 n_minim_iter=2 pbc="T T T"
P       -1.59584396       2.85821328       1.82379630       0.00000000 NULL
P        3.17043056       5.58547557       1.82379630       0.00000000 NULL
P       -1.57458513       8.34955924       1.82379630       0.00000000 NULL
P        4.06924946       4.79722408       0.14502956       0.00000000 NULL
P        3.50644463       1.12546052       0.14502956       0.00000000 NULL
P        6.96768756       2.47393902       0.14502956       0.00000000 NULL
P       -0.18879960       2.98507115       6.97592124       0.00000000 NULL
P        2.35704623       6.74058279       6.97592124       0.00000000 NULL
P       -2.16824517       7.06759414       6.97592124       0.00000000 NULL
P        3.97117254       5.68251872       7.96860742       0.00000000 NULL
P        2.78879543       0.59787610       7.96860742       0.00000000 NULL
P        7.78341367       2.11622880       7.96860742       0.00000000 NULL
P        4.28178259       7.33823825       3.56801102       0.00000000 NULL
P        1.19959524       0.03901253       3.56801102       0.00000000 NULL
P        9.06200382       1.01937285       3.56801102       0.00000000 NULL
P       -0.23788060       6.80568774       7.51820324       0.00000000 NULL
P       -0.92716429       4.78776910       7.51820324       0.00000000 NULL
P        1.16504636       5.19979123       7.51820324       0.00000000 NULL
P        5.95527209       3.39961649       4.24066501       0.00000000 NULL
P        3.77379699       3.45760782       4.24066501       0.00000000 NULL
P        4.81431257       1.53939930       4.24066501       0.00000000 NULL
P        0.36784467       7.67333290       1.73931735       0.00000000 NULL
P       -1.98142967       4.87852000       1.73931735       0.00000000 NULL
P        1.61358647       4.24139519       1.73931735       0.00000000 NULL
P        3.06982872       2.94968379       1.03045571       0.00000000 NULL
P        5.60617182       1.18370692       1.03045571       0.00000000 NULL
P        5.86738110       4.26323292       1.03045571       0.00000000 NULL
P        7.77746499       0.71206022       9.48375914       0.00000000 NULL
P        5.19019254       6.37945131       9.48375914       0.00000000 NULL
P        1.57572411       1.30511209       9.48375914       0.00000000 NULL
P        6.76909910       4.08704559       6.05725930       0.00000000 NULL
P        2.77155241       3.81868815       6.05725930       0.00000000 NULL
P        5.00273013       0.49088988       6.05725930       0.00000000 NULL
P        6.38828958       2.13532850       2.67967784       0.00000000 NULL
P        4.65219376       4.46475597       2.67967784       0.00000000 NULL
P        3.50289831       1.79653915       2.67967784       0.00000000 NULL
36
Lattice="10.333809023133767 -1.3502855818194827e-16 0.0 -5.166904511566885 8.949341131890698 0.0 0.0 0.0 10.543130643578497" Properties=species:S:1:pos:R:3:initial_magmoms:R:1:castep_labels:S:1 n_minim_iter=3 pbc="T T T"
P       -1.69650246       3.04613982       1.92277682       0.00000000 NULL
P        3.37712179       5.95705609       1.92277682       0.00000000 NULL
P       -1.68061777       8.89548545       1.92277682       0.00000000 NULL
P        4.33598303       5.11241450       0.14979190       0.00000000 NULL
P        3.73833720       1.19886331       0.14979190       0.00000000 NULL
P        7.42639487       2.63806243       0.14979190       0.00000000 NULL
P       -0.19993818       3.17946810       7.35117055       0.00000000 NULL
P        2.51337398       7.18645464       7.35117055       0.00000000 NULL
P       -2.31343424       7.53275863       7.35117055       0.00000000 NULL
P        4.23260489       6.05543899       8.39684245       0.00000000 NULL
P        2.97334311       0.63782296       8.39684245       0.00000000 NULL
P        8.29476710       2.25607829       8.39684245       0.00000000 NULL
P        4.56296855       7.82024915       3.76061347       0.00000000 NULL
P        1.27979084       0.04152121       3.76061347       0.00000000 NULL
P        9.65795570       1.08756988       3.76061347       0.00000000 NULL
P       -0.25194664       7.25510313       7.92421066       0.00000000 NULL
P       -0.99022526       5.10359647       7.92421066       0.00000000 NULL
P        1.24217347       5.53998176       7.92421066       0.00000000 NULL
P        6.34812287       3.62508994       4.47100472       0.00000000 NULL
P        4.02032814       3.68508980       4.47100472       0.00000000 NULL
P        5.13226409       1.63916050       4.47100472       0.00000000 NULL
P        0.39384155       8.17615835       1.83366126       0.00000000 NULL
P       -2.11077658       5.20233784       1.83366126       0.00000000 NULL
P        1.71693659       4.52018517       1.83366126       0.00000000 NULL
P        3.27095885       3.14419058       1.08446511       0.00000000 NULL
P        5.97538120       1.26063726       1.08446511       0.00000000 NULL
P        6.25437505       4.54451239       1.08446511       0.00000000 NULL
P        8.29055901       0.75619513       9.99516457       0.00000000 NULL
P        5.53364585       6.80173625       9.99516457       0.00000000 NULL
P        1.67651024       1.39140886       9.99516457       0.00000000 NULL
P        7.21487694       4.35633666       6.38486373       0.00000000 NULL
P        2.95367286       4.07009749       6.38486373       0.00000000 NULL
P        5.33216529       0.52290609       6.38486373       0.00000000 NULL
P        6.80899336       2.27366940       2.82553097       0.00000000 NULL
P        4.96025741       4.75992562       2.82553097       0.00000000 NULL
P        3.73146433       1.91574521       2.82553097       0.00000000 NULL
36
Lattice="10.498016981935534 -4.549786537710057e-16 0.0 -5.249008490967768 9.091549395716617 0.0 0.0 0.0 10.717445875588927" Properties=species:S:1:pos:R:3:initial_magmoms:R:1:castep_labels:S:1 n_minim_iter=4 pbc="T T T"
P       -1.72161647       3.09484276       1.95460845       0.00000000 NULL
P        3.42960481       6.05316350       1.95460845       0.00000000 NULL
P       -1.70798675       9.03509162       1.95460845       0.00000000 NULL
P        4.40439868       5.19377080       0.15051694       0.00000000 NULL
P        3.79788072       1.21743483       0.15051694       0.00000000 NULL
P        7.54474766       2.68034286       0.15051694       0.00000000 NULL
P       -0.20314201       3.22884956       7.47294100       0.00000000 NULL
P        2.55431428       7.30119757       7.47294100       0.00000000 NULL
P       -2.35117069       7.65305076       7.47294100       0.00000000 NULL
P        4.29992145       6.15142287       8.53515371       0.00000000 NULL
P        3.02076832       0.64812886       8.53515371       0.00000000 NULL
P        8.42633729       2.29199676       8.53515371       0.00000000 NULL
P        4.63600425       7.94565635       3.82298187       0.00000000 NULL
P        1.29887514       0.04206836       3.82298187       0.00000000 NULL
P        9.81214767       1.10382378       3.82298187       0.00000000 NULL
P       -0.25563029       7.37080216       8.05541549       0.00000000 NULL
P       -1.00647775       5.18476508       8.05541549       0.00000000 NULL
P        1.26210963       5.62753064       8.05541549       0.00000000 NULL
P        6.44928916       3.68374788       4.54616108       0.00000000 NULL
P        4.08315368       3.74337339       4.54616108       0.00000000 NULL
P        5.21458422       1.66442721       4.54616108       0.00000000 NULL
P        0.40042498       8.30580435       1.86414270       0.00000000 NULL
P       -2.14424104       5.28542451       1.86414270       0.00000000 NULL
P        1.74381764       4.59186901       1.86414270       0.00000000 NULL
P        3.32221372       3.19406918       1.10182162       0.00000000 NULL
P        6.07076560       1.28008597       1.10182162       0.00000000 NULL
P        6.35404774       4.61739333       1.10182162       0.00000000 NULL
P        8.42307063       0.76754995      10.16000158       0.00000000 NULL
P        5.62176445       6.91081725      10.16000158       0.00000000 NULL
P        1.70219199       1.41318129      10.16000158       0.00000000 NULL
P        7.32926708       4.42552024       6.49084080       0.00000000 NULL
P        3.00077102       4.13457045       6.49084080       0.00000000 NULL
P        5.41698896       0.53145780       6.49084080       0.00000000 NULL
P        6.91747712       2.30839874       2.87304393       0.00000000 NULL
P        5.04014700       4.83651064       2.87304393       0.00000000 NULL
P        3.78940293       1.94663911       2.87304393       0.00000000 NULL
36
Lattice="10.52626526225693 -3.036685396606875e-16 0.0 -5.263132631128466 9.116013124088168 0.0 0.0 0.0 10.795913522943973" Properties=species:S:1:pos:R:3:initial_magmoms:R:1:castep_labels:S:1 n_minim_iter=5 pbc="T T T"
P       -1.72497103       3.10362477       1.96878761       0.00000000 NULL
P        3.43780078       6.07033109       1.96878761       0.00000000 NULL
P       -1.71282816       9.05806947       1.96878761       0.00000000 NULL
P        4.41589536       5.20809470       0.14999639       0.00000000 NULL
P        3.80797579       1.22022930       0.14999639       0.00000000 NULL
P        7.56552833       2.68768821       0.14999639       0.00000000 NULL
P       -0.20414041       3.23646584       7.52824123       0.00000000 NULL
P        2.56234173       7.32098850       7.52824123       0.00000000 NULL
P       -2.35819973       7.67457099       7.52824123       0.00000000 NULL
P        4.31161102       6.16805062       8.59733391       0.00000000 NULL
P        3.02877176       0.64993845       8.59733391       0.00000000 NULL
P        8.44901671       2.29802314       8.59733391       0.00000000 NULL
P        4.64949408       7.96908740       3.85118215       0.00000000 NULL
P        1.30008662       0.04203537       3.85118215       0.00000000 NULL
P        9.83981878       1.10488944       3.85118215       0.00000000 NULL
P       -0.25627769       7.39084217       8.11441549       0.00000000 NULL
P       -1.00938507       5.19864814       8.11441549       0.00000000 NULL
P        1.26566434       5.64253503       8.11441549       0.00000000 NULL
P        6.46686663       3.69471603       4.58071065       0.00000000 NULL
P        4.09311453       3.75311185       4.58071065       0.00000000 NULL
P        5.22941832       1.66818433       4.58071065       0.00000000 NULL
P        0.40145156       8.32846343       1.87782570       0.00000000 NULL
P       -2.15025352       5.29944774       1.87782570       0.00000000 NULL
P        1.74880355       4.60411416       1.87782570       0.00000000 NULL
P        3.33035671       3.20242931       1.10959290       0.00000000 NULL
P        6.08770231       1.28295794       1.10959290       0.00000000 NULL
P        6.37134047       4.63062496       1.10959290       0.00000000 NULL
P        8.44651248       0.76954074      10.23372434       0.00000000 NULL
P        5.63656773       6.93012309      10.23372434       0.00000000 NULL
P        1.70631928       1.41634838      10.23372434       0.00000000 NULL
P        7.34850762       4.43727865       6.53857048       0.00000000 NULL
P        3.00921595       4.14535403       6.53857048       0.00000000 NULL
P        5.43167592       0.53337952       6.53857048       0.00000000 NULL
P        6.93642812       2.31325134       2.89477540       0.00000000 NULL
P        5.05471731       4.85049638       2.89477540       0.00000000 NULL
P        3.79825406       1.95226450       2.89477540       0.00000000 NULL
36
Lattice="10.512657316114776 1.796282541977666e-15 0.0 -5.256328658057391 9.104228297035732 0.0 0.0 0.0 10.842431510879388" Properties=species:S:1:pos:R:3:initial_magmoms:R:1:castep_labels:S:1 n_minim_iter=6 pbc="T T T"
P       -1.72157640       3.10011387       1.97704915       0.00000000 NULL
P        3.43234002       6.06324155       1.97704915       0.00000000 NULL
P       -1.71076204       9.04510026       1.97704915       0.00000000 NULL
P        4.40982475       5.20180984       0.14898925       0.00000000 NULL
P        3.80284600       1.21811443       0.14898925       0.00000000 NULL
P        7.55631681       2.68430312       0.14898925       0.00000000 NULL
P       -0.20449770       3.23111529       7.56143938       0.00000000 NULL
P        2.56035012       7.31156953       7.56143938       0.00000000 NULL
P       -2.35585082       7.66577086       7.56143938       0.00000000 NULL
P        4.30620698       6.16027856       8.63412548       0.00000000 NULL
P        3.02459663       0.64914444       8.63412548       0.00000000 NULL
P        8.43818395       2.29480438       8.63412548       0.00000000 NULL
P        4.64468901       7.96119635       3.86802423       0.00000000 NULL
P        1.29571506       0.04181958       3.86802423       0.00000000 NULL
P        9.82858350       1.10121145       3.86802423       0.00000000 NULL
P       -0.25597930       7.38145975       8.14934689       0.00000000 NULL
P       -1.00821282       5.19181293       8.14934689       0.00000000 NULL
P        1.26419371       5.63518300       8.14934689       0.00000000 NULL
P        6.45874371       3.69106407       4.60180935       0.00000000 NULL
P        4.08673074       3.74790318       4.60180935       0.00000000 NULL
P        5.22351311       1.66526014       4.60180935       0.00000000 NULL
P        0.40079062       8.31819800       1.88592167       0.00000000 NULL
P       -2.14783691       5.29222324       1.88592167       0.00000000 NULL
P        1.74704788       4.59803444       1.88592167       0.00000000 NULL
P        3.32519954       3.19794969       1.11419710       0.00000000 NULL
P        6.08055240       1.28073151       1.11419710       0.00000000 NULL
P        6.36323562       4.62554618       1.11419710       0.00000000 NULL
P        8.43644849       0.76867632      10.27697335       0.00000000 NULL
P        5.62874038       6.92183964      10.27697335       0.00000000 NULL
P        1.70379869       1.41371143      10.27697335       0.00000000 NULL
P        7.33840648       4.43132543       6.56686394       0.00000000 NULL
P        3.00581421       4.13958281       6.56686394       0.00000000 NULL
P        5.42476687       0.53331915       6.56686394       0.00000000 NULL
P        6.92781930       2.30881580       2.90793911       0.00000000 NULL
P        5.04925506       4.84525869       2.90793911       0.00000000 NULL
P        3.79191320       1.95015289       2.90793911       0.00000000 NULL
36
Lattice="10.447391156993332 6.014397508348039e-16 0.0 -5.223695578496668 9.047706145229125 0.0 0.0 0.0 11.028827551113476" Properties=species:S:1:pos:R:3:initial_magmoms:R:1:castep_labels:S:1 n_minim_iter=7 pbc="T T T"
P       -1.70511518       3.08318441       2.00966686       0.00000000 NULL
P        3.40613767       6.02943997       2.00966686       0.00000000 NULL
P       -1.70102092       8.98278700       2.00966686       0.00000000 NULL
P        4.38042323       5.17182285       0.14324457       0.00000000 NULL
P        3.77825010       1.20764546       0.14324457       0.00000000 NULL
P        7.51241498       2.66823693       0.14324457       0.00000000 NULL
P       -0.20641877       3.20481051       7.69549756       0.00000000 NULL
P        2.55145818       7.26653608       7.69549756       0.00000000 NULL
P       -2.34503783       7.62406479       7.69549756       0.00000000 NULL
P        4.28049032       6.12317808       8.78131701       0.00000000 NULL
P        3.00431876       0.64542341       8.78131701       0.00000000 NULL
P        8.38627924       2.27910375       8.78131701       0.00000000 NULL
P        4.62170837       7.92359914       3.93590068       0.00000000 NULL
P        1.27449935       0.04071638       3.93590068       0.00000000 NULL
P        9.77488059       1.08338972       3.93590068       0.00000000 NULL
P       -0.25446979       7.33664892       8.28925527       0.00000000 NULL
P       -1.00279335       5.15900348       8.28925527       0.00000000 NULL
P        1.25726471       5.59975898       8.28925527       0.00000000 NULL
P        6.42003562       3.67384781       4.68801395       0.00000000 NULL
P        4.05572834       3.72298913       4.68801395       0.00000000 NULL
P        5.19532435       1.65086830       4.68801395       0.00000000 NULL
P        0.39772796       8.26900529       1.91839160       0.00000000 NULL
P       -2.13633652       5.25764511       1.91839160       0.00000000 NULL
P        1.73861014       4.56876099       1.91839160       0.00000000 NULL
P        3.30037706       3.17608178       1.13276117       0.00000000 NULL
P        6.04663565       1.27016857       1.13276117       0.00000000 NULL
P        6.32407561       4.60145488       1.13276117       0.00000000 NULL
P        8.38859774       0.76465070      10.44888009       0.00000000 NULL
P        5.59088589       6.88241248      10.44888009       0.00000000 NULL
P        1.69160469       1.40064206      10.44888009       0.00000000 NULL
P        7.28963385       4.40260470       6.68020157       0.00000000 NULL
P        2.98980725       4.11170484       6.68020157       0.00000000 NULL
P        5.39164722       0.53339570       6.68020157       0.00000000 NULL
P        6.88652178       2.28710714       2.96136363       0.00000000 NULL
P        5.02343791       4.82034832       2.96136363       0.00000000 NULL
P        3.76112863       1.94024977       2.96136363       0.00000000 NULL
36
Lattice="10.47312689004252 -8.385376608539681e-17 0.0 -5.236563445021261 9.069993943834737 0.0 0.0 0.0 10.986720648431998" Properties=species:S:1:pos:R:3:initial_magmoms:R:1:castep_labels:S:1 n_minim_iter=8 pbc="T T T"
P       -1.70427352       3.09175105       1.99964842       0.00000000 NULL
P        3.41116578       6.04817335       1.99964842       0.00000000 NULL
P       -1.70689068       9.00006258       1.99964842       0.00000000 NULL
P        4.38843226       5.18669711       0.13633264       0.00000000 NULL
P        3.78709983       1.20714435       0.13633264       0.00000000 NULL
P        7.53415983       2.67615157       0.13633264       0.00000000 NULL
P       -0.20993557       3.20534261       7.67032550       0.00000000 NULL
P        2.56562363       7.28551219       7.67032550       0.00000000 NULL
P       -2.35568648       7.64913218       7.67032550       0.00000000 NULL
P        4.29266142       6.13972890       8.74680220       0.00000000 NULL
P        3.00963551       0.64768848       8.74680220       0.00000000 NULL
P        8.40739498       2.28257566       8.74680220       0.00000000 NULL
P        4.63675183       7.95117910       3.92257055       0.00000000 NULL
P        1.26882841       0.03995441       3.92257055       0.00000000 NULL
P        9.80411168       1.07885952       3.92257055       0.00000000 NULL
P       -0.25471477       7.35637852       8.25738337       0.00000000 NULL
P       -1.00688932       5.17121431       8.25738337       0.00000000 NULL
P        1.26160567       5.61239414       8.25738337       0.00000000 NULL
P        6.43796416       3.68819224       4.67675438       0.00000000 NULL
P        4.06007716       3.73134347       4.67675438       0.00000000 NULL
P        5.21165060       1.65045732       4.67675438       0.00000000 NULL
P        0.39900138       8.29101784       1.91147034       0.00000000 NULL
P       -2.14316879       5.27002945       1.91147034       0.00000000 NULL
P        1.74416899       4.57893970       1.91147034       0.00000000 NULL
P        3.30530569       3.18075031       1.12924628       0.00000000 NULL
P        6.06586400       1.27210263       1.12924628       0.00000000 NULL
P        6.33852222       4.61714010       1.12924628       0.00000000 NULL
P        8.41437566       0.76733109      10.40294589       0.00000000 NULL
P        5.60141137       6.90339662      10.40294589       0.00000000 NULL
P        1.69390489       1.39926532      10.40294589       0.00000000 NULL
P        7.30389523       4.41194935       6.65439692       0.00000000 NULL
P        3.00031959       4.11938323       6.65439692       0.00000000 NULL
P        5.40547710       0.53866046       6.65439692       0.00000000 NULL
P        6.90471851       2.28562827       2.95256627       0.00000000 NULL
P        5.04135602       4.83684659       2.95256627       0.00000000 NULL
P        3.76361739       1.94751818       2.95256627       0.00000000 NULL
36
Lattice="10.4223787109205 -9.472762768886582e-16 0.0 -5.21118935546025 9.026044731519265 0.0 0.0 0.0 10.924462795281697" Properties=species:S:1:pos:R:3:initial_magmoms:R:1:castep_labels:S:1 n_minim_iter=9 pbc="T T T"
P       -1.69247353       3.07777266       1.98638638       0.00000000 NULL
P        3.39199733       6.02143242       1.98638638       0.00000000 NULL
P       -1.69952223       8.95288347       1.98638638       0.00000000 NULL
P        4.36501413       5.16357237       0.13017486       0.00000000 NULL
P        3.76808733       1.19842603       0.13017486       0.00000000 NULL
P        7.50046818       2.66404542       0.13017486       0.00000000 NULL
P       -0.21173120       3.18396512       7.63072565       0.00000000 NULL
P        2.55966080       7.25069666       7.63072565       0.00000000 NULL
P       -2.34792803       7.61742677       7.63072565       0.00000000 NULL
P        4.27318106       6.11108080       8.69613180       0.00000000 NULL
P        2.99343749       0.64514204       8.69613180       0.00000000 NULL
P        8.36695109       2.26982098       8.69613180       0.00000000 NULL
P        4.61687302       7.91844833       3.90180967       0.00000000 NULL
P        1.25636531       0.03910425       3.90180967       0.00000000 NULL
P        9.76033130       1.06849124       3.90180967       0.00000000 NULL
P       -0.25373204       7.32166413       8.21026840       0.00000000 NULL
P       -1.00269123       5.14547337       8.21026840       0.00000000 NULL
P        1.25642484       5.58495106       8.21026840       0.00000000 NULL
P        6.40806996       3.67455881       4.65529904       0.00000000 NULL
P        4.03608298       3.71227106       4.65529904       0.00000000 NULL
P        5.18941670       1.63921395       4.65529904       0.00000000 NULL
P        0.39692101       8.25255964       1.90089127       0.00000000 NULL
P       -2.13419692       5.24350768       1.90089127       0.00000000 NULL
P        1.73727748       4.55602123       1.90089127       0.00000000 NULL
P        3.28653840       3.16267507       1.12332373       0.00000000 NULL
P        6.04015309       1.26488730       1.12332373       0.00000000 NULL
P        6.30687816       4.59848146       1.12332373       0.00000000 NULL
P        8.37793073       0.76443717      10.33922054       0.00000000 NULL
P        5.57139186       6.87328135      10.33922054       0.00000000 NULL
P        1.68424705       1.38832531      10.33922054       0.00000000 NULL
P        7.26525829       4.38928884       6.61661467       0.00000000 NULL
P        2.98851445       4.09725292       6.61661467       0.00000000 NULL
P        5.37979690       0.53950207       6.61661467       0.00000000 NULL
P        6.87291547       2.26876510       2.93832213       0.00000000 NULL
P        5.02111329       4.81773594       2.93832213       0.00000000 NULL
P        3.73954088       1.93954279       2.93832213       0.00000000 NULL
36
Lattice="10.474816679949342 2.060128711782884e-15 0.0 -5.237408339974674 9.071457344821102 0.0 0.0 0.0 10.955781677032927" Properties=species:S:1:pos:R:3:initial_magmoms:R:1:castep_labels:S:1 n_minim_iter=10 pbc="T T T"
P       -1.70002654       3.09338075       1.99172945       0.00000000 NULL
P        3.40847583       6.05249989       1.99172945       0.00000000 NULL
P       -1.70844770       8.99703314       1.99172945       0.00000000 NULL
P        4.38643921       5.18989907       0.12931389       0.00000000 NULL
P        3.78701316       1.20381734       0.12931389       0.00000000 NULL
P        7.53877423       2.67774002       0.12931389       0.00000000 NULL
P       -0.21321515       3.19870176       7.65328198       0.00000000 NULL
P        2.57385946       7.28745582       7.65328198       0.00000000 NULL
P       -2.36064273       7.65675621       7.65328198       0.00000000 NULL
P        4.29495226       6.14187819       8.72068542       0.00000000 NULL
P        3.00831854       0.64859776       8.72068542       0.00000000 NULL
P        8.40895580       2.28098049       8.72068542       0.00000000 NULL
P        4.64032253       7.95893591       3.91329152       0.00000000 NULL
P        1.26201526       0.03916833       3.91329152       0.00000000 NULL
P        9.80988881       1.07335220       3.91329152       0.00000000 NULL
P       -0.25498530       7.35879258       8.23382911       0.00000000 NULL
P       -1.00799980       5.17123640       8.23382911       0.00000000 NULL
P        1.26298668       5.61288480       8.23382911       0.00000000 NULL
P        6.44060200       3.69393532       4.66965381       0.00000000 NULL
P        4.05547438       3.73075638       4.66965381       0.00000000 NULL
P        5.21615022       1.64676474       4.66965381       0.00000000 NULL
P        0.39904070       8.29416997       1.90643822       0.00000000 NULL
P       -2.14507338       5.26995083       1.90643822       0.00000000 NULL
P        1.74603426       4.57879297       1.90643822       0.00000000 NULL
P        3.30252305       3.17806693       1.12647427       0.00000000 NULL
P        6.07126899       1.27103448       1.12647427       0.00000000 NULL
P        6.33843457       4.62235503       1.12647427       0.00000000 NULL
P        8.42104109       0.76817309      10.36797965       0.00000000 NULL
P        5.59903926       6.90874805      10.36797965       0.00000000 NULL
P        1.69214626       1.39453530      10.36797965       0.00000000 NULL
P        7.30117888       4.41116552       6.63575064       0.00000000 NULL
P        3.00404637       4.11742271       6.63575064       0.00000000 NULL
P        5.40700136       0.54286820       6.63575064       0.00000000 NULL
P        6.90789012       2.27894379       2.94738824       0.00000000 NULL
P        5.04724893       4.84293553       2.94738824       0.00000000 NULL
P        3.75708755       1.94957712       2.94738824       0.00000000 NULL
