36
Lattice="6.042814773536222 0.0 0.0 0.0 6.042814773536222 0.0 0.0 0.0 20.635940584197982" Properties=species:S:1:pos:R:3:initial_magmoms:R:1:castep_labels:S:1:forces:R:3 n_minim_iter=1 energy=-191.446779081449 stress="0.0021612295103485015 -0.0 0.0 -0.0 0.0021612295103485015 0.0 0.0 0.0 0.006024930223441012" free_energy=-191.446779081449 pbc="T T T"
P        3.97855657       2.51715562       1.78059278       0.00000000 NULL       0.00495200       0.04340100       0.14124000
P        2.06425820       3.52565916      12.09856308       0.00000000 NULL      -0.00495200      -0.04340100       0.14124000
P        3.52565916       3.97855657       6.93957793       0.00000000 NULL      -0.04340100       0.00495200       0.14124000
P        2.51715562       2.06425820      17.25754822       0.00000000 NULL       0.04340100      -0.00495200       0.14124100
P        2.44103194       5.10476817       3.49875111       0.00000000 NULL       0.06653100       0.06391200       0.17637100
P        3.60178284       0.93804660      13.81672140       0.00000000 NULL      -0.06653100      -0.06391200       0.17637100
P        0.93804660       2.44103194       8.65773625       0.00000000 NULL      -0.06391200       0.06653100       0.17637100
P        5.10476817       3.60178284      18.97570655       0.00000000 NULL       0.06391200      -0.06653100       0.17637200
P        4.89848058       6.30454893       9.67339668       0.00000000 NULL      -0.24585100      -0.15625900      -0.01752800
P        1.14433420      -0.26173416      -0.64457361       0.00000000 NULL       0.24585100       0.15625900      -0.01752800
P       -0.26173416       4.89848058      14.83238183       0.00000000 NULL       0.15625900      -0.24585100      -0.01752800
P        6.30454893       1.14433420       4.51441154       0.00000000 NULL      -0.15625900       0.24585100      -0.01752800
P        3.91335814       3.44173189      16.15003783       0.00000000 NULL      -0.10060900      -0.06337800      -0.27438700
P        2.12945663       2.60108289       5.83206754       0.00000000 NULL       0.10060900       0.06337800      -0.27438700
P        2.60108289       3.91335814       0.67308239       0.00000000 NULL       0.06337800      -0.10061000      -0.27438800
P        3.44173189       2.12945663      10.99105268       0.00000000 NULL      -0.06337800       0.10060900      -0.27438700
P        3.10345023       2.68314757      19.40090621       0.00000000 NULL      -0.08330700       0.05961600       0.09451500
P        2.93936454       3.35966720       9.08293591       0.00000000 NULL       0.08330600      -0.05961600       0.09451400
P        3.35966720       3.10345023       3.92395077       0.00000000 NULL      -0.05961600      -0.08330600       0.09451400
P        2.68314757       2.93936454      14.24192106       0.00000000 NULL       0.05961600       0.08330600       0.09451400
P        2.45729648       5.03876772      16.69415384       0.00000000 NULL      -0.12603300       0.04802700      -0.15287900
P        3.58551829       1.00404705       6.37618355       0.00000000 NULL       0.12603300      -0.04802700      -0.15287900
P        1.00404705       2.45729648       1.21719840       0.00000000 NULL      -0.04802800      -0.12603300      -0.15288200
P        5.03876772       3.58551829      11.53516870       0.00000000 NULL       0.04802700       0.12603300      -0.15287900
P        0.88926969       5.20320020       5.11479007       0.00000000 NULL       0.14019500      -0.22357400      -0.22042000
P        5.15354509       0.83961458      15.43276036       0.00000000 NULL      -0.14019500       0.22357400      -0.22042000
P        0.83961458       0.88926969      10.27377522       0.00000000 NULL       0.22357300       0.14019500      -0.22042000
P        5.20320020       5.15354509      -0.04419508       0.00000000 NULL      -0.22357300      -0.14019700      -0.22041800
P        2.04221990       5.62931926       6.98533871       0.00000000 NULL      -0.07289100      -0.07345700       0.13132100
P        4.00059487       0.41349551      17.30330900       0.00000000 NULL       0.07289100       0.07345700       0.13132100
P        0.41349551       2.04221990      12.14432386       0.00000000 NULL       0.07345700      -0.07289100       0.13132100
P        5.62931926       4.00059487       1.82635357       0.00000000 NULL      -0.07345700       0.07289200       0.13131800
P        1.95867525       5.48209870      14.57557991       0.00000000 NULL       0.04874700      -0.04375500       0.12176700
P        4.08413952       0.56071607       4.25760962       0.00000000 NULL      -0.04874700       0.04375500       0.12176700
P        0.56071607       1.95867525      19.73456505       0.00000000 NULL       0.04375600       0.04874800       0.12177000
P        5.48209870       4.08413952       9.41659476       0.00000000 NULL      -0.04375500      -0.04874700       0.12176700
36
Lattice="6.031805717142772 0.0 0.0 0.0 6.031805717142772 0.0 0.0 0.0 20.531305160694412" Properties=species:S:1:pos:R:3:initial_magmoms:R:1:castep_labels:S:1:forces:R:3 n_minim_iter=2 energy=-191.463199519453 stress="-0.0013110589167709334 0.0 -0.0 0.0 -0.0013110589167709334 -0.0 -0.0 -0.0 0.00083232039978352" free_energy=-191.463199519453 pbc="T T T"
P        3.97131380       2.51261827       1.77172156       0.00000000 NULL       0.01844100      -0.03452600       0.11861500
P        2.06049191       3.51918745      12.03737414       0.00000000 NULL      -0.01844000       0.03452600       0.11861500
P        3.51918745       3.97131380       6.90454785       0.00000000 NULL       0.03452600       0.01844000       0.11861500
P        2.51261827       2.06049191      17.17020043       0.00000000 NULL      -0.03452600      -0.01844000       0.11861500
P        2.43665912       5.09553952       3.48120702       0.00000000 NULL       0.07119100       0.08365600       0.09564200
P        3.59514660       0.93626620      13.74685960       0.00000000 NULL      -0.07119100      -0.08365600       0.09564200
P        0.93626620       2.43665912       8.61403331       0.00000000 NULL      -0.08365600       0.07119100       0.09564200
P        5.09553952       3.59514660      18.87968589       0.00000000 NULL       0.08365600      -0.07119100       0.09564200
P        4.88928154       6.29288839       9.62432778       0.00000000 NULL      -0.29271200      -0.15491000      -0.03714100
P        1.14252418      -0.26108267      -0.64132480       0.00000000 NULL       0.29271200       0.15491000      -0.03714100
P       -0.26108267       4.88928154      14.75715407       0.00000000 NULL       0.15491000      -0.29271200      -0.03714100
P        6.29288839       1.14252418       4.49150149       0.00000000 NULL      -0.15491000       0.29271200      -0.03714100
P        3.90611617       3.43539076      16.06784269       0.00000000 NULL      -0.02189200      -0.04607900      -0.26884600
P        2.12568954       2.59641496       5.80219011       0.00000000 NULL       0.02189200       0.04607900      -0.26884600
P        2.59641496       3.90611617       0.66936382       0.00000000 NULL       0.04607900      -0.02189200      -0.26884600
P        3.43539076       2.12568954      10.93501640       0.00000000 NULL      -0.04607900       0.02189200      -0.26884600
P        3.09770312       2.67832593      19.30263837       0.00000000 NULL      -0.07425200       0.03140200       0.11290800
P        2.93410259       3.35347979       9.03698579       0.00000000 NULL       0.07425300      -0.03140200       0.11290900
P        3.35347979       3.09770312       3.90415950       0.00000000 NULL      -0.03140200      -0.07425300       0.11290900
P        2.67832593       2.93410259      14.16981208       0.00000000 NULL       0.03140200       0.07425300       0.11290900
P        2.45267881       5.02964156      16.60933511       0.00000000 NULL      -0.16843000       0.04088400      -0.05902500
P        3.57912691       1.00216416       6.34368252       0.00000000 NULL       0.16843000      -0.04088400      -0.05902500
P        1.00216416       2.45267881       1.21085623       0.00000000 NULL      -0.04088400      -0.16843000      -0.05902400
P        5.02964156       3.57912691      11.47650881       0.00000000 NULL       0.04088400       0.16843000      -0.05902500
P        0.88780627       5.19347091       5.08860975       0.00000000 NULL       0.07457400      -0.26058800      -0.22053000
P        5.14399945       0.83833481      15.35426233       0.00000000 NULL      -0.07457400       0.26058800      -0.22053000
P        0.83833481       0.88780627      10.22143604       0.00000000 NULL       0.26058800       0.07457400      -0.22053000
P        5.19347091       5.14399945      -0.04421654       0.00000000 NULL      -0.26058800      -0.07457400      -0.22053100
P        2.03841783       5.61898143       6.95006555       0.00000000 NULL      -0.09952100      -0.05810800       0.22287800
P        3.99338789       0.41282429      17.21571813       0.00000000 NULL       0.09952100       0.05810800       0.22287800
P        0.41282429       2.03841783      12.08289184       0.00000000 NULL       0.05810800      -0.09952100       0.22287800
P        5.61898143       3.99338789       1.81723926       0.00000000 NULL      -0.05810700       0.09952100       0.22287900
P        1.95516133       5.47206228      14.50180946       0.00000000 NULL       0.02921800      -0.01957100       0.03549800
P        4.07664438       0.55974344       4.23615688       0.00000000 NULL      -0.02921800       0.01957100       0.03549800
P        0.55974344       1.95516133      19.63463575       0.00000000 NULL       0.01957000       0.02921800       0.03549700
P        5.47206228       4.07664438       9.36898317       0.00000000 NULL      -0.01957100      -0.02921800       0.03549800
36
Lattice="6.046820087598568 0.0 0.0 0.0 6.046820087598568 0.0 0.0 0.0 20.46186390470949" Properties=species:S:1:pos:R:3:initial_magmoms:R:1:castep_labels:S:1:forces:R:3 n_minim_iter=3 energy=-191.469932021258 stress="0.0008511187129073109 0.0 0.0 0.0 0.0008511187129073109 -0.0 0.0 -0.0 -0.0007131417275537795" free_energy=-191.469932021258 pbc="T T T"
P        3.98125751       2.51878061       1.76613492       0.00000000 NULL       0.03137600       0.00350500       0.08563800
P        2.06556258       3.52803948      11.99706687       0.00000000 NULL      -0.03137600      -0.00350400       0.08563800
P        3.52803948       3.98125751       6.88160090       0.00000000 NULL      -0.00350500       0.03137600       0.08563800
P        2.51878061       2.06556258      17.11253285       0.00000000 NULL       0.00350400      -0.03137600       0.08563800
P        2.44296497       5.10850133       3.46978008       0.00000000 NULL       0.10363200       0.06250100       0.08217000
P        3.60385512       0.93831876      13.70071203       0.00000000 NULL      -0.10363200      -0.06250100       0.08217000
P        0.93831876       2.44296497       8.58524606       0.00000000 NULL      -0.06250100       0.10363200       0.08217000
P        5.10850133       3.60385512      18.81617801       0.00000000 NULL       0.06250100      -0.10363300       0.08217000
P        4.90047201       6.30802555       9.59165781       0.00000000 NULL      -0.22959500      -0.15525600      -0.02024500
P        1.14634808      -0.26120547      -0.63927414       0.00000000 NULL       0.22959500       0.15525600      -0.02024500
P       -0.26120547       4.90047201      14.70712379       0.00000000 NULL       0.15525600      -0.22959500      -0.02024500
P        6.30802555       1.14634808       4.47619184       0.00000000 NULL      -0.15525600       0.22959500      -0.02024500
P        3.91573928       3.44377985      16.01259300       0.00000000 NULL      -0.04403300      -0.02087200      -0.24522000
P        2.13108081       2.60304023       5.78166105       0.00000000 NULL       0.04403300       0.02087200      -0.24522000
P        2.60304023       3.91573928       0.66619507       0.00000000 NULL       0.02087200      -0.04403300      -0.24522000
P        3.44377985       2.13108081      10.89712703       0.00000000 NULL      -0.02087200       0.04403300      -0.24522000
P        3.10515854       2.68510874      19.23772606       0.00000000 NULL      -0.01652300       0.04150600       0.11773200
P        2.94166154       3.36171134       9.00679410       0.00000000 NULL       0.01652300      -0.04150600       0.11773200
P        3.36171134       3.10515854       3.89132813       0.00000000 NULL      -0.04150600      -0.01652300       0.11773100
P        2.68510874       2.94166154      14.12226008       0.00000000 NULL       0.04150600       0.01652300       0.11773100
P        2.45822517       5.04230266      16.55293031       0.00000000 NULL      -0.09566100       0.03681800      -0.01223200
P        3.58859492       1.00451743       6.32199836       0.00000000 NULL       0.09566100      -0.03681800      -0.01223200
P        1.00451743       2.45822517       1.20653239       0.00000000 NULL      -0.03681800      -0.09566100      -0.01223300
P        5.04230266       3.58859492      11.43746434       0.00000000 NULL       0.03681800       0.09566100      -0.01223200
P        0.89029105       5.20552458       5.07065828       0.00000000 NULL       0.06163400      -0.20432300      -0.23008600
P        5.15652904       0.84129551      15.30159023       0.00000000 NULL      -0.06163400       0.20432300      -0.23008600
P        0.84129551       0.89029105      10.18612426       0.00000000 NULL       0.20432300       0.06163400      -0.23008600
P        5.20552458       5.15652904      -0.04480770       0.00000000 NULL      -0.20432300      -0.06163400      -0.23008500
P        2.04316216       5.63276566       6.92727810       0.00000000 NULL      -0.03527200      -0.06002600       0.23004400
P        4.00365792       0.41405443      17.15821005       0.00000000 NULL       0.03527300       0.06002600       0.23004400
P        0.41405443       2.04316216      12.04274407       0.00000000 NULL       0.06002600      -0.03527200       0.23004400
P        5.63276566       4.00365792       1.81181212       0.00000000 NULL      -0.06002600       0.03527300       0.23004300
P        1.96013380       5.48560895      14.45290825       0.00000000 NULL       0.00514800      -0.00693000      -0.00780100
P        4.08668629       0.56121114       4.22197630       0.00000000 NULL      -0.00514800       0.00693000      -0.00780100
P        0.56121114       1.96013380      19.56837423       0.00000000 NULL       0.00693000       0.00514800      -0.00780000
P        5.48560895       4.08668629       9.33744227       0.00000000 NULL      -0.00693000      -0.00514800      -0.00780100
36
Lattice="6.022341432398491 0.0 0.0 0.0 6.022341432398491 0.0 0.0 0.0 20.5276780505531" Properties=species:S:1:pos:R:3:initial_magmoms:R:1:castep_labels:S:1:forces:R:3 n_minim_iter=4 energy=-191.532566357828 stress="-0.00018111241922730487 0.0 0.0 0.0 -0.00018111241922730487 -0.0 0.0 -0.0 -1.3109294064509757e-05" free_energy=-191.532566357828 pbc="T T T"
P        3.96726884       2.50776730       1.77974426       0.00000000 NULL      -0.02857000      -0.03228700       0.06644000
P        2.05507260       3.51457413      12.04358328       0.00000000 NULL       0.02857000       0.03228700       0.06644000
P        3.51457413       3.96726884       6.91166377       0.00000000 NULL       0.03228700      -0.02857000       0.06644000
P        2.50776730       2.05507260      17.17550279       0.00000000 NULL      -0.03228700       0.02857000       0.06644000
P        2.44046614       5.09352697       3.48804746       0.00000000 NULL       0.09416300       0.04373200      -0.01391200
P        3.58187529       0.92881446      13.75188648       0.00000000 NULL      -0.09416300      -0.04373200      -0.01391200
P        0.92881446       2.44046614       8.61996697       0.00000000 NULL      -0.04373100       0.09416300      -0.01391200
P        5.09352697       3.58187529      18.88380599       0.00000000 NULL       0.04373200      -0.09416300      -0.01391200
P        4.86010090       6.26990797       9.62037886       0.00000000 NULL       0.02678100       0.01707100       0.03796200
P        1.16224053      -0.24756654      -0.64346017       0.00000000 NULL      -0.02678100      -0.01707100       0.03796200
P       -0.24756654       4.86010090      14.75229837       0.00000000 NULL      -0.01707100       0.02678100       0.03796200
P        6.26990797       1.16224053       4.48845935       0.00000000 NULL       0.01707100      -0.02678100       0.03796200
P        3.89692281       3.42734428      16.04364525       0.00000000 NULL      -0.00333000      -0.00240700      -0.04860300
P        2.12541862       2.59499716       5.77980622       0.00000000 NULL       0.00333000       0.00240700      -0.04860300
P        2.59499716       3.89692281       0.64788671       0.00000000 NULL       0.00240700      -0.00333000      -0.04860300
P        3.42734428       2.12541862      10.91172573       0.00000000 NULL      -0.00240700       0.00333000      -0.04860300
P        3.08944385       2.67732029      19.30889946       0.00000000 NULL      -0.02147200      -0.05013500      -0.02352700
P        2.93289758       3.34502115       9.04506043       0.00000000 NULL       0.02147200       0.05013500      -0.02352600
P        3.34502115       3.08944385       3.91314092       0.00000000 NULL       0.05013500      -0.02147200      -0.02352600
P        2.67732029       2.93289758      14.17697994       0.00000000 NULL      -0.05013500       0.02147200      -0.02352600
P        2.43829766       5.02501022      16.60364266       0.00000000 NULL      -0.00988200       0.06033700       0.03518800
P        3.58404377       0.99733122       6.33980364       0.00000000 NULL       0.00988200      -0.06033700       0.03518800
P        0.99733122       2.43829766       1.20788413       0.00000000 NULL      -0.06033700      -0.00988200       0.03518800
P        5.02501022       3.58404377      11.47172315       0.00000000 NULL       0.06033700       0.00988200       0.03518800
P        0.89215629       5.16617081       5.06876573       0.00000000 NULL      -0.02758300       0.10236500      -0.04721800
P        5.13018514       0.85617062      15.33260475       0.00000000 NULL       0.02758300      -0.10236500      -0.04721800
P        0.85617062       0.89215629      10.20068524       0.00000000 NULL      -0.10236500      -0.02758300      -0.04721800
P        5.16617081       5.13018514      -0.06315379       0.00000000 NULL       0.10236500       0.02758300      -0.04721800
P        2.03006071       5.60513882       6.96773631       0.00000000 NULL      -0.09824200       0.03199900      -0.01854700
P        3.99228072       0.41720262      17.23157534       0.00000000 NULL       0.09824200      -0.03199900      -0.01854700
P        0.41720262       2.03006071      12.09965582       0.00000000 NULL      -0.03199900      -0.09824200      -0.01854700
P        5.60513882       3.99228072       1.83581680       0.00000000 NULL       0.03199900       0.09824200      -0.01854600
P        1.95338513       5.46242185      14.50019744       0.00000000 NULL       0.02577600      -0.00984600       0.01221600
P        4.06895630       0.55991958       4.23635841       0.00000000 NULL      -0.02577600       0.00984600       0.01221600
P        0.55991958       1.95338513      19.63211695       0.00000000 NULL       0.00984600       0.02577600       0.01221500
P        5.46242185       4.06895630       9.36827793       0.00000000 NULL      -0.00984600      -0.02577600       0.01221600
36
Lattice="6.016709976541627 0.0 0.0 0.0 6.016709976541627 0.0 0.0 0.0 20.5420182188743" Properties=species:S:1:pos:R:3:initial_magmoms:R:1:castep_labels:S:1:forces:R:3 n_minim_iter=5 energy=-191.545417271666 stress="-0.00015574793469294275 0.0 -0.0 0.0 -0.00015574793469294275 -0.0 -0.0 -0.0 -9.413188938444131e-07" free_energy=-191.545417271666 pbc="T T T"
P        3.96076505       2.50195040       1.79006473       0.00000000 NULL       0.02304500       0.05158500      -0.02973900
P        2.05594493       3.51475957      12.06107384       0.00000000 NULL      -0.02304500      -0.05158500      -0.02973900
P        3.51475957       3.96076505       6.92556929       0.00000000 NULL      -0.05158500       0.02304500      -0.02973900
P        2.50195040       2.05594493      17.19657840       0.00000000 NULL       0.05158500      -0.02304500      -0.02974000
P        2.45070108       5.09477811       3.49042922       0.00000000 NULL       0.04398900       0.01072100      -0.01295300
P        3.56600890       0.92193187      13.76143833       0.00000000 NULL      -0.04398900      -0.01072100      -0.01295300
P        0.92193187       2.45070108       8.62593378       0.00000000 NULL      -0.01072100       0.04398900      -0.01295300
P        5.09477811       3.56600890      18.89694289       0.00000000 NULL       0.01072100      -0.04398900      -0.01295400
P        4.85493037       6.26342981       9.63116141       0.00000000 NULL      -0.07532000       0.01224400       0.00010800
P        1.16177961      -0.24671983      -0.63984770       0.00000000 NULL       0.07532000      -0.01224400       0.00010800
P       -0.24671983       4.85493037      14.76666597       0.00000000 NULL      -0.01224400      -0.07532000       0.00010800
P        6.26342981       1.16177961       4.49565686       0.00000000 NULL       0.01224400       0.07532000       0.00010800
P        3.89198528       3.42347412      16.04523994       0.00000000 NULL      -0.04004400       0.01556400       0.04226500
P        2.12472470       2.59323586       5.77423083       0.00000000 NULL       0.04004400      -0.01556400       0.04226500
P        2.59323586       3.89198528       0.63872628       0.00000000 NULL      -0.01556500      -0.04004400       0.04226600
P        3.42347412       2.12472470      10.90973538       0.00000000 NULL       0.01556400       0.04004400       0.04226500
P        3.08378811       2.66981162      19.32158215       0.00000000 NULL       0.01647400      -0.04787500      -0.00176800
P        2.93292187       3.34689836       9.05057304       0.00000000 NULL      -0.01647400       0.04787400      -0.00176700
P        3.34689836       3.08378811       3.91506849       0.00000000 NULL       0.04787400       0.01647400      -0.00176700
P        2.66981162       2.93292187      14.18607760       0.00000000 NULL      -0.04787400      -0.01647400      -0.00176700
P        2.43338909       5.02786787      16.61884911       0.00000000 NULL       0.04692500      -0.00315000       0.02568600
P        3.58332089       0.98884211       6.34784000       0.00000000 NULL      -0.04692500       0.00315000       0.02568600
P        0.98884211       2.43338909       1.21233544       0.00000000 NULL       0.00315100       0.04692500       0.02568800
P        5.02786787       3.58332089      11.48334455       0.00000000 NULL      -0.00315000      -0.04692500       0.02568700
P        0.88933011       5.16979092       5.06311777       0.00000000 NULL       0.04432500      -0.00822100      -0.00415400
P        5.12737986       0.84691906      15.33412688       0.00000000 NULL      -0.04432500       0.00822100      -0.00415400
P        0.84691906       0.88933011      10.19862232       0.00000000 NULL       0.00822100       0.04432500      -0.00415400
P        5.16979092       5.12737986      -0.07238679       0.00000000 NULL      -0.00822200      -0.04432400      -0.00415500
P        2.01635097       5.60254211       6.97404198       0.00000000 NULL      -0.02924800      -0.03222300      -0.04760100
P        4.00035901       0.41416787      17.24505109       0.00000000 NULL       0.02924800       0.03222300      -0.04760100
P        0.41416787       2.01635097      12.10954653       0.00000000 NULL       0.03222300      -0.02924800      -0.04760100
P        5.60254211       4.00035901       1.83853742       0.00000000 NULL      -0.03222300       0.02924700      -0.04759900
P        1.95465213       5.45601062      14.51180494       0.00000000 NULL       0.00659800      -0.01225400       0.02815500
P        4.06205784       0.56069936       4.24079583       0.00000000 NULL      -0.00659800       0.01225400       0.02815500
P        0.56069936       1.95465213      19.64730950       0.00000000 NULL       0.01225300       0.00659700       0.02815300
P        5.45601062       4.06205784       9.37630039       0.00000000 NULL      -0.01225400      -0.00659800       0.02815500
36
Lattice="6.018205273802957 0.0 0.0 0.0 6.018205273802957 0.0 0.0 0.0 20.566193206388295" Properties=species:S:1:pos:R:3:initial_magmoms:R:1:castep_labels:S:1:forces:R:3 n_minim_iter=6 energy=-191.558542415309 stress="-2.2741837113687818e-05 0.0 -0.0 0.0 -2.2741837113687818e-05 -0.0 -0.0 -0.0 0.0003140897409160804" free_energy=-191.558542415309 pbc="T T T"
P        3.96436709       2.51142921       1.79451522       0.00000000 NULL       0.04441500       0.00761800      -0.03878100
P        2.05383819       3.50677607      12.07761182       0.00000000 NULL      -0.04441600      -0.00761800      -0.03878100
P        3.50677607       3.96436709       6.93606352       0.00000000 NULL      -0.00761800       0.04441600      -0.03878100
P        2.51142921       2.05383819      17.21916013       0.00000000 NULL       0.00761800      -0.04441600      -0.03878100
P        2.47442515       5.10442454       3.49191023       0.00000000 NULL      -0.02823500      -0.02153000       0.02693000
P        3.54378012       0.91378073      13.77500683       0.00000000 NULL       0.02823500       0.02153000       0.02693000
P        0.91378073       2.47442515       8.63345853       0.00000000 NULL       0.02153000      -0.02823500       0.02693000
P        5.10442454       3.54378012      18.91655513       0.00000000 NULL      -0.02153000       0.02823500       0.02693000
P        4.83843292       6.26666768       9.64674319       0.00000000 NULL       0.04006400       0.02440300       0.00961600
P        1.17977236      -0.24846241      -0.63635341       0.00000000 NULL      -0.04006400      -0.02440300       0.00961600
P       -0.24846241       4.83843292      14.78829149       0.00000000 NULL      -0.02440300       0.04006400       0.00961600
P        6.26666768       1.17977236       4.50519489       0.00000000 NULL       0.02440300      -0.04006400       0.00961600
P        3.88197502       3.42731402      16.06357559       0.00000000 NULL       0.02139800      -0.01797000       0.00672900
P        2.13623026       2.59089125       5.78047899       0.00000000 NULL      -0.02139800       0.01797000       0.00672900
P        2.59089125       3.88197502       0.63893068       0.00000000 NULL       0.01797000       0.02139800       0.00673000
P        3.42731402       2.13623026      10.92202729       0.00000000 NULL      -0.01797000      -0.02139800       0.00672900
P        3.08599346       2.65490631      19.34345442       0.00000000 NULL       0.02737000      -0.01834200       0.04008700
P        2.93221181       3.36329896       9.06035782       0.00000000 NULL      -0.02736900       0.01834200       0.04008800
P        3.36329896       3.08599346       3.91880951       0.00000000 NULL       0.01834200       0.02736900       0.04008800
P        2.65490631       2.93221181      14.20190612       0.00000000 NULL      -0.01834200      -0.02736900       0.04008800
P        2.44254591       5.03605358      16.64796362       0.00000000 NULL       0.00311000      -0.01427800       0.00150100
P        3.57565937       0.98215170       6.36486702       0.00000000 NULL      -0.00311000       0.01427800       0.00150100
P        0.98215170       2.44254591       1.22331871       0.00000000 NULL       0.01427800       0.00311000       0.00150300
P        5.03605358       3.57565937      11.50641532       0.00000000 NULL      -0.01427800      -0.00311000       0.00150100
P        0.89790076       5.17767126       5.05815667       0.00000000 NULL      -0.00805500       0.04259600      -0.10081900
P        5.12030452       0.84053401      15.34125327       0.00000000 NULL       0.00805500      -0.04259600      -0.10081900
P        0.84053401       0.89790076      10.19970497       0.00000000 NULL      -0.04259600      -0.00805500      -0.10081900
P        5.17767126       5.12030452      -0.08339163       0.00000000 NULL       0.04259600       0.00805500      -0.10082000
P        1.99897698       5.59900817       6.97334427       0.00000000 NULL       0.00324900      -0.01095900       0.00092500
P        4.01922829       0.41919710      17.25644087       0.00000000 NULL      -0.00324900       0.01095900       0.00092500
P        0.41919710       1.99897698      12.11489257       0.00000000 NULL       0.01095900       0.00324900       0.00092500
P        5.59900817       4.01922829       1.83179596       0.00000000 NULL      -0.01095800      -0.00325000       0.00092600
P        1.95958009       5.45330213      14.53660079       0.00000000 NULL      -0.07364500      -0.04265900       0.05381100
P        4.05862518       0.56490315       4.25350419       0.00000000 NULL       0.07364500       0.04265900       0.05381100
P        0.56490315       1.95958009      19.67814910       0.00000000 NULL       0.04265900      -0.07364500       0.05380900
P        5.45330213       4.05862518       9.39505249       0.00000000 NULL      -0.04265900       0.07364500       0.05381100
36
Lattice="6.030739889826492 0.0 0.0 0.0 6.030739889826492 0.0 0.0 0.0 20.560266163623332" Properties=species:S:1:pos:R:3:initial_magmoms:R:1:castep_labels:S:1:forces:R:3 n_minim_iter=7 energy=-191.569819364158 stress="0.0002537801313170197 0.0 -0.0 0.0 0.0002537801313170197 -0.0 -0.0 -0.0 0.0006874409891105759" free_energy=-191.569819364158 pbc="T T T"