13
Lattice="5.177617995632857 -0.2566138314840725 -0.6780548334071822 -2.6537520622325417 7.1910427184411825 0.2976812790787529 -1.9714214112812216 -1.4319437348693207 8.932047578688346" Properties=species:S:1:pos:R:3:initial_magmoms:R:1:castep_labels:S:1:forces:R:3 n_minim_iter=1 energy=-65.882786836339 stress="0.001101096119712195 -9.894264162961928e-05 0.0005430634106169593 -9.894264162961928e-05 0.00031745018629458446 -0.0006907036434986925 0.0005430634106169593 -0.0006907036434986925 0.001039639885875221" free_energy=-65.882786836339 pbc="T T T"
P        3.57531957       0.35745756       3.58063037       0.00000000 NULL       0.26133800       0.40104500       0.05790500
P       -0.26451981       0.11055601       7.65636914       0.00000000 NULL      -0.04656400      -0.17897800      -0.73482300
P        1.30401686      -0.10574596       2.97765418       0.00000000 NULL       0.36749300      -0.24603800      -0.03282300
P        2.71372939       5.13001814       1.55886556       0.00000000 NULL       0.26269700      -0.14735400       0.64281300
P       -0.84337907      -0.87630864       5.64434003       0.00000000 NULL       0.04396300      -0.19928600       0.59139700
P        0.68755974       2.85056102       1.33949037       0.00000000 NULL      -0.13548500      -0.26131200       0.60819000
P        0.48133978       6.16222488       2.19181669       0.00000000 NULL      -0.28738400       0.46358500      -0.24801100
P       -1.97944165       3.03238531       6.66952465       0.00000000 NULL       0.12105400      -0.34466400      -0.36448700
P        2.92058767       2.60781874       0.92697911       0.00000000 NULL      -0.21895800       0.09306000      -0.43324200
P       -1.74270827       3.12683559       8.84614915       0.00000000 NULL      -0.26978200       0.21184300       0.05707600
P        1.15815356       2.81698296       8.34649616       0.00000000 NULL      -0.38507200       0.41807000       0.32867000
P       -2.21847903       1.13337741       7.76248080       0.00000000 NULL      -0.10165600      -0.28735300      -0.39468900
P        1.04493871       4.24585986       3.11694843       0.00000000 NULL       0.38835600       0.07738200      -0.07797800
13
Lattice="5.089043719931894 -0.25481356372809766 -0.7154924569970049 -2.5967363709152935 7.1526657319216485 0.39826023246867803 -2.017379503686676 -1.3256828024409568 8.780339822092781" Properties=species:S:1:pos:R:3:initial_magmoms:R:1:castep_labels:S:1:forces:R:3 n_minim_iter=2 energy=-66.03324615015 stress="-0.012304968074971875 0.000738497491654193 -0.00042879119608545157 0.000738497491654193 -0.01023722116599991 -0.0011733432944528457 -0.00042879119608545157 -0.0011733432944528457 -0.010898061745463046" free_energy=-66.03324615015 pbc="T T T"
P        3.49248816       0.42321435       3.49467766       0.00000000 NULL       0.26649400       0.57376200      -0.12653400
P       -0.32981361       0.18706070       7.49068419       0.00000000 NULL       0.29732800      -0.18914900      -0.34267400
P        1.27264059      -0.08206879       2.91182570       0.00000000 NULL       0.13049900       0.00818200       0.10973900
P        2.67188705       5.11796436       1.59966732       0.00000000 NULL       0.31094300      -0.12845700       0.56929100
P       -0.87771370      -0.81877783       5.57575823       0.00000000 NULL       0.04817800      -0.52656200       0.46572000
P        0.66029994       2.83866924       1.37441378       0.00000000 NULL      -0.32776300      -0.40599300       0.50159700
P        0.44807218       6.17996517       2.20784821       0.00000000 NULL      -0.22616200       0.58819600      -0.44536000
P       -1.99161786       3.07118748       6.58838116       0.00000000 NULL       0.12713200      -0.06400300      -0.66805600
P        2.85218073       2.61399852       0.89252356       0.00000000 NULL       0.05962800      -0.44126200      -0.03742000
P       -1.79883872       3.21979554       8.74909856       0.00000000 NULL      -0.16789100       0.33010300       0.00678900
P        1.04711578       2.92143656       8.24289624       0.00000000 NULL      -0.51726400       0.85493700       0.02777700
P       -2.25057074       1.19716497       7.64166100       0.00000000 NULL      -0.41964000      -0.51678700      -0.30895100
P        1.02505275       4.26493748       3.09852920       0.00000000 NULL       0.41851800      -0.08296600       0.24808300
13
Lattice="5.094216632795495 -0.2730150322342173 -0.8024569029141851 -2.5934226709433976 7.293136864436733 0.6218602760780875 -2.157886166379385 -1.1276168343996187 8.754661646257713" Properties=species:S:1:pos:R:3:initial_magmoms:R:1:castep_labels:S:1:forces:R:3 n_minim_iter=3 energy=-66.292760397348 stress="-0.0032013019319308026 -0.0015665627882462778 -0.0016964225128905583 -0.0015665627882462778 0.0018759860471424371 0.0029146365897785536 -0.0016964225128905583 0.0029146365897785536 0.001896341558980428" free_energy=-66.292760397348 pbc="T T T"
P        3.46053729       0.57039169       3.44478427       0.00000000 NULL       0.15598700      -0.13167100      -0.40396300
P       -0.45027033       0.35884268       7.40324606       0.00000000 NULL       0.21423800       0.36835500       0.46829400
P        1.26164266      -0.03305276       2.87681251       0.00000000 NULL       0.14273500      -0.06021800       0.11953700
P        2.67454807       5.24281908       1.75001580       0.00000000 NULL       0.20989000      -0.28635900       0.29103100
P       -0.96430446      -0.71504018       5.61517940       0.00000000 NULL      -0.16222000      -0.49563400      -0.19691800
P        0.62188052       2.89904901       1.49639974       0.00000000 NULL      -0.08537700       0.11439700       0.04821900
P        0.38798590       6.40330745       2.32647962       0.00000000 NULL       0.02819000       0.44181200      -0.12747700
P       -2.07855664       3.25726174       6.63700454       0.00000000 NULL       0.11818300      -0.07106200      -0.10541400
P        2.81664085       2.69187586       0.86792830       0.00000000 NULL      -0.13037200      -0.64722500       0.30432600
P       -1.96323629       3.52652991       8.84341286       0.00000000 NULL      -0.31036300       0.09618300      -0.25505400
P        0.87205940       3.23932707       8.31341838       0.00000000 NULL      -0.33903500       1.08938600      -0.00565000
P       -2.38284902       1.37685987       7.64457288       0.00000000 NULL      -0.18384600      -0.46500000      -0.09380800
P        1.02009020       4.43141818       3.17575899       0.00000000 NULL       0.34199000       0.04703600      -0.04312300
13
Lattice="5.159940799615696 -0.22088367395085873 -0.7727266891106512 -2.565546582191489 7.222688724060568 0.5526865147284299 -2.1644000705423743 -1.204964202094744 8.643740549678512" Properties=species:S:1:pos:R:3:initial_magmoms:R:1:castep_labels:S:1:forces:R:3 n_minim_iter=4 energy=-66.397931334512 stress="0.0003131096060798919 -0.0017259204474360029 -0.002017788457688674 -0.0017259204474360029 0.0018691951744365036 -0.0033110133563308618 -0.002017788457688674 -0.0033110133563308618 -0.0030623790088601683" free_energy=-66.397931334512 pbc="T T T"
P        3.53837922       0.58308893       3.40373073       0.00000000 NULL       0.11733200      -0.16243100      -0.25286800
P       -0.42264141       0.29776382       7.28921981       0.00000000 NULL       0.31741300       0.58151900       0.84448000
P        1.30378856      -0.05177087       2.84521817       0.00000000 NULL       0.04566500       0.03375000       0.22091100
P        2.77436366       5.21340685       1.72390434       0.00000000 NULL       0.24768700      -0.35407500       0.25423100
P       -0.96419667      -0.77665200       5.56058137       0.00000000 NULL      -0.30021100      -0.61174500      -0.70563300
P        0.65385817       2.86956522       1.47903127       0.00000000 NULL       0.06847800       0.12608800      -0.16000900
P        0.44792653       6.37456170       2.24285677       0.00000000 NULL       0.22450200       0.32150300      -0.16357600
P       -2.04865826       3.15771224       6.50714234       0.00000000 NULL       0.08762300      -0.13404300      -0.18046500
P        2.87308535       2.68483499       0.83842313       0.00000000 NULL      -0.23292300      -0.49908400       0.18904000
P       -1.94094299       3.43139181       8.69707938       0.00000000 NULL      -0.46009500      -0.02477400      -0.13316300
P        0.92457571       3.19980743       8.19938742       0.00000000 NULL      -0.24505800       0.88120300       0.09040900
P       -2.38246504       1.27220054       7.51432069       0.00000000 NULL      -0.12817800      -0.32736000      -0.07936400
P        1.10257879       4.39368678       3.10404269       0.00000000 NULL       0.25776400       0.16944900       0.07600600
13
Lattice="5.198120100139776 -0.10473690709368214 -0.6924820534225178 -2.4230618043007652 7.009285772650446 0.6038750131252862 -2.077954464592065 -1.1027633901306946 8.56438178320484" Properties=species:S:1:pos:R:3:initial_magmoms:R:1:castep_labels:S:1:forces:R:3 n_minim_iter=5 energy=-66.564174622321 stress="-0.001734369913423422 0.0034178986711699637 0.003885418417795518 0.0034178986711699637 -0.0005242641806523912 0.0017893566297393169 0.003885418417795518 0.0017893566297393169 0.0002548690680866414" free_energy=-66.564174622321 pbc="T T T"
P        3.66513423       0.72086729       3.44404798       0.00000000 NULL      -0.12976400      -0.07105300      -0.45602700
P       -0.29589017       0.39883043       7.24823178       0.00000000 NULL       0.43248100       0.12745100       0.32052100
P        1.38577765       0.00935082       2.85945093       0.00000000 NULL      -0.50355900       0.15644100       0.51282900
P        2.97153687       5.16991777       1.87340244       0.00000000 NULL       0.56674600      -0.25597400       0.12333100
P       -0.91241573      -0.73692012       5.52887826       0.00000000 NULL      -0.15931700      -0.45057700      -0.32066100
P        0.73902201       2.83400362       1.55241901       0.00000000 NULL       0.27425100       0.24016300      -0.04290400
P        0.62108988       6.31832620       2.30635487       0.00000000 NULL       0.67652600       0.35190400      -0.44295900
P       -1.88637080       3.11002950       6.46517311       0.00000000 NULL       0.17743500       0.25722600      -0.15851700
P        2.95626101       2.68381711       0.90040452       0.00000000 NULL      -0.26763600      -0.63877200       0.20185700
P       -1.77892756       3.44894992       8.67698770       0.00000000 NULL      -0.54820300       0.06588300      -0.27884000
P        1.10258890       3.33829503       8.25049927       0.00000000 NULL      -0.21620700       0.94404600       0.09325900
P       -2.27538429       1.26164477       7.44027671       0.00000000 NULL      -0.33852200      -0.49432200       0.24678300
P        1.29747226       4.37748799       3.16402298       0.00000000 NULL       0.03576900      -0.23241700       0.20132800
13
Lattice="5.265344510203346 -0.10860827925467754 -0.7867311060450174 -2.458770733008402 6.739300261209551 0.7789156098010281 -2.261517693563982 -0.8872816085861688 8.509969064790992" Properties=species:S:1:pos:R:3:initial_magmoms:R:1:castep_labels:S:1:forces:R:3 n_minim_iter=6 energy=-66.878398293418 stress="0.0036675599200654595 -0.0002756492422165008 -0.0013747268441146629 -0.0002756492422165008 -0.0075120542892592465 0.005974504967485344 -0.0013747268441146629 0.005974504967485344 -0.0007350301423129449" free_energy=-66.878398293418 pbc="T T T"
P        3.67070916       0.78920992       3.33016057       0.00000000 NULL      -0.10616200       0.25469200      -0.42751400
P       -0.40496616       0.55252633       7.18769897       0.00000000 NULL      -0.02330200       0.30937200       0.31753700
P        1.36851325       0.05394232       2.83324274       0.00000000 NULL      -0.10721300       0.28965800       0.28160200
P        3.02618515       4.97031860       1.97637301       0.00000000 NULL       0.66690800      -0.34153000      -0.08107500
P       -1.04768900      -0.66866118       5.49233973       0.00000000 NULL       0.05812800      -0.40252500       0.02896900
P        0.71366167       2.74824488       1.63036903       0.00000000 NULL       0.36887500      -0.13011100      -0.21053900
P        0.59602321       6.19015943       2.35458755       0.00000000 NULL       0.18429600       0.52425200      -0.29153400
P       -2.00174501       3.08232497       6.45392850       0.00000000 NULL       0.23286900       0.63618000      -0.11176400
P        2.92315296       2.54664719       0.86587340       0.00000000 NULL      -0.44431700      -0.51615600      -0.02097200
P       -2.03360246       3.50402556       8.69181026       0.00000000 NULL      -0.63575300       0.14671100      -0.49215300
P        0.89840893       3.50774130       8.27468334       0.00000000 NULL       0.01758100       0.63292900       0.04101700
P       -2.47470548       1.28796362       7.40544880       0.00000000 NULL      -0.14880500      -0.96685300       0.52120500
P        1.31164576       4.27848002       3.19667958       0.00000000 NULL      -0.06310600      -0.43661800       0.44522000
13
Lattice="5.182824826758177 -0.09208492292783844 -0.8000272122770168 -2.392887350447139 6.731531655085865 0.7925776015498158 -2.2566962865065268 -0.885303843396165 8.516158507127832" Properties=species:S:1:pos:R:3:initial_magmoms:R:1:castep_labels:S:1:forces:R:3 n_minim_iter=7 energy=-67.034159657325 stress="-0.003119271965578572 -0.0002466061863770287 0.0006546827962243001 -0.0002466061863770287 0.0014137515752218712 0.001360278742259413 0.0006546827962243001 0.001360278742259413 0.00400741189089405" free_energy=-67.034159657325 pbc="T T T"
P        3.61958379       0.81894952       3.30680291       0.00000000 NULL      -0.01740200       0.00378900      -0.19103300
P       -0.40615510       0.57290449       7.18627415       0.00000000 NULL       0.07030700       0.23266700       0.20383400
P        1.34879443       0.05675533       2.84386077       0.00000000 NULL      -0.18754700       0.47717800       0.36846500
P        3.02593602       4.96275384       2.01062654       0.00000000 NULL       0.85001500      -0.31161800      -0.16662600
P       -1.06136222      -0.70375501       5.49911817       0.00000000 NULL       0.03122800      -0.03441400       0.00057900
P        0.71023856       2.74748346       1.65474647       0.00000000 NULL       0.20643600       0.01583200      -0.33460400
P        0.61154957       6.23499817       2.33854126       0.00000000 NULL       0.28521800       0.25829100      -0.27762600
P       -1.96252877       3.07098928       6.43752779       0.00000000 NULL       0.10791600       0.14053800       0.30190400
P        2.85664718       2.52968149       0.84813327       0.00000000 NULL      -0.29783300      -0.17278800      -0.37844300
P       -2.05475074       3.51563567       8.69401935       0.00000000 NULL      -0.44300300      -0.00687100      -0.47455600
P        0.84437422       3.58691021       8.30430211       0.00000000 NULL      -0.09426500       0.13969300       0.16621700
P       -2.47153052       1.24610303       7.39820692       0.00000000 NULL      -0.17605000      -0.43176400       0.32831200
P        1.32606248       4.28840723       3.20208025       0.00000000 NULL      -0.33502000      -0.31053200       0.45357700
13
Lattice="5.241909255791481 0.004429624752231544 -0.7851996020485614 -2.2759542913786763 6.678265181726243 0.9067938994303876 -2.313394970075046 -0.7735996211052736 8.221217489543546" Properties=species:S:1:pos:R:3:initial_magmoms:R:1:castep_labels:S:1:forces:R:3 n_minim_iter=8 energy=-67.267062345075 stress="0.0049936997175933735 0.003811516128809087 -0.0017502747928016817 0.003811516128809087 0.009803502611752687 0.0026635007352648478 -0.0017502747928016817 0.0026635007352648478 0.002812330200426227" free_energy=-67.267062345075 pbc="T T T"
P        3.70093678       0.98593639       3.18843434       0.00000000 NULL      -0.17049700      -0.16434800      -0.36163900
P       -0.39105918       0.72300477       6.95348533       0.00000000 NULL      -0.23775200       0.33988500       0.06812100
P        1.37796387       0.15855228       2.78433460       0.00000000 NULL      -0.14223900       0.25332600       0.05667700
P        3.26117001       5.01611706       2.07731872       0.00000000 NULL       0.52156500      -0.08743700       0.61328200
P       -1.10544473      -0.67069633       5.32020251       0.00000000 NULL       0.18044300       0.03452200       0.34700300
P        0.78710023       2.77002446       1.67122403       0.00000000 NULL       0.26492100       0.09755500      -0.19361700
P        0.76724343       6.34366657       2.34496315       0.00000000 NULL       0.11040600       0.16184800      -0.11129500
P       -1.90218965       3.12792852       6.26766669       0.00000000 NULL       0.06422600      -0.54296600       0.41765600
P        2.88724632       2.56180324       0.81413190       0.00000000 NULL      -0.31435700      -0.08757900      -0.60809200
P       -2.09359652       3.63059702       8.45282337       0.00000000 NULL      -0.43515700       0.25645900      -0.20820900
P        0.87723376       3.83441840       8.15050816       0.00000000 NULL      -0.01675100      -0.06675000      -0.32530300
P       -2.51909008       1.25117036       7.16960637       0.00000000 NULL       0.18379600      -0.07716500       0.20564900
P        1.44597577       4.35808427       3.20946944       0.00000000 NULL      -0.00860600      -0.11735200       0.09976700
13
Lattice="5.280682363524529 -0.032089972972839574 -0.6633669598500082 -2.351296615425075 6.434514763715717 0.9092964419037839 -2.116960078115056 -0.6235869279262433 8.095119529137735" Properties=species:S:1:pos:R:3:initial_magmoms:R:1:castep_labels:S:1:forces:R:3 n_minim_iter=9 energy=-67.538660675445 stress="0.007585303540130266 -0.0017724649306236728 0.002250824478685608 -0.0017724649306236728 0.004370395411478323 0.0028421196468393765 0.002250824478685608 0.0028421196468393765 0.003449788797647969" free_energy=-67.538660675445 pbc="T T T"
P        3.84118732       1.00381983       3.22458203       0.00000000 NULL       0.00238700      -0.27679400      -0.10410400
P       -0.21052120       0.82139523       6.88380517       0.00000000 NULL      -0.59810000       0.51596900      -0.15365800
P        1.48275403       0.21352897       2.83589506       0.00000000 NULL      -0.08228400       0.35089600       0.13369900
P        3.42699964       4.79011901       2.24131418       0.00000000 NULL       0.06047900      -0.33321400       0.54246000
P       -0.97276258      -0.61762894       5.27852304       0.00000000 NULL      -0.09202900       0.26279400       0.09480800
P        0.82762768       2.65489534       1.71585790       0.00000000 NULL      -0.17980500       0.05483300       0.09609200
P        0.78267825       6.19640485       2.34969231       0.00000000 NULL       0.21413100      -0.09073000       0.28064100
P       -1.76634281       3.06636567       6.18013142       0.00000000 NULL       0.33765800      -0.22525500       0.20107400
P        2.83995286       2.40731822       0.81328590       0.00000000 NULL      -0.26384800      -0.11268400      -0.72490400
P       -2.04080760       3.62158666       8.33235378       0.00000000 NULL      -0.13381100       0.19519900      -0.02565000
P        1.00478180       3.87051381       8.18149367       0.00000000 NULL       0.30972700       0.14424500      -0.40663300
P       -2.41218688       1.22147601       7.05139090       0.00000000 NULL       0.40372700      -0.40980200       0.32637800
P        1.51760855       4.20722010       3.29357227       0.00000000 NULL       0.02176800      -0.07545900      -0.26020300
13
Lattice="5.3004640234621165 0.04041479175176282 -0.7078954478466597 -2.271138148326214 6.243464378032835 0.9217174888544786 -2.2059740148855673 -0.6299027301965724 8.215009340801242" Properties=species:S:1:pos:R:3:initial_magmoms:R:1:castep_labels:S:1:forces:R:3 n_minim_iter=10 energy=-67.662942126236 stress="0.011474422930839504 -0.00044912523531690207 -0.001990008030885021 -0.00044912523531690207 0.00552758193145763 0.002469263735960888 -0.001990008030885021 0.002469263735960888 0.01027094098460235" free_energy=-67.662942126236 pbc="T T T"
P        3.84998131       1.04344504       3.22263086       0.00000000 NULL       0.03583600      -0.17272400       0.01249500
P       -0.27175296       0.82824711       6.96647233       0.00000000 NULL      -0.53050700       0.70386800      -0.25779500
P        1.46977352       0.25661935       2.88662875       0.00000000 NULL       0.10003700       0.43654100      -0.05534600
P        3.54098062       4.70033218       2.27697677       0.00000000 NULL      -0.37428700      -0.49643600       0.20207700
P       -1.03622610      -0.62557446       5.37248892       0.00000000 NULL      -0.16593100       0.22582000       0.01069000
P        0.84845152       2.59105004       1.73666502       0.00000000 NULL       0.06105200       0.01330500       0.00315200
P        0.86704745       6.08796600       2.34409247       0.00000000 NULL      -0.05012200      -0.06185900       0.55524700
P       -1.76052309       2.95470820       6.25547352       0.00000000 NULL       0.36366900      -0.52923800       0.36073000
P        2.84056975       2.35719558       0.74406359       0.00000000 NULL      -0.23272500       0.00733400      -0.53737000
P       -2.11283917       3.52292699       8.43105002       0.00000000 NULL      -0.14415300       0.04491700      -0.03973800
P        0.97582698       3.83542533       8.27695738       0.00000000 NULL       0.31138500       0.21989200       0.09018300
P       -2.47253911       1.12099963       7.15404351       0.00000000 NULL       0.25189500      -0.17587200       0.20477800
P        1.56276844       4.11927196       3.32741746       0.00000000 NULL       0.37385100      -0.21554700      -0.54910400
13
Lattice="5.335860926532493 0.036159613752019155 -0.6783077618264679 -2.2891751912943588 6.170684502285022 0.9822044488478426 -2.1787896959672297 -0.5199257759840417 8.085136111420319" Properties=species:S:1:pos:R:3:initial_magmoms:R:1:castep_labels:S:1:forces:R:3 n_minim_iter=11 energy=-67.842040011462 stress="0.013011461240045088 -0.0010706071509825185 -0.0031315827347272633 -0.0010706071509825185 0.00897356234483437 0.005851879442359922 -0.0031315827347272633 0.005851879442359922 0.006339552112868276" free_energy=-67.842040011462 pbc="T T T"
P        3.91668149       1.08907745       3.18696083       0.00000000 NULL       0.00981000      -0.11860800       0.02239100
P       -0.25897303       0.95758426       6.86719247       0.00000000 NULL      -0.55062000       0.65575900      -0.64375400
P        1.50187210       0.35531474       2.90038472       0.00000000 NULL       0.12086100       0.01212700      -0.15604800
P        3.62834446       4.62107979       2.37897844       0.00000000 NULL      -0.31765800      -0.25593100      -0.00213900
P       -1.03108000      -0.57025249       5.30940031       0.00000000 NULL      -0.25050100       0.27210800       0.09192600
P        0.85070417       2.56054764       1.76512768       0.00000000 NULL       0.18551400       0.02460800      -0.02008000
P        0.89914449       6.08696145       2.39014077       0.00000000 NULL      -0.21328500      -0.09891300       0.55868000
P       -1.69539517       2.95278822       6.18967777       0.00000000 NULL       0.34290800      -0.51187900       0.28179000
P        2.81163655       2.28221952       0.67990023       0.00000000 NULL      -0.16315600       0.52669600      -0.14352700
P       -2.15304929       3.59947174       8.33438989       0.00000000 NULL       0.11054700       0.05018400      -0.02989800
P        1.01413276       3.96825511       8.23427191       0.00000000 NULL       0.30934800      -0.01823900       0.31758800
P       -2.46862715       1.12873659       7.06314438       0.00000000 NULL       0.15485700      -0.27654300       0.13711400
P        1.62324465       4.08316371       3.33755860       0.00000000 NULL       0.26137500      -0.26136900      -0.41404300
13
Lattice="5.358670895893033 0.06732181215464529 -0.6747010838651994 -2.2723917293164484 5.942839420597075 0.9537940872061583 -2.1693005785783996 -0.5174062253756483 8.241259223901206" Properties=species:S:1:pos:R:3:initial_magmoms:R:1:castep_labels:S:1:forces:R:3 n_minim_iter=12 energy=-67.985627372759 stress="0.015496873762136064 -0.00016445716008088273 -0.005397287673606629 -0.00016445716008088273 0.004825777618488981 0.004953697399091923 -0.005397287673606629 0.004953697399091923 0.010364073089227963" free_energy=-67.985627372759 pbc="T T T"
P        3.96716851       1.09247400       3.25156391       0.00000000 NULL      -0.01931100      -0.00549100       0.07120400
P       -0.25206054       0.96284994       6.95515880       0.00000000 NULL      -0.54253100       0.57213400      -0.58589700
P        1.51321160       0.39964743       3.00008691       0.00000000 NULL       0.18515400      -0.10924300      -0.25237500
P        3.70429112       4.43463785       2.42511538       0.00000000 NULL      -0.34832400      -0.02729500      -0.07732100
P       -1.05672198      -0.57036898       5.42539735       0.00000000 NULL      -0.40114200       0.30737800       0.05667300
P        0.87222717       2.46157692       1.79315041       0.00000000 NULL       0.24364000      -0.07469400      -0.10661400
P        0.94793751       5.91326831       2.40594063       0.00000000 NULL      -0.27526200      -0.28767800       0.72033300
P       -1.62463933       2.80594914       6.27650606       0.00000000 NULL       0.21729200      -0.50519500       0.38313300
P        2.80458194       2.20866763       0.63353357       0.00000000 NULL      -0.15165600       0.45943200      -0.07313300
P       -2.15965072       3.46856777       8.45151407       0.00000000 NULL       0.12250500      -0.02363100      -0.00840700
P        1.05750192       3.89538449       8.42084676       0.00000000 NULL       0.29019000       0.07077000       0.46410500
P       -2.48702534       1.01476208       7.19034476       0.00000000 NULL       0.37317200      -0.11701800      -0.08165800
P        1.68016629       3.91573850       3.37763321       0.00000000 NULL       0.30627400      -0.25947000      -0.51004300
13
Lattice="5.363665385222259 0.060150734032822936 -0.6225748443405367 -2.2891571856412796 5.879486727168764 0.9224643331552279 -2.0745982682738133 -0.5054583560085203 8.272598885177233" Properties=species:S:1:pos:R:3:initial_magmoms:R:1:castep_labels:S:1:forces:R:3 n_minim_iter=13 energy=-68.097085236376 stress="0.01540169305146837 -0.00010824236074962371 -0.003984388803683027 -0.00010824236074962371 0.005063532339641397 0.005798268364123692 -0.003984388803683027 0.005798268364123692 0.013849555390055387" free_energy=-68.097085236376 pbc="T T T"
P        4.02260415       1.08611801       3.30723558       0.00000000 NULL      -0.01236400      -0.00979200       0.00818200
P       -0.19907707       0.98840507       6.95067057       0.00000000 NULL       0.08117200       0.30731300      -0.42400000
P        1.52721305       0.41862753       3.06806977       0.00000000 NULL       0.18168300      -0.13730800      -0.32012300
P        3.78566284       4.37523831       2.49756740       0.00000000 NULL      -0.65536300      -0.09484500      -0.18289000
P       -1.06223048      -0.56205214       5.45162164       0.00000000 NULL      -0.46617100       0.38424300       0.14664600
P        0.88047199       2.41912394       1.80021998       0.00000000 NULL       0.26043700      -0.04989300      -0.12095200
P        0.97902211       5.84776018       2.43679984       0.00000000 NULL      -0.28398000      -0.25108000       0.68387200
P       -1.53023059       2.74666191       6.29977116       0.00000000 NULL       0.09610200      -0.00431300       0.16893800
P        2.79109635       2.17661975       0.62275512       0.00000000 NULL      -0.10929600       0.50602400      -0.05585300
P       -2.08306397       3.44660462       8.46334920       0.00000000 NULL       0.12555000       0.07583800       0.15862500
P        1.15003504       3.91578358       8.52235030       0.00000000 NULL       0.41793100      -0.16121700       0.56505400
P       -2.39505367       0.96322839       7.18966289       0.00000000 NULL      -0.01125200      -0.42943500      -0.11096200
P        1.71134271       3.84007490       3.40296979       0.00000000 NULL       0.37554800      -0.13553600      -0.51653800
13
Lattice="5.361149577785685 0.04258427598284494 -0.5112053136631465 -2.3217551442898006 5.753483183626072 0.848792815697402 -1.8778994289735869 -0.4897098130284753 8.257140420198796" Properties=species:S:1:pos:R:3:initial_magmoms:R:1:castep_labels:S:1:forces:R:3 n_minim_iter=14 energy=-68.311173423107 stress="0.016133762319457377 0.0012924229971900375 -0.0030874173951574145 0.0012924229971900375 -3.704789571497908e-05 0.004157791523823983 -0.0030874173951574145 0.004157791523823983 0.01120555741918274" free_energy=-68.311173423107 pbc="T T T"
P        4.11910090       1.05950023       3.37771716       0.00000000 NULL       0.16089700       0.22789300       0.09398000
P       -0.00146136       1.02385344       6.90641724       0.00000000 NULL      -0.04400700      -0.19449700      -0.57636900
P        1.54823270       0.44645550       3.15407404       0.00000000 NULL      -0.03484300      -0.19854600      -0.36040700
P        3.88508182       4.25325544       2.62583207       0.00000000 NULL      -0.85071000      -0.17538700      -0.40844300
P       -1.08678174      -0.53051915       5.46678939       0.00000000 NULL      -0.40391900       0.25152800       0.27330900
P        0.88618749       2.32615715       1.77929346       0.00000000 NULL       0.28144300       0.07489100      -0.01971000