9
Lattice="5.888130000000002 -1.3251141731932855e-15 1.351110355098047e-15 1.2429698947749588 5.755440968126 2.274173968314072e-16 1.2429698947749581 1.0031888432493794 5.667337371496698" Properties=species:S:1:pos:R:3:initial_magmoms:R:1:castep_labels:S:1 n_minim_iter=1 pbc="T T T"
P        4.08961142       4.64393462       2.48843943       0.00000000 NULL
P        5.40259054       2.97624035       2.53720120       0.00000000 NULL
P        4.04964446       3.30931681       4.13910414       0.00000000 NULL
P        3.91841364       1.18185115       3.80307978       0.00000000 NULL
P        1.98238570       4.36897548       2.86292744       0.00000000 NULL
P        4.68899740       2.99609472       0.50087248       0.00000000 NULL
P        6.35118524       1.31788485       4.35565027       0.00000000 NULL
P        2.62890604       5.32256487       5.07988385       0.00000000 NULL
P        5.75757651       5.25417778       0.53850927       0.00000000 NULL
9
Lattice="5.891965921567426 -0.0026270294825491243 -0.002202852172403017 1.2412118191072503 5.759745006708565 -0.002202852172404416 1.2412118191072494 1.0017699175755983 5.671959487434876" Properties=species:S:1:pos:R:3:initial_magmoms:R:1:castep_labels:S:1 n_minim_iter=2 pbc="T T T"
P        4.08921745       4.64539121       2.48777516       0.00000000 NULL
P        5.40393114       2.97546553       2.53663501       0.00000000 NULL
P        4.04917010       3.30901620       4.14065422       0.00000000 NULL
P        3.91913658       1.17993206       3.80484992       0.00000000 NULL
P        1.98066247       4.37091230       2.86371365       0.00000000 NULL
P        4.69052680       2.99650403       0.49867423       0.00000000 NULL
P        6.35305032       1.31492472       4.35692625       0.00000000 NULL
P        2.62640632       5.32424800       5.08207190       0.00000000 NULL
P        5.75869403       5.25584451       0.53537204       0.00000000 NULL
9
Lattice="6.022549394646711 -0.09357048974975685 -0.07846198833608142 1.1798836230225311 5.906583723577843 -0.0784619883360829 1.1798836230225302 0.9522725304325739 5.829842587500272" Properties=species:S:1:pos:R:3:initial_magmoms:R:1:castep_labels:S:1 n_minim_iter=3 pbc="T T T"
P        4.07400629       4.69410800       2.46380750       0.00000000 NULL
P        5.44833906       2.94748064       2.51604530       0.00000000 NULL
P        4.03119025       3.29733736       4.19280289       0.00000000 NULL
P        3.94281928       1.11303680       3.86462592       0.00000000 NULL
P        1.92027405       4.43626960       2.88999444       0.00000000 NULL
P        4.74166343       3.00968904       0.42238387       0.00000000 NULL
P        6.41518207       1.21195486       4.39949879       0.00000000 NULL
P        2.53887275       5.38054329       5.15585727       0.00000000 NULL
P        5.79524258       5.31151550       0.42655793       0.00000000 NULL
9
Lattice="6.008915500703747 -0.1377412255452279 -0.11550062910892794 1.1338301931374597 5.9025814041775275 -0.11550062910892875 1.1338301931374595 0.9151032576703917 5.832357469845954" Properties=species:S:1:pos:R:3:initial_magmoms:R:1:castep_labels:S:1 n_minim_iter=4 pbc="T T T"
P        4.01242851       4.65564210       2.41978444       0.00000000 NULL
P        5.39774107       2.89505553       2.47244565       0.00000000 NULL
P        3.96926543       3.24771349       4.16259916       0.00000000 NULL
P        3.90636960       1.06641953       3.84318634       0.00000000 NULL
P        1.86701287       4.41066339       2.86833868       0.00000000 NULL
P        4.70539094       2.98023259       0.38021719       0.00000000 NULL
P        6.36048378       1.14204982       4.36553127       0.00000000 NULL
P        2.45899635       5.34034868       5.12366157       0.00000000 NULL
P        5.73909204       5.26768268       0.36364361       0.00000000 NULL
9
Lattice="5.953755499479843 -0.24116126104430716 -0.20222179131239043 1.0210965866862598 5.870496151269724 -0.20222179131239232 1.021096586686259 0.824117066672109 5.815879105979933" Properties=species:S:1:pos:R:3:initial_magmoms:R:1:castep_labels:S:1 n_minim_iter=5 pbc="T T T"
P        3.85282579       4.54682826       2.30647265       0.00000000 NULL
P        5.25768760       2.76028981       2.36119696       0.00000000 NULL
P        3.80797171       3.11926489       4.07520157       0.00000000 NULL
P        3.80859390       0.95175243       3.77672448       0.00000000 NULL
P        1.73428958       4.33277957       2.80964924       0.00000000 NULL
P        4.60124467       2.90269459       0.27888988       0.00000000 NULL
P        6.20575677       0.97149822       4.27082619       0.00000000 NULL
P        2.25962564       5.22700717       5.02669575       0.00000000 NULL
P        5.58621801       5.14240384       0.21221015       0.00000000 NULL
9
Lattice="5.923351995661756 -0.34906701030036136 -0.2927043746799409 0.9092043883302146 5.863556431248124 -0.2927043746799435 0.9092043883302131 0.7338099679167094 5.824816976040881" Properties=species:S:1:pos:R:3:initial_magmoms:R:1:castep_labels:S:1 n_minim_iter=6 pbc="T T T"
P        3.71041210       4.45420620       2.19732567       0.00000000 NULL
P        5.13708960       2.63195796       2.26240109       0.00000000 NULL
P        3.65707388       3.00615647       4.00302197       0.00000000 NULL
P        3.73422869       0.83060859       3.72090209       0.00000000 NULL
P        1.60017740       4.26959921       2.77298426       0.00000000 NULL
P        4.51117733       2.84606626       0.16933050       0.00000000 NULL
P        6.06866407       0.79530304       4.19791741       0.00000000 NULL
P        2.05846108       5.13834041       4.94407695       0.00000000 NULL
P        5.45708401       5.03003888       0.05142035       0.00000000 NULL
