48
Lattice="10.28849 0.0 0.0 0.0 10.708139999999998 2.983959379484101e-16 0.0 -5.354069999999999 9.273521267280298" Properties=species:S:1:pos:R:3:initial_magmoms:R:1:castep_labels:S:1 n_minim_iter=1 pbc="T T T"
P        6.43412534      -0.73619480       8.64492768       0.00000000 NULL
P        9.86362201       2.50075438       5.58862082       0.00000000 NULL
P        3.00462867      -1.76455959       4.31349403       0.00000000 NULL
P        8.68055231       3.95741212       2.13922609       0.00000000 NULL
P        1.82155898       5.22798807       4.77668879       0.00000000 NULL
P        5.25105564       6.87680980       2.35760639       0.00000000 NULL
P        3.19083011       3.95071525       5.85644846       0.00000000 NULL
P        6.62032678       8.45054551       2.92387726       0.00000000 NULL
P       10.04982344       3.66094923       0.49319554       0.00000000 NULL
P        1.44713168       2.02342405       4.98696775       0.00000000 NULL
P        4.87662835      -2.04694127       5.02770076       0.00000000 NULL
P        8.30612501       0.02351721       8.53237402       0.00000000 NULL
P        5.06192679      -1.03823984       2.59574206       0.00000000 NULL
P        8.49142346      -2.58697152       8.87479231       0.00000000 NULL
P        1.63243012       3.62521135       7.07650816       0.00000000 NULL
P        0.76116718       4.04817967       2.19175873       0.00000000 NULL
P        4.19066385       5.22809890       4.67181547       0.00000000 NULL
P        7.62016051       6.78593142       2.40994707       0.00000000 NULL
P        0.35731411       0.54850627       3.44409492       0.00000000 NULL
P        3.78681078      -2.64564945       7.07645344       0.00000000 NULL
P        7.21630744       2.09714317       8.02649417       0.00000000 NULL
P        7.59600760       5.20430810       6.80769938       0.00000000 NULL
P        0.73701427       8.64755655       1.36260855       0.00000000 NULL
P        4.16651093       2.21034534       1.10321334       0.00000000 NULL
P        9.77224032      -0.82245690       6.47788845       0.00000000 NULL
P        2.91324699       0.66717441       6.74684561       0.00000000 NULL
P        6.34274365       0.15528248       5.32230848       0.00000000 NULL
P        9.23430559      -0.31733359       0.75295985       0.00000000 NULL
P        2.37531226      -4.54332085       9.17186029       0.00000000 NULL
P        5.80480892       4.86065443       8.62222239       0.00000000 NULL
P        4.10178947       2.11334513       5.90774216       0.00000000 NULL
P        7.53128614      -1.29448778       4.48943961       0.00000000 NULL
P        0.67229280      -0.81885736       8.14986076       0.00000000 NULL
P        1.57754652      -1.37286600       5.75769010       0.00000000 NULL
P        5.00704319       0.31866889       7.58361305       0.00000000 NULL
P        8.43653985       1.05419710       5.20573939       0.00000000 NULL
P        3.92396012       4.44567974       7.69547861       0.00000000 NULL
P        7.35345679       9.79571010       1.57571037       0.00000000 NULL
P        0.49446345       1.82082015       0.00233229       0.00000000 NULL
P        2.60469174       0.18908755       4.79679008       0.00000000 NULL
P        6.03418841      -1.29447171       6.71137160       0.00000000 NULL
P        9.46368507       1.10538415       7.03888085       0.00000000 NULL
P        2.96719743       6.73343638       1.96996392       0.00000000 NULL
P        6.39669410       3.69339061       2.45721234       0.00000000 NULL
P        9.82619076       5.63538301       4.84634500       0.00000000 NULL
P        8.10179388       3.95066867       4.41640322       0.00000000 NULL
P        1.24280055       7.20345304       3.64394022       0.00000000 NULL
P        4.67229721       4.90808828       1.21317782       0.00000000 NULL
48
Lattice="10.339488097140594 0.0 0.0 0.0 10.773088911786854 4.4371616349441734e-16 0.0 -5.386544455893427 9.329768674835872" Properties=species:S:1:pos:R:3:initial_magmoms:R:1:castep_labels:S:1 n_minim_iter=2 pbc="T T T"
P        6.46591772      -0.74082625       8.69777723       0.00000000 NULL
P        9.91241375       2.51636470       5.62245441       0.00000000 NULL
P        3.01942169      -1.77553846       4.33930571       0.00000000 NULL
P        8.72350174       3.98139855       2.15238493       0.00000000 NULL
P        1.83050967       5.25986521       4.80558392       0.00000000 NULL
P        5.27700571       6.91836960       2.37179982       0.00000000 NULL
P        3.20670364       3.97461648       5.89181639       0.00000000 NULL
P        6.65319967       8.50169888       2.94174163       0.00000000 NULL
P       10.09969570       3.68331800       0.49621065       0.00000000 NULL
P        1.45431465       2.03571047       5.01699024       0.00000000 NULL
P        4.90081068      -2.05955870       5.05829657       0.00000000 NULL
P        8.34730672       0.02384822       8.58425054       0.00000000 NULL
P        5.08673291      -1.04434147       2.61137330       0.00000000 NULL
P        8.53322894      -2.60285811       8.92850827       0.00000000 NULL
P        1.64023688       3.64719957       7.11965579       0.00000000 NULL
P        0.76503456       4.07277610       2.20532173       0.00000000 NULL
P        4.21153059       5.26002105       4.69998024       0.00000000 NULL
P        7.65802662       6.82683621       2.42446670       0.00000000 NULL
P        0.35915117       0.55191488       3.46507186       0.00000000 NULL
P        3.80564720      -2.66166164       7.11926044       0.00000000 NULL
P        7.25214323       2.10974675       8.07520505       0.00000000 NULL
P        7.63356001       5.23582852       6.84903434       0.00000000 NULL
P        0.74056795       8.70006792       1.37089099       0.00000000 NULL
P        4.18706398       2.22373692       1.10984334       0.00000000 NULL
P        9.82055560      -0.82774789       6.51695341       0.00000000 NULL
P        2.92756354       0.67117669       6.78814266       0.00000000 NULL
P        6.37405957       0.15657118       5.35444127       0.00000000 NULL
P        9.28030373      -0.31935131       0.75754838       0.00000000 NULL
P        2.38731167      -4.57081267       9.22756083       0.00000000 NULL
P        5.83380770       4.89016397       8.67442814       0.00000000 NULL
P        4.12249867       2.12608851       5.94343175       0.00000000 NULL
P        7.56899470      -1.30242583       4.51680613       0.00000000 NULL
P        0.67600264      -0.82366269       8.19929946       0.00000000 NULL
P        1.58528215      -1.38135255       5.79278745       0.00000000 NULL
P        5.03177819       0.32083290       7.62966135       0.00000000 NULL
P        8.47827422       1.06051964       5.23708855       0.00000000 NULL
P        3.94338429       4.47271741       7.74246306       0.00000000 NULL
P        7.38988032       9.85535544       1.58505024       0.00000000 NULL
P        0.49688826       1.83156051       0.00225537       0.00000000 NULL
P        2.61757235       0.19036715       4.82558989       0.00000000 NULL
P        6.06406839      -1.30264460       6.75211094       0.00000000 NULL
P        9.51056442       1.11227744       7.08183651       0.00000000 NULL
P        2.98185634       6.77431108       1.98189719       0.00000000 NULL
P        6.42835237       3.71576222       2.47209459       0.00000000 NULL
P        9.87484840       5.66956005       4.87577690       0.00000000 NULL
P        8.14199927       3.97470575       4.44324592       0.00000000 NULL
P        1.24900720       7.24715542       3.66594956       0.00000000 NULL
P        4.69550323       4.93777219       1.22057319       0.00000000 NULL
48
Lattice="10.638280933350156 0.0 0.0 0.0 11.188487097394304 -4.230533587040832e-17 0.0 -5.594243548697151 9.689514056257888" Properties=species:S:1:pos:R:3:initial_magmoms:R:1:castep_labels:S:1 n_minim_iter=3 pbc="T T T"
P        6.65207782      -0.77054758       9.03601225       0.00000000 NULL
P       10.19817147       2.61644639       5.83882170       0.00000000 NULL
P        3.10598418      -1.84589883       4.50419416       0.00000000 NULL
P        8.97505605       4.13479054       2.23673063       0.00000000 NULL
P        1.88286876       5.46391382       4.99031509       0.00000000 NULL
P        5.42896241       7.18402627       2.46246833       0.00000000 NULL
P        3.29975817       4.12744302       6.11799006       0.00000000 NULL
P        6.84585181       8.82885685       3.05604852       0.00000000 NULL
P       10.39194545       3.82643077       0.51547548       0.00000000 NULL
P        1.49633577       2.11426022       5.20883753       0.00000000 NULL
P        5.04242941      -2.14038804       5.25409222       0.00000000 NULL
P        8.58852306       0.02612781       8.91609836       0.00000000 NULL
P        5.23181767      -1.08328683       2.71129908       0.00000000 NULL
P        8.77791132      -2.70454626       9.27201843       0.00000000 NULL
P        1.68572403       3.78783308       7.39571061       0.00000000 NULL
P        0.78771267       4.23008771       2.29220890       0.00000000 NULL
P        4.33380632       5.46431083       4.88004619       0.00000000 NULL
P        7.87989996       7.08833210       2.51725897       0.00000000 NULL
P        0.37003007       0.57384027       3.59936516       0.00000000 NULL
P        3.91612372      -2.76402202       7.39287122       0.00000000 NULL
P        7.46221736       2.19018174       8.38679173       0.00000000 NULL
P        7.85342416       5.43735798       7.11347987       0.00000000 NULL
P        0.76123687       9.03601884       1.42388398       0.00000000 NULL
P        4.30733051       2.30935383       1.15215020       0.00000000 NULL
P       10.10353900      -0.86170089       6.76675177       0.00000000 NULL
P        3.01135171       0.69678582       7.05239303       0.00000000 NULL
P        6.55744536       0.16491506       5.55988331       0.00000000 NULL
P        9.55006602      -0.33239144       0.78693858       0.00000000 NULL
P        2.45787873      -4.74653904       9.58390419       0.00000000 NULL
P        6.00397238       5.07893046       9.00818534       0.00000000 NULL
P        4.24420735       2.20752618       6.17162734       0.00000000 NULL
P        7.79030100      -1.35322058       4.69192664       0.00000000 NULL
P        0.69811371      -0.85430560       8.51547414       0.00000000 NULL
P        1.63057679      -1.43568986       6.01732920       0.00000000 NULL
P        5.17667043       0.33476133       7.92419334       0.00000000 NULL
P        8.72276408       1.10092852       5.43750557       0.00000000 NULL
P        4.05713605       4.64570019       8.04315038       0.00000000 NULL
P        7.60322970      10.23696601       1.64464448       0.00000000 NULL
P        0.51104241       1.90006444       0.00171919       0.00000000 NULL
P        2.69294962       0.19856942       5.00971906       0.00000000 NULL
P        6.23904326      -1.35498430       7.01268836       0.00000000 NULL
P        9.78513691       1.15641486       7.35662069       0.00000000 NULL
P        3.06771786       7.03576100       2.05826940       0.00000000 NULL
P        6.61381151       3.85887663       2.56723159       0.00000000 NULL
P       10.15990515       5.88809300       5.06401306       0.00000000 NULL
P        8.37767222       4.12852341       4.61494593       0.00000000 NULL
P        1.28548493       7.52664225       3.80663494       0.00000000 NULL
P        4.83157857       5.12756498       1.26793319       0.00000000 NULL
48
Lattice="10.565054539943374 0.0 0.0 0.0 11.29694895674901 -9.017922818240473e-17 0.0 -5.648474478374503 9.783444781800755" Properties=species:S:1:pos:R:3:initial_magmoms:R:1:castep_labels:S:1 n_minim_iter=4 pbc="T T T"
P        6.60572006      -0.77890463       9.12563207       0.00000000 NULL
P       10.12740491       2.64400703       5.89517994       0.00000000 NULL
P        3.08403522      -1.86510241       4.54607755       0.00000000 NULL
P        8.91293278       4.17472941       2.25995961       0.00000000 NULL
P        1.86956308       5.51829220       5.03804325       0.00000000 NULL
P        5.39124793       7.25240182       2.48544192       0.00000000 NULL
P        3.27737306       4.16703893       6.17682691       0.00000000 NULL
P        6.79905791       8.91424402       3.08626975       0.00000000 NULL
P       10.32074276       3.86414047       0.52034812       0.00000000 NULL
P        1.48562527       2.13452274       5.25789116       0.00000000 NULL
P        5.00731012      -2.16226854       5.30594828       0.00000000 NULL
P        8.52899496       0.02774579       9.00305013       0.00000000 NULL
P        5.19470028      -1.09303904       2.73710483       0.00000000 NULL
P        8.71638512      -2.73155264       9.36149194       0.00000000 NULL
P        1.67301543       3.82459168       7.46829279       0.00000000 NULL
P        0.78221305       4.27110905       2.31568738       0.00000000 NULL
P        4.30389789       5.51836404       4.92671215       0.00000000 NULL
P        7.82558274       7.15595033       2.54104525       0.00000000 NULL
P        0.36817231       0.58032957       3.63525160       0.00000000 NULL
P        3.88985715      -2.79041903       7.46323882       0.00000000 NULL
P        7.41154200       2.21008945       8.46839914       0.00000000 NULL
P        7.79844549       5.48960863       7.18307006       0.00000000 NULL
P        0.75507579       9.12439131       1.43776922       0.00000000 NULL
P        4.27676064       2.33142349       1.16260550       0.00000000 NULL
P       10.03354956      -0.87116044       6.83165915       0.00000000 NULL
P        2.99017987       0.70349611       7.12206228       0.00000000 NULL
P        6.51186472       0.16766432       5.61316813       0.00000000 NULL
P        9.48561874      -0.33671874       0.79486902       0.00000000 NULL
P        2.44224905      -4.79173835       9.67761725       0.00000000 NULL
P        5.96393389       5.12845708       9.09440329       0.00000000 NULL
P        4.21673612       2.22838535       6.23081519       0.00000000 NULL
P        7.73842096      -1.36662291       4.73819886       0.00000000 NULL
P        0.69505127      -0.86176245       8.59787551       0.00000000 NULL
P        1.61933366      -1.45011624       6.07638869       0.00000000 NULL
P        5.14101850       0.33889060       8.00108793       0.00000000 NULL
P        8.66270335       1.11122563       5.48941294       0.00000000 NULL
P        4.02891870       4.69120495       8.12271495       0.00000000 NULL
P        7.55060355      10.33734949       1.65938464       0.00000000 NULL
P        0.50723386       1.91686898       0.00134519       0.00000000 NULL
P        2.67391299       0.20080582       5.05743024       0.00000000 NULL
P        6.19559783      -1.36901433       7.08082672       0.00000000 NULL
P        9.71728268       1.16820850       7.42863261       0.00000000 NULL
P        3.04653458       7.10416121       2.07855308       0.00000000 NULL
P        6.56821943       3.89647363       2.59178415       0.00000000 NULL
P       10.08990428       5.94478858       5.11310755       0.00000000 NULL
P        8.32070887       4.16930652       4.65973944       0.00000000 NULL
P        1.27733918       7.59927394       3.84284969       0.00000000 NULL
P        4.79902402       5.17684296       1.28085565       0.00000000 NULL
48
Lattice="10.401056823770883 0.0 0.0 0.0 11.407394991522818 3.379218953616784e-16 0.0 -5.703697495761407 9.87909385366213" Properties=species:S:1:pos:R:3:initial_magmoms:R:1:castep_labels:S:1 n_minim_iter=5 pbc="T T T"
P        6.50199775      -0.78816791       9.21803811       0.00000000 NULL
P        9.96901669       2.67344163       5.95264823       0.00000000 NULL
P        3.03497881      -1.88527373       4.58750137       0.00000000 NULL
P        8.77415317       4.21536383       2.28479659       0.00000000 NULL
P        1.84011528       5.57470746       5.08608339       0.00000000 NULL
P        5.30713422       7.32102118       2.50821387       0.00000000 NULL
P        3.22717885       4.20707448       6.23652675       0.00000000 NULL
P        6.69419779       9.00115084       3.11739710       0.00000000 NULL
P       10.16121673       3.90286715       0.52517001       0.00000000 NULL
P        1.46213638       2.15483992       5.30668533       0.00000000 NULL
P        4.92915532      -2.18539316       5.35960507       0.00000000 NULL
P        8.39617426       0.03055322       9.09189731       0.00000000 NULL
P        5.11234500      -1.10238621       2.76296585       0.00000000 NULL
P        8.57936394      -2.75970578       9.45230539       0.00000000 NULL
P        1.64532606       3.86209198       7.54291647       0.00000000 NULL
P        0.76983379       4.31284713       2.34029758       0.00000000 NULL
P        4.23685273       5.57403109       4.97390988       0.00000000 NULL
P        7.70387167       7.22421426       2.56488639       0.00000000 NULL
P        0.36363984       0.58760132       3.67260670       0.00000000 NULL
P        3.83065878      -2.81692746       7.53391283       0.00000000 NULL
P        7.29767772       2.22932613       8.55166818       0.00000000 NULL
P        7.67584591       5.54248263       7.25445905       0.00000000 NULL
P        0.74180803       9.21500200       1.45193357       0.00000000 NULL
P        4.20882697       2.35360785       1.17270123       0.00000000 NULL
P        9.87711370      -0.88119955       6.89748268       0.00000000 NULL
P        2.94307582       0.71029750       7.19349370       0.00000000 NULL
P        6.41009476       0.17090204       5.66721132       0.00000000 NULL
P        9.34051869      -0.34197721       0.80313692       0.00000000 NULL
P        2.40648080      -4.83717192       9.77368634       0.00000000 NULL
P        5.87349974       5.17914912       9.18136444       0.00000000 NULL
P        4.15389093       2.24930945       6.29070587       0.00000000 NULL
P        7.62090987      -1.38044113       4.78578179       0.00000000 NULL
P        0.68687199      -0.86886832       8.68170004       0.00000000 NULL
P        1.59428644      -1.46497123       6.13703345       0.00000000 NULL
P        5.06130539       0.34361499       8.07927943       0.00000000 NULL
P        8.52832433       1.12135623       5.54187483       0.00000000 NULL
P        3.96571455       4.73780932       8.20451424       0.00000000 NULL
P        7.43273349      10.44011059       1.67377350       0.00000000 NULL
P        0.49869561       1.93317257       0.00080611       0.00000000 NULL
P        2.63152646       0.20308042       5.10576291       0.00000000 NULL
P        6.09854540      -1.38351733       7.15033959       0.00000000 NULL
P        9.56556434       1.18043690       7.50208520       0.00000000 NULL
P        2.99907886       7.17388979       2.09949962       0.00000000 NULL
P        6.46609781       3.93497260       2.61657323       0.00000000 NULL
P        9.93311675       6.00223008       5.16302099       0.00000000 NULL
P        8.19278866       4.21140878       4.70522797       0.00000000 NULL
P        1.25875078       7.67284005       3.87929288       0.00000000 NULL
P        4.72576972       5.22684364       1.29457301       0.00000000 NULL
48
Lattice="9.944639762288087 0.0 0.0 0.0 11.678714293341907 1.6772918159783063e-16 0.0 -5.8393571466709515 10.114063261574518" Properties=species:S:1:pos:R:3:initial_magmoms:R:1:castep_labels:S:1 n_minim_iter=6 pbc="T T T"
P        6.21142901      -0.81383171       9.44794997       0.00000000 NULL
P        9.52630893       2.74972339       6.09488721       0.00000000 NULL
P        2.89654909      -1.93589169       4.68528934       0.00000000 NULL
P        8.38829957       4.31537953       2.34917882       0.00000000 NULL
P        1.75853972       5.71611592       5.20224555       0.00000000 NULL
P        5.07341965       7.48657599       2.56263889       0.00000000 NULL
P        3.08851960       4.30471461       6.38251841       0.00000000 NULL
P        6.40339952       9.21442292       3.19481185       0.00000000 NULL
P        9.71827944       3.99893390       0.53673300       0.00000000 NULL
P        1.39824479       2.20350827       5.42258278       0.00000000 NULL
P        4.71312471      -2.24501685       5.49447773       0.00000000 NULL
P        8.02800463       0.04150857       9.31106602       0.00000000 NULL
P        4.88226306      -1.12298447       2.82478616       0.00000000 NULL
P        8.19714298      -2.83152834       9.67420326       0.00000000 NULL
P        1.56738313       3.95451280       7.72913710       0.00000000 NULL
P        0.73533419       4.41545598       2.40251624       0.00000000 NULL
P        4.05021412       5.71226925       5.08890809       0.00000000 NULL
P        7.36509404       7.39034620       2.62263893       0.00000000 NULL
P        0.35156505       0.60714953       3.76687560       0.00000000 NULL
P        3.66644497      -2.88072195       7.70481854       0.00000000 NULL
P        6.98132490       2.27357241       8.75643238       0.00000000 NULL
P        7.33410775       5.67158777       7.43152924       0.00000000 NULL
P        0.70434791       9.43945637       1.48655955       0.00000000 NULL
P        4.01922783       2.40702729       1.19597447       0.00000000 NULL
P        9.44137594      -0.90649626       7.05858587       0.00000000 NULL
P        2.81161609       0.72680566       7.36981911       0.00000000 NULL
P        6.12649601       0.17969059       5.79972154       0.00000000 NULL
P        8.93807972      -0.35722441       0.82374571       0.00000000 NULL
P        2.30831988      -4.94736023      10.01155582       0.00000000 NULL
P        5.62319980       5.30458463       9.39282499       0.00000000 NULL
P        3.97944292       2.30005559       6.43666004       0.00000000 NULL
P        7.29432284      -1.41507383       4.90382667       0.00000000 NULL
P        0.66456299      -0.88498177       8.88763981       0.00000000 NULL
P        1.52490157      -1.50174804       6.28769992       0.00000000 NULL
P        4.83978149       0.35682473       8.27076526       0.00000000 NULL
P        8.15466141       1.14492330       5.66966135       0.00000000 NULL
P        3.78856880       4.85282089       8.40679120       0.00000000 NULL
P        7.10344872      10.69344144       1.70800148       0.00000000 NULL
P        0.47368888       1.97180910      -0.00072942       0.00000000 NULL
P        2.51299560       0.20832088       5.22414823       0.00000000 NULL
P        5.82787552      -1.41927251       7.32157797       0.00000000 NULL
P        9.14275544       1.21095162       7.68240032       0.00000000 NULL
P        2.86627202       7.34550194       2.15166043       0.00000000 NULL
P        6.18115195       4.02999876       2.67684176       0.00000000 NULL
P        9.49603187       6.14257072       5.28556107       0.00000000 NULL
P        7.83745858       4.31636861       4.81639807       0.00000000 NULL
P        1.20769874       7.85229592       3.96777936       0.00000000 NULL
P        4.52257866       5.34940691       1.32988583       0.00000000 NULL
48
Lattice="9.965944779282312 0.0 0.0 0.0 11.78633895670237 2.6188502427091186e-15 0.0 -5.893169478351185 10.207268954118424" Properties=species:S:1:pos:R:3:initial_magmoms:R:1:castep_labels:S:1 n_minim_iter=7 pbc="T T T"
P        6.21696982      -0.83010288       9.54364141       0.00000000 NULL
P        9.53895142       2.78691786       6.15433843       0.00000000 NULL
P        2.89498823      -1.95681499       4.71655807       0.00000000 NULL
P        8.40676646       4.35592577       2.37980127       0.00000000 NULL
P        1.76280327       5.77617494       5.24502594       0.00000000 NULL
P        5.08478486       7.54740771       2.58244174       0.00000000 NULL
P        3.09900432       4.34267026       6.43915812       0.00000000 NULL
P        6.42098591       9.29830886       3.22682712       0.00000000 NULL
P        9.74296751       4.03852931       0.54128371       0.00000000 NULL
P        1.40555845       2.22005886       5.46072585       0.00000000 NULL
P        4.72754004      -2.27407161       5.55427865       0.00000000 NULL
P        8.04952163       0.05401273       9.39953340       0.00000000 NULL
P        4.88757038      -1.12635448       2.84573694       0.00000000 NULL
P        8.20955197      -2.86551176       9.75985208       0.00000000 NULL
P        1.56558879       3.99186623       7.80894889       0.00000000 NULL
P        0.73728416       4.45607537       2.42959458       0.00000000 NULL
P        4.05926575       5.76922242       5.13339719       0.00000000 NULL
P        7.38124735       7.45421064       2.64427718       0.00000000 NULL
P        0.35558495       0.61743751       3.80870754       0.00000000 NULL
P        3.67756654      -2.90345076       7.76819861       0.00000000 NULL
P        6.99954813       2.28601323       8.83763176       0.00000000 NULL
P        7.34574451       5.72163567       7.50535375       0.00000000 NULL
P        0.70178132       9.53217865       1.49951023       0.00000000 NULL
P        4.02376292       2.42569411       1.20240497       0.00000000 NULL
P        9.45900324      -0.91699943       7.12211491       0.00000000 NULL
P        2.81504006       0.73326267       7.44035629       0.00000000 NULL
P        6.13702165       0.18373674       5.85206670       0.00000000 NULL
P        8.96479226      -0.36681940       0.83181035       0.00000000 NULL
P        2.32082907      -4.98939089      10.10903869       0.00000000 NULL
P        5.64281066       5.35621028       9.47368887       0.00000000 NULL
P        3.99310013       2.31952436       6.49248249       0.00000000 NULL
P        7.31508172      -1.43027690       4.95226068       0.00000000 NULL
P        0.67111853      -0.88924748       8.96979474       0.00000000 NULL
P        1.52980287      -1.51660654       6.35013010       0.00000000 NULL
P        4.85178446       0.36450777       8.34562369       0.00000000 NULL
P        8.17376605       1.15209875       5.71878411       0.00000000 NULL
P        3.79194277       4.89880183       8.48748148       0.00000000 NULL
P        7.11392436      10.79414314       1.72104138       0.00000000 NULL
P        0.46996118       1.98656346      -0.00125391       0.00000000 NULL
P        2.51538819       0.20952263       5.27090040       0.00000000 NULL
P        5.83736978      -1.43319715       7.39036684       0.00000000 NULL
P        9.15935138       1.22367452       7.75327067       0.00000000 NULL
P        2.86936929       7.41405046       2.17320584       0.00000000 NULL
P        6.19135088       4.06819571       2.69990998       0.00000000 NULL
P        9.51333248       6.19726225       5.33415313       0.00000000 NULL
P        7.85796621       4.36027577       4.85929274       0.00000000 NULL
P        1.21400302       7.92130254       4.00151300       0.00000000 NULL
P        4.53598462       5.39793011       1.34646322       0.00000000 NULL
48
Lattice="9.871657368323289 0.0 0.0 0.0 11.725127668531634 1.845126182516296e-15 0.0 -5.862563834265816 10.154258423564197" Properties=species:S:1:pos:R:3:initial_magmoms:R:1:castep_labels:S:1 n_minim_iter=8 pbc="T T T"
P        6.15663364      -0.82755282       9.49584428       0.00000000 NULL
P        9.44718609       2.77485495       6.12301804       0.00000000 NULL
P        2.86608118      -1.94730214       4.68965452       0.00000000 NULL
P        8.32739209       4.33345561       2.36948489       0.00000000 NULL
P        1.74628718       5.74787013       5.21663334       0.00000000 NULL
P        5.03683963       7.50636576       2.56814020       0.00000000 NULL
P        3.07040614       4.31971151       6.40546386       0.00000000 NULL
P        6.36095859       9.25000250       3.21054659       0.00000000 NULL
P        9.65151105       4.01797748       0.53824798       0.00000000 NULL
P        1.39296337       2.20768805       5.42978351       0.00000000 NULL
P        4.68351582      -2.26407741       5.52745273       0.00000000 NULL
P        7.97406828       0.05638935       9.35128060       0.00000000 NULL
P        4.84044684      -1.11914785       2.82984448       0.00000000 NULL
P        8.13099929      -2.85227271       9.70854665       0.00000000 NULL
P        1.54989438       3.97142055       7.77012572       0.00000000 NULL
P        0.73028824       4.43287395       2.41792016       0.00000000 NULL
P        4.02084070       5.74010714       5.10631689       0.00000000 NULL
P        7.31139315       7.41471040       2.63002137       0.00000000 NULL
P        0.35298827       0.61532743       3.79068175       0.00000000 NULL
P        3.64354073      -2.88740086       7.72602836       0.00000000 NULL
P        6.93409318       2.27207343       8.79180674       0.00000000 NULL
P        7.27525449       5.69138700       7.46773916       0.00000000 NULL
P        0.69414958       9.48412215       1.49150311       0.00000000 NULL
P        3.98470204       2.41218234       1.19501615       0.00000000 NULL
P        9.36903115      -0.91256463       7.08499099       0.00000000 NULL
P        2.78792623       0.72950066       7.40206708       0.00000000 NULL
P        6.07847869       0.18306396       5.82145877       0.00000000 NULL
P        8.88162106      -0.36641957       0.82766512       0.00000000 NULL
P        2.30051615      -4.96257504      10.05775451       0.00000000 NULL
P        5.59106860       5.32899459       9.42309721       0.00000000 NULL
P        3.95626844       2.30703674       6.45805087       0.00000000 NULL
P        7.24682089      -1.42324610       4.92728056       0.00000000 NULL
P        0.66571598      -0.88379066       8.92318542       0.00000000 NULL
P        1.51578876      -1.50883932       6.31803871       0.00000000 NULL
P        4.80634122       0.36343784       8.30193225       0.00000000 NULL