8
Lattice="3.3575164790699024 -0.3177126869168466 0.5034701378750597 -1.6271087359074616 5.1873739137019825 0.8039934842467874 0.4292294007141613 -1.2846101208547716 8.871014608564693" Properties=species:S:1:pos:R:3:initial_magmoms:R:1:castep_labels:S:1:forces:R:3 n_minim_iter=1 energy=-42.303120195407 stress="0.0004457361570150834 0.00023119014030567074 5.4370803747776325e-05 0.00023119014030567074 0.000463620430996945 1.2662588147741425e-05 5.4370803747776325e-05 1.2662588147741425e-05 0.0003170216012040211" free_energy=-42.303120195407 pbc="T T T"
P        1.95410232       2.37794265       6.78911429       0.00000000 NULL      -0.01351700      -0.01723600       0.00734100
P        0.20553482       1.20710845       3.38936394       0.00000000 NULL       0.01351700       0.01723600      -0.00734100
P        2.18376614       2.14925534       2.49057032       0.00000000 NULL       0.00469700      -0.00606300       0.00557200
P       -0.02412900       1.43579577       7.68790791       0.00000000 NULL      -0.00469700       0.00606300      -0.00557200
P        1.18507730       0.33680099       6.17880493       0.00000000 NULL       0.01122300       0.00412000       0.00776200
P        0.97455985       3.24825012       3.99967330       0.00000000 NULL      -0.01122300      -0.00412000      -0.00776200
P        0.67453098       3.88917194       1.85306661       0.00000000 NULL      -0.00826500      -0.00633400       0.00718000
P        1.48510616      -0.30412083       8.32541162       0.00000000 NULL       0.00826500       0.00633400      -0.00718000
8
Lattice="3.356619746383493 -0.31810539508661473 0.5032610919684579 -1.6274287251037094 5.186113344056999 0.8038499920343964 0.42899654426462697 -1.284372685893106 8.869271464526413" Properties=species:S:1:pos:R:3:initial_magmoms:R:1:castep_labels:S:1:forces:R:3 n_minim_iter=2 energy=-42.303155255859 stress="1.3717321702634996e-06 5.748210999199427e-05 5.101537261789491e-05 5.748210999199427e-05 -9.027304091924554e-05 4.807594653875884e-05 5.101537261789491e-05 4.807594653875884e-05 -2.828381093924263e-05" free_energy=-42.303155255859 pbc="T T T"
P        1.95294128       2.37685915       6.78772892       0.00000000 NULL      -0.00910300      -0.00734100       0.00555200
P        0.20524628       1.20677611       3.38865363       0.00000000 NULL       0.00910300       0.00734100      -0.00555200
P        2.18279246       2.14828327       2.49001442       0.00000000 NULL       0.00348500      -0.00841100       0.00148400
P       -0.02460490       1.43535199       7.68636813       0.00000000 NULL      -0.00348500       0.00841100      -0.00148400
P        1.18454020       0.33650336       6.17758270       0.00000000 NULL       0.01005700      -0.00146100       0.00060000
P        0.97364737       3.24713191       3.99879985       0.00000000 NULL      -0.01005700       0.00146100      -0.00060000
P        0.67369367       3.88792077       1.85267926       0.00000000 NULL      -0.00588000       0.00012300       0.00098800
P        1.48449390      -0.30428551       8.32370329       0.00000000 NULL       0.00588000      -0.00012300      -0.00098800
8
Lattice="3.356345618868072 -0.319088770244483 0.5026987527678932 -1.6287201826119684 5.187665362373441 0.8032977633657661 0.4275762151813388 -1.2863458118300566 8.869865267346743" Properties=species:S:1:pos:R:3:initial_magmoms:R:1:castep_labels:S:1:forces:R:3 n_minim_iter=3 energy=-42.303172084456 stress="4.3101889667329295e-05 -0.00015581986173673893 2.3575427530160417e-05 -0.00015581986173673893 1.586933210478942e-05 -1.867748552250936e-05 2.3575427530160417e-05 -1.867748552250936e-05 0.00010860370078298274" free_energy=-42.303172084456 pbc="T T T"
P        1.95068670       2.37560432       6.78742330       0.00000000 NULL      -0.00460700      -0.00653600       0.00706800
P        0.20451495       1.20662646       3.38843848       0.00000000 NULL       0.00460700       0.00653600      -0.00706800
P        2.18171360       2.14765180       2.48938845       0.00000000 NULL       0.00054500      -0.00457900       0.00359100
P       -0.02651195       1.43457898       7.68647334       0.00000000 NULL      -0.00054500       0.00457900      -0.00359100
P        1.18343154       0.33519144       6.17763369       0.00000000 NULL       0.00541400      -0.00165800       0.00253900
P        0.97177011       3.24703934       3.99822809       0.00000000 NULL      -0.00541400       0.00165800      -0.00253900
P        0.67219568       3.88840212       1.85199657       0.00000000 NULL      -0.00316300      -0.00319800       0.00389400
P        1.48300598      -0.30617134       8.32386522       0.00000000 NULL       0.00316300       0.00319800      -0.00389400
8
Lattice="3.355684409640414 -0.3186380030232455 0.5018018088363819 -1.6277651627072927 5.18862497922369 0.8028834542624657 0.4250689726519628 -1.2877394595296188 8.868188217057329" Properties=species:S:1:pos:R:3:initial_magmoms:R:1:castep_labels:S:1:forces:R:3 n_minim_iter=4 energy=-42.303189223025 stress="6.269853776886411e-06 -1.2539707553772821e-05 -0.00010606502639232845 -1.2539707553772821e-05 9.568058107436032e-05 3.193706767601515e-05 -0.00010606502639232845 3.193706767601515e-05 -8.784326385325231e-05" free_energy=-42.303189223025 pbc="T T T"
P        1.94883519       2.37541175       6.78555773       0.00000000 NULL      -0.00621000      -0.00356700       0.00555900
P        0.20415303       1.20683577       3.38731575       0.00000000 NULL       0.00621000       0.00356700      -0.00555900
P        2.18125646       2.14800239       2.48817869       0.00000000 NULL      -0.00075400      -0.00036400       0.00087600
P       -0.02826824       1.43424513       7.68469479       0.00000000 NULL       0.00075400       0.00036400      -0.00087600
P        1.18211297       0.33463839       6.17614630       0.00000000 NULL       0.00305900      -0.00224900      -0.00138000
P        0.97087525       3.24760912       3.99672718       0.00000000 NULL      -0.00305900       0.00224900       0.00138000
P        0.67213263       3.88924563       1.85106004       0.00000000 NULL      -0.00552900      -0.00409000       0.00027600
P        1.48085559      -0.30699812       8.32181344       0.00000000 NULL       0.00552900       0.00409000      -0.00027600
