64
Lattice="6.430377791843434 1.307804984781078 0.0 1.0840144867258135 11.979203054875633 0.0 0.0 0.0 16.464896654456066" Properties=species:S:1:pos:R:3:initial_magmoms:R:1:castep_labels:S:1:forces:R:3 n_minim_iter=6 energy=-341.292915471389 stress="9.218752999942827e-05 1.4675143095665721e-05 0.0 1.4675143095665721e-05 -6.596986877104682e-05 -0.0 0.0 -0.0 -2.7494808328661057e-05" free_energy=-341.292915471389 pbc="T T T"
P        4.49196871       5.44337903       6.15695320       0.00000000 NULL      -0.00252900       0.00247400       0.00245100
P        5.69560522       2.50792998       6.15695320       0.00000000 NULL       0.00253200      -0.00247400       0.00245200
P        3.02242357       7.84362901      10.30794346       0.00000000 NULL       0.00252900      -0.00247400      -0.00245100
P        1.81878706      10.77907806      10.30794346       0.00000000 NULL      -0.00253200       0.00247400      -0.00245200
P        5.98821940      12.53054644      12.67806463       0.00000000 NULL      -0.00016600       0.00520700       0.00129300
P        5.28336902       7.39996562      12.67806463       0.00000000 NULL       0.00016500      -0.00520600       0.00129400
P        1.52617288       0.75646160       3.78683202       0.00000000 NULL       0.00016500      -0.00520700      -0.00129300
P        2.23102326       5.88704242       3.78683202       0.00000000 NULL      -0.00016500       0.00520600      -0.00129300
P        6.72824867       9.73140695       3.75803250       0.00000000 NULL      -0.00225600       0.00235100      -0.00196000
P        4.54333975      10.19910511       3.75803250       0.00000000 NULL       0.00225600      -0.00235100      -0.00196100
P        0.78614361       3.55560109      12.70686416       0.00000000 NULL       0.00225600      -0.00235100       0.00196000
P        2.97105253       3.08790293      12.70686416       0.00000000 NULL      -0.00225600       0.00235100       0.00196000
P        4.04737288       3.09729046       3.35278125       0.00000000 NULL      -0.00589000      -0.00255000      -0.00372100
P        6.14020105       4.85401855       3.35278125       0.00000000 NULL       0.00589200       0.00255000      -0.00372200
P        3.46701940      10.18971758      13.11211540       0.00000000 NULL       0.00589000       0.00255000       0.00372200
P        1.37419122       8.43298949      13.11211540       0.00000000 NULL      -0.00589100      -0.00255000       0.00372200
P        2.54620899       1.87230715       2.18776622       0.00000000 NULL       0.00356900       0.00188500      -0.00193900
P        7.64136494       6.07900185       2.18776622       0.00000000 NULL      -0.00356900      -0.00188600      -0.00193900
P        4.96818329      11.41470089      14.27713044       0.00000000 NULL      -0.00356900      -0.00188500       0.00193900
P       -0.12697266       7.20800619      14.27713044       0.00000000 NULL       0.00356900       0.00188600       0.00193900
P        5.75604212       1.38981753       9.13446381       0.00000000 NULL       0.00492200      -0.00206400       0.00353000
P        4.43153182       6.56149147       9.13446381       0.00000000 NULL      -0.00491700       0.00206400       0.00353000
P        1.75835016      11.89719051       7.33043285       0.00000000 NULL      -0.00492200       0.00206400      -0.00353000
P        3.08286046       6.72551657       7.33043285       0.00000000 NULL       0.00491700      -0.00206400      -0.00353000
P        1.69027162       5.83646647      14.42984704       0.00000000 NULL      -0.00343700      -0.00293800      -0.00036100
P        2.06692453       0.80703755      14.42984704       0.00000000 NULL       0.00343800       0.00294000      -0.00036100
P        5.82412066       7.45054157       2.03504961       0.00000000 NULL       0.00343700       0.00293800       0.00036100
P        5.44746775      12.47997049       2.03504961       0.00000000 NULL      -0.00343800      -0.00294000       0.00036100
P        2.34534006       6.46720265      12.06518994       0.00000000 NULL      -0.00467600       0.00059600      -0.00024300
P        1.41185608       0.17630137      12.06518994       0.00000000 NULL       0.00467300      -0.00059700      -0.00024300
P        5.16905222       6.81980539       4.39970672       0.00000000 NULL       0.00467600      -0.00059600       0.00024300
P        6.10253620      13.11070667       4.39970672       0.00000000 NULL      -0.00467300       0.00059700       0.00024300
P        3.17416800       1.32997573      11.27958355       0.00000000 NULL      -0.00047300      -0.00315200      -0.00001500
P        0.58302814       5.31352829      11.27958355       0.00000000 NULL       0.00047500       0.00315400      -0.00001400
P        4.34022428      11.95703231       5.18531311       0.00000000 NULL       0.00047300       0.00315200       0.00001500
P        6.93136414       7.97347975       5.18531311       0.00000000 NULL      -0.00047500      -0.00315400       0.00001400
P        5.30719288       8.91909346       6.82250864       0.00000000 NULL      -0.00116300       0.00115000       0.00033900
P        5.96439554      11.01141860       6.82250864       0.00000000 NULL       0.00116300      -0.00115000       0.00033800
P        2.20719940       4.36791458       9.64238801       0.00000000 NULL       0.00116300      -0.00115000      -0.00033900
P        1.54999674       2.27558944       9.64238801       0.00000000 NULL      -0.00116300       0.00115000      -0.00033800
P        4.27739184       2.53487172      16.25748358       0.00000000 NULL      -0.00760600       0.00273700      -0.00042800
P        5.91018209       5.41643729      16.25748358       0.00000000 NULL       0.00760600      -0.00273700      -0.00042800
P        3.23700044      10.75213633       0.20741308       0.00000000 NULL       0.00760600      -0.00273700       0.00042800
P        1.60421018       7.87057075       0.20741308       0.00000000 NULL      -0.00760600       0.00273700       0.00042800
P        2.96196492       7.63806287      14.90359670       0.00000000 NULL      -0.00292300       0.00326800       0.00131300
P        1.87924570      10.98464421      14.90359670       0.00000000 NULL       0.00292100      -0.00327000       0.00131300
P        4.55242736       5.64894517       1.56129995       0.00000000 NULL       0.00292300      -0.00326800      -0.00131200
P        5.63514658       2.30236383       1.56129995       0.00000000 NULL      -0.00292100       0.00327000      -0.00131300
P        1.49366489       9.89240482       1.26478596       0.00000000 NULL      -0.00187200       0.00871200      -0.00122400
P        3.34754574       8.73030226       1.26478596       0.00000000 NULL       0.00187200      -0.00871200      -0.00122400
P        6.02072739       3.39460322      15.20011069       0.00000000 NULL       0.00187200      -0.00871200       0.00122400
P        4.16684654       4.55670578      15.20011069       0.00000000 NULL      -0.00187200       0.00871200       0.00122400
P        5.08441584      11.96153581       8.70226249       0.00000000 NULL       0.00019500      -0.00024000      -0.00001700
P        6.18717258       7.96897625       8.70226249       0.00000000 NULL      -0.00019600       0.00023900      -0.00001700
P        2.42997644       1.32547223       7.76263416       0.00000000 NULL      -0.00019500       0.00024000       0.00001700
P        1.32721970       5.31803179       7.76263416       0.00000000 NULL       0.00019600      -0.00023900       0.00001700
P        6.44625477       3.28735173      11.36529087       0.00000000 NULL       0.00008400       0.00003300       0.00027500
P        3.74131916       4.66395728      11.36529087       0.00000000 NULL      -0.00008200      -0.00003400       0.00027400
P        1.06813751       9.99965631       5.09960578       0.00000000 NULL      -0.00008400      -0.00003300      -0.00027500
P        3.77307312       8.62305076       5.09960578       0.00000000 NULL       0.00008200       0.00003400      -0.00027400
P        6.71611778      10.88306587      11.42500518       0.00000000 NULL       0.00397700      -0.00210900      -0.00575700
P        4.55547064       9.04744619      11.42500518       0.00000000 NULL      -0.00397600       0.00210900      -0.00575800
P        0.79827450       2.40394217       5.03989147       0.00000000 NULL      -0.00397700       0.00210900       0.00575700
P        2.95892164       4.23956185       5.03989147       0.00000000 NULL       0.00397600      -0.00210900       0.00575800
