32
Lattice="5.151730295899201 0.0 0.0 0.0 8.456071199358696 0.0 0.0 0.0 13.123541926677326" Properties=species:S:1:pos:R:3:initial_magmoms:R:1:castep_labels:S:1:forces:R:3 n_minim_iter=14 energy=-174.225746187272 stress="-4.722706800308813e-06 -0.0 0.0 -0.0 -6.116779881733303e-05 0.0 0.0 0.0 3.8306399602504815e-05" free_energy=-174.225746187272 pbc="T T T"
P        1.13416635       1.41942957       5.60038555       0.00000000 NULL       0.00499400       0.00646400       0.00052100
P        1.44169880       5.64746517       7.52315638       0.00000000 NULL      -0.00499200       0.00646300      -0.00052100
P        3.71003150       5.64746517       7.52315638       0.00000000 NULL       0.00499200       0.00646300      -0.00052100
P        4.01756395       1.41942957       5.60038555       0.00000000 NULL      -0.00499400       0.00646400       0.00052100
P        1.41647627       5.52411157       2.23104510       0.00000000 NULL       0.00855300      -0.00130100       0.00177000
P        1.15938888       1.29607597      10.89249683       0.00000000 NULL      -0.00855200      -0.00130100      -0.00177000
P        3.99234142       1.29607597      10.89249683       0.00000000 NULL       0.00855200      -0.00130100      -0.00177000
P        3.73525403       5.52411157       2.23104510       0.00000000 NULL      -0.00855300      -0.00130100       0.00177000
P        1.18473655       0.33497307       8.82732700       0.00000000 NULL      -0.00363400       0.00040000       0.00697600
P        1.39112859       4.56300867       4.29621492       0.00000000 NULL       0.00363500       0.00039900      -0.00697700
P        3.76060170       4.56300867       4.29621492       0.00000000 NULL      -0.00363500       0.00039900      -0.00697700
P        3.96699374       0.33497307       8.82732700       0.00000000 NULL       0.00363400       0.00040000       0.00697600
P        1.13258959       3.65153587       0.83251494       0.00000000 NULL       0.00481300       0.00384700       0.00135200
P        1.44327556       7.87957147      12.29102698       0.00000000 NULL      -0.00481100       0.00384600      -0.00135200
P        3.70845474       7.87957147      12.29102698       0.00000000 NULL       0.00481100       0.00384600      -0.00135200
P        4.01914071       3.65153587       0.83251494       0.00000000 NULL      -0.00481300       0.00384700       0.00135200
P        4.01457877      -0.67842088       2.85945280       0.00000000 NULL      -0.00450300      -0.00846300      -0.00032600
P        3.71301667       3.54961472      10.26408913       0.00000000 NULL       0.00450100      -0.00846200       0.00032700
P        1.43871363       3.54961472      10.26408913       0.00000000 NULL      -0.00450100      -0.00846200       0.00032700
P        1.13715152      -0.67842088       2.85945280       0.00000000 NULL       0.00450300      -0.00846300      -0.00032600
P        1.45122895       7.71401243       5.12131929       0.00000000 NULL      -0.00035800       0.00015700       0.00244100
P        1.12463620       3.48597683       8.00222263       0.00000000 NULL       0.00036000       0.00015800      -0.00244100
P        4.02709409       3.48597683       8.00222263       0.00000000 NULL      -0.00036000       0.00015800      -0.00244100
P        3.70050135       7.71401243       5.12131929       0.00000000 NULL       0.00035800       0.00015700       0.00244100
P        1.43030000       2.40121085       3.61356881       0.00000000 NULL       0.00046900      -0.00054100      -0.00722400
P        1.14556514       6.62924645       9.50997312       0.00000000 NULL      -0.00046700      -0.00054300       0.00722400
P        4.00616515       6.62924645       9.50997312       0.00000000 NULL       0.00046700      -0.00054300       0.00722400
P        3.72143029       2.40121085       3.61356881       0.00000000 NULL      -0.00046900      -0.00054100      -0.00722400
P        3.71072254       4.90964958      12.16882984       0.00000000 NULL       0.00249200      -0.00056200       0.00235700
P        4.01687290       0.68161398       0.95471209       0.00000000 NULL      -0.00249300      -0.00056100      -0.00235700
P        1.13485740       0.68161398       0.95471209       0.00000000 NULL       0.00249300      -0.00056100      -0.00235700
P        1.44100775       4.90964958      12.16882984       0.00000000 NULL      -0.00249200      -0.00056200       0.00235700
