11
Lattice="6.003340262231494 -0.33537640096114485 1.2759904871662786 -3.49863504153742 6.428914910502765 -1.570328232497904 0.7740539563713911 -3.0853306548121284 5.817171192018898" Properties=species:S:1:pos:R:3:initial_magmoms:R:1:castep_labels:S:1:forces:R:3 n_minim_iter=14 energy=-59.337497579512 stress="7.79908427628161e-05 5.503139753694791e-05 -2.7897507724558235e-05 5.503139753694791e-05 6.129306441673014e-05 -2.0210420742061347e-05 -2.7897507724558235e-05 -2.0210420742061347e-05 -1.5934160433917386e-05" free_energy=-59.337497579512 pbc="T T T"
P        6.03004413      -1.40949806       6.66033975       0.00000000 NULL      -0.00186800      -0.00574000      -0.00017800
P        3.93273831      -2.06109598       6.37087205       0.00000000 NULL      -0.00001900       0.00079000       0.00067600
P        2.94034258      -0.46524629       3.37734687       0.00000000 NULL      -0.00235700       0.00187000      -0.00306200
P        1.59342581       4.37496802      -0.04181050       0.00000000 NULL      -0.00171000       0.00271800      -0.00070800
P        1.08145885      -2.93940857       6.05585449       0.00000000 NULL       0.00313600      -0.00264300       0.00136000
P        0.74229004      -1.30990737       3.23825370       0.00000000 NULL       0.00217200       0.00073400       0.00090200
P       -1.82256905       3.02076448       2.14779975       0.00000000 NULL      -0.00127500       0.00044600       0.00078700
P        3.09561247      -1.12794503       1.24051999       0.00000000 NULL       0.00039000       0.00299800       0.00244800
P        2.24195777       1.67927053       2.59060242       0.00000000 NULL       0.00213600      -0.00161800      -0.00287500
P        1.31439605       3.80196395       2.12123517       0.00000000 NULL      -0.00097300      -0.00065100       0.00028500
P        0.04228856       0.76564370       2.46609646       0.00000000 NULL       0.00036700       0.00109600       0.00036400
