10
Lattice="5.065636676291028 -0.3976614492592837 -0.6136211346238497 -2.6234901307921072 5.311937673909108 -1.5824179638198872 -2.403076311518514 -3.9690135693791544 9.364513540333292" Properties=species:S:1:pos:R:3:initial_magmoms:R:1:castep_labels:S:1:forces:R:3 n_minim_iter=19 energy=-53.548883396655 stress="-4.443552035497521e-05 -2.8151057982111464e-05 2.4914713725043905e-05 -2.8151057982111464e-05 3.3493594533461083e-05 -3.2414813114438565e-05 2.4914713725043905e-05 -3.2414813114438565e-05 -3.128466115165307e-05" free_energy=-53.548883396655 pbc="T T T"
P       -0.10613302      -0.97020530       3.49051207       0.00000000 NULL       0.00145300       0.00550100      -0.00062100
P        1.22947835      -2.27096578       4.71842465       0.00000000 NULL       0.00433400      -0.00372400       0.00188800
P       -2.80410309       1.72897817       4.29634790       0.00000000 NULL      -0.00082900      -0.00057800       0.00208400
P        0.32720390       1.28686526       1.26523097       0.00000000 NULL      -0.00056000       0.00029900      -0.00285900
P       -0.93845039       2.81582503      -1.93592690       0.00000000 NULL       0.00512900      -0.00729100      -0.00077700
P        3.65796930      -0.09446454      -0.30838163       0.00000000 NULL      -0.00227900       0.00118000       0.00401700
P        1.84016822       2.24462483      -0.02810290       0.00000000 NULL      -0.00318400       0.00452300      -0.00441300
P       -1.13829054      -0.95706672       7.32241264       0.00000000 NULL       0.00127700      -0.00036300       0.00564200
P        1.61899826      -0.25300086       2.21580256       0.00000000 NULL      -0.00181500      -0.00447700       0.00195000
P       -0.81524632       1.47545199       5.35794430       0.00000000 NULL      -0.00352500       0.00493000      -0.00691100
