12
Lattice="5.016553491559249 -0.38891768866229703 -0.722152175527315 -0.1427592348156892 9.257610985631779 2.3490354754152167 -2.263935946040111 0.860534680945117 5.831577514798539" Properties=species:S:1:pos:R:3:initial_magmoms:R:1:castep_labels:S:1:forces:R:3 n_minim_iter=1 energy=-64.910532873462 stress="-4.2201708007033485e-05 8.24631075999505e-05 -1.1318465749012813e-05 8.24631075999505e-05 9.996630641895958e-05 2.1141277095477504e-05 -1.1318465749012813e-05 2.1141277095477504e-05 -2.7689817993120632e-05" free_energy=-64.910532873462 pbc="T T T"
P       -1.33982064       1.38708407       3.42275528       0.00000000 NULL       0.00067300      -0.00000600      -0.00356800
P        3.94967895       8.34214391       4.03570553       0.00000000 NULL      -0.00067300       0.00000600       0.00356800
P        0.68359605       3.45326127       1.98704045       0.00000000 NULL       0.00381700      -0.00058700       0.00084400
P        1.92626226       6.27596671       5.47142037       0.00000000 NULL      -0.00381700       0.00058700      -0.00084400
P        2.08062686       9.39520013       6.52396857       0.00000000 NULL       0.00001300      -0.00100200       0.00087700
P        0.52923145       0.33402785       0.93449224       0.00000000 NULL      -0.00001300       0.00100200      -0.00087700
P       -0.58558053       5.26484124       2.58130466       0.00000000 NULL      -0.00118300       0.00291700       0.00721200
P        3.19543884       4.46438674       4.87715616       0.00000000 NULL       0.00118300      -0.00291700      -0.00721100
P        0.52577536       1.46564647       4.72944463       0.00000000 NULL      -0.00514200       0.00307500      -0.00323500
P        2.08408295       8.26358151       2.72901618       0.00000000 NULL       0.00514200      -0.00307500       0.00323500
P       -1.00495441       6.40511233       7.08541304       0.00000000 NULL       0.00353100      -0.00348700       0.00322900
P        3.61481272       3.32411565       0.37304778       0.00000000 NULL      -0.00353100       0.00348700      -0.00322900
