24
Lattice="5.375560160336177 -3.0945259941897607e-07 -2.4174923478698353e-07 2.6877806058023053 10.175101517475996 -1.3366467867286191 2.687780605802304 1.1655224322555673 10.19612048689713" Properties=species:S:1:pos:R:3:initial_magmoms:R:1:castep_labels:S:1:forces:R:3 n_minim_iter=1 energy=-129.191196999528 stress="0.00012913588073401057 1.7665647159235376e-08 1.7665647159235376e-08 1.7665647159235376e-08 9.458187489054618e-05 -2.1887736830292628e-05 1.7665647159235376e-08 -2.1887736830292628e-05 0.00010539325095199823" free_energy=-129.191196999528 pbc="T T T"
P        7.93390821      10.35817691       0.23500073       0.00000000 NULL       0.00085300      -0.00746700       0.00315400
P        2.55834789       0.98244675       8.62447274       0.00000000 NULL       0.00085500       0.00746800      -0.00315400
P        7.93390821       2.73475766       9.99340556       0.00000000 NULL       0.00085300       0.00125000      -0.00800800
P        2.55834789       8.60586600      -1.13393209       0.00000000 NULL       0.00085400      -0.00125100       0.00801000
P        6.49148540       4.15860250       1.25643562       0.00000000 NULL      -0.00254000       0.00548100       0.00077800
P        6.49148586       7.18202101       7.60303774       0.00000000 NULL      -0.00253900      -0.00548000      -0.00077600
P        6.49148540       2.22549505       3.73092174       0.00000000 NULL      -0.00254000       0.00208000       0.00513100
P        6.49148586       9.11512846       5.12855162       0.00000000 NULL      -0.00253900      -0.00207700      -0.00513000
P        4.99562540       4.58484301       8.27141626       0.00000000 NULL       0.00076200      -0.00262100      -0.00382100
P        4.99562518       6.75578068       0.58805723       0.00000000 NULL       0.00076100       0.00262100       0.00382000
P        4.99562540       9.13510623       2.44682376       0.00000000 NULL       0.00076200      -0.00433500      -0.00162000
P        4.99562518       2.20551745       6.41264973       0.00000000 NULL       0.00076000       0.00433400       0.00162000
P        4.37609957       4.59051478       0.53980602       0.00000000 NULL      -0.00172400       0.00007300      -0.00332900
P        4.37610005       6.75010898       8.31966753       0.00000000 NULL      -0.00172200      -0.00007300       0.00332800
P        4.37609957       1.63469288       4.32342406       0.00000000 NULL      -0.00172300      -0.00322000       0.00087700
P        4.37610005       9.70593088       4.53604949       0.00000000 NULL      -0.00172200       0.00321800      -0.00087700
P        4.57966854       7.68994724      -1.35901344       0.00000000 NULL      -0.00186400       0.00375600      -0.00116500
P        4.57966883       3.65067649      10.21848697       0.00000000 NULL      -0.00186300      -0.00375900       0.00116300
P        4.57966854       0.54239805       7.79025099       0.00000000 NULL      -0.00186300      -0.00021600       0.00392300
P        4.57966883      10.79822569       1.06922254       0.00000000 NULL      -0.00186300       0.00021400      -0.00392500
P        7.15734829       5.25127075       8.55799383       0.00000000 NULL       0.00451100      -0.00059200       0.00682600
P        7.15734796       6.08935269       0.30147947       0.00000000 NULL       0.00451000       0.00059300      -0.00682400
P        7.15734829       9.57444481       3.02408821       0.00000000 NULL       0.00451100       0.00648700      -0.00222600
P        7.15734796       1.76617863       5.83538509       0.00000000 NULL       0.00451000      -0.00648500       0.00222600
