12
Lattice="6.656430179115357 -2.159698567998287e-14 1.756791413592934e-41 -3.3282150895576597 5.764637633631311 -6.739374671061062e-39 -1.6014891903328825e-41 7.117046663990887e-39 6.094627968386555" Properties=species:S:1:pos:R:3:initial_magmoms:R:1:castep_labels:S:1:forces:R:3 n_minim_iter=4 energy=-64.189628116311 stress="7.91063080829081e-06 0.0 0.0 0.0 7.996151141353411e-06 0.0 0.0 0.0 2.386017292446633e-05" free_energy=-64.189628116311 pbc="T T T"
P        3.88247253       1.12277080       2.11211565       0.00000000 NULL      -0.00692800       0.00258900       0.00182800
P        2.35932753       1.84093240       4.14365830       0.00000000 NULL       0.00570600       0.00470400       0.00182800
P        3.74284622       2.80093386       6.17520096       0.00000000 NULL       0.00122200      -0.00729400       0.00182800
P        0.74589062       1.31679704       2.45756757       0.00000000 NULL      -0.00336900       0.00318000      -0.00228700
P       -2.56078004       4.46027889       4.48911023       0.00000000 NULL       0.00444200       0.00132900      -0.00228600
P        1.81489043       5.75219876       0.42602492       0.00000000 NULL      -0.00107100      -0.00450800      -0.00228700
P        0.09257806       1.57106407       0.29011836       0.00000000 NULL      -0.00540200      -0.00046700       0.00020400
P       -2.01392206       4.89893065       2.32166102       0.00000000 NULL       0.00229800       0.00491200       0.00020500
P        1.92134500       5.05927997       4.35320367       0.00000000 NULL       0.00310300      -0.00444200       0.00020400
P        5.48851077       1.37912158       3.57389742       0.00000000 NULL       0.00114000       0.00278700       0.00025600
P        1.77831470       0.32188710       5.60544008       0.00000000 NULL       0.00184400      -0.00238400       0.00025400
P        2.71782081       4.06362839       1.54235477       0.00000000 NULL      -0.00298600      -0.00040600       0.00025400
