8
Lattice="6.323086692508847 0.6730509158395497 -0.2639241842745436 -2.158533054931787 5.1037289474962755 -0.8256691116178229 -0.8332503631688983 -4.090517780982126 5.146407073688794" Properties=species:S:1:pos:R:3:initial_magmoms:R:1:castep_labels:S:1:forces:R:3 n_minim_iter=15 energy=-43.440915066068 stress="-0.0002793997399113358 -8.243264094289832e-06 7.177671418686512e-05 -8.243264094289832e-06 -7.57308002158334e-06 -5.864110636181791e-05 7.177671418686512e-05 -5.864110636181791e-05 -9.7578800986065e-05" free_energy=-43.440915066068 pbc="T T T"
P        0.53761616       0.48836229       4.48662810       0.00000000 NULL      -0.00405000       0.00365700      -0.00281900
P        4.33339190       1.88709900       2.50790922       0.00000000 NULL       0.00307300       0.00318100       0.00290200
P        2.12690400       1.76801047       1.93546157       0.00000000 NULL      -0.00224200      -0.00558100       0.00062800
P       -1.10360666       1.88254718       0.82562083       0.00000000 NULL       0.00042100       0.00174100      -0.00297900
P        4.78244139      -0.32984196       2.02177101       0.00000000 NULL       0.00190800      -0.00213100       0.00197900
P        1.87184653      -0.26489221       2.88040071       0.00000000 NULL       0.00049100      -0.00014000       0.00023600
P        3.76653716       1.54585590      -0.75438211       0.00000000 NULL      -0.00209900       0.00227400       0.00268300
P        0.46352600      -1.09341510       1.37061372       0.00000000 NULL       0.00249800      -0.00300200      -0.00262900
