8
Lattice="2.361883034004973 -0.8634026864259482 0.0 -2.9326647927371905 6.626456231900061 0.0 0.0 0.0 10.331477528982646" Properties=species:S:1:pos:R:3:initial_magmoms:R:1:castep_labels:S:1:forces:R:3 n_minim_iter=1 energy=-44.02402614576 stress="-1.6379287917273295e-05 0.00013214101198124535 -0.0 0.00013214101198124535 0.0002968192580684255 -0.0 -0.0 -0.0 0.00019101791179198448" free_energy=-44.02402614576 pbc="T T T"
P       -0.28891286       2.87546327       5.36951567       0.00000000 NULL       0.00189600       0.00518600       0.00268500
P       -0.28417198       2.88843219      10.53525443       0.00000000 NULL      -0.00189600      -0.00518600       0.00268200
P       -1.04800340       0.79893155       0.52915762       0.00000000 NULL       0.00083200       0.00227800       0.00396100
P        0.47491856       4.96496390       5.69489639       0.00000000 NULL      -0.00083200      -0.00227800       0.00396200
P       -0.28891286       2.87546327       8.27914321       0.00000000 NULL       0.00189600       0.00518600      -0.00268200
P       -0.28417198       2.88843219       3.11340445       0.00000000 NULL      -0.00189600      -0.00518600      -0.00268500
P       -1.04800340       0.79893155       2.78802373       0.00000000 NULL       0.00083200       0.00227800      -0.00396200
P        0.47491856       4.96496390       7.95376249       0.00000000 NULL      -0.00083200      -0.00227800      -0.00396100
