11
Lattice="3.1323944532768935 -0.8165817236694676 0.47256392471977393 -1.6184743000961495 6.760473119344349 -1.0749930388282902 1.6466100558692174 -4.561613862641425 11.746400525744434" Properties=species:S:1:pos:R:3:initial_magmoms:R:1:castep_labels:S:1:forces:R:3 n_minim_iter=3 energy=-58.237540053356 stress="-9.129504062975778e-05 4.596930545305024e-05 2.0180525093889055e-05 4.596930545305024e-05 -2.8684846602703352e-05 1.677879649036334e-05 2.0180525093889055e-05 1.677879649036334e-05 -0.00022924892629436157" free_energy=-58.237540053356 pbc="T T T"
P        2.40913292       1.55996204       0.00372729       0.00000000 NULL      -0.00032400       0.00199100      -0.00145200
P        2.08178164       4.03674790       1.97830018       0.00000000 NULL       0.00696200      -0.00258300      -0.00193900
P        2.41056830       2.56133974       8.79992558       0.00000000 NULL       0.00057400       0.00435600      -0.00494100
P        1.11230433       1.34614617       3.94440547       0.00000000 NULL      -0.00019700      -0.00579900      -0.00232200
P       -0.01336643       2.82495691       2.65941925       0.00000000 NULL       0.00471000       0.00285400       0.00226700
P        1.09885956       2.37168560       5.87228230       0.00000000 NULL      -0.00190400      -0.00048500       0.00513100
P        2.15132626       0.65450730       7.30723851       0.00000000 NULL       0.00037800       0.00104700      -0.00309700
P        1.98336928      -1.91173328       4.55027641       0.00000000 NULL      -0.00083800      -0.00138600       0.00169800
P        3.29363176      -2.30318765       6.43092441       0.00000000 NULL      -0.00270900      -0.00314400       0.00270200
P        2.12684720      -4.18257584      11.18168410       0.00000000 NULL      -0.00229900       0.00390900      -0.00162800
P        0.12654070      -0.21143191       7.90741111       0.00000000 NULL      -0.00435300      -0.00076000       0.00358200
