30
Lattice="9.076418400806984 0.0 0.0 0.0 8.925238918275676 -3.4534093764486315e-14 0.0 -4.462619459137812 7.729483638072302" Properties=species:S:1:pos:R:3:initial_magmoms:R:1:castep_labels:S:1:forces:R:3 n_minim_iter=14 energy=-161.447988020221 stress="0.00017570608220132078 -0.0 -0.0 -0.0 7.951650457011237e-05 0.0 -0.0 0.0 7.953247494660766e-05" free_energy=-161.447988020221 pbc="T T T"
P        2.32464689       0.81606747       8.18319939       0.00000000 NULL      -0.00032800      -0.00498100       0.00188900
P        8.37559249       2.21620536       2.93114879       0.00000000 NULL      -0.00033100       0.00412700       0.00336700
P        5.35011969      -3.03227283       4.34461911       0.00000000 NULL      -0.00032900       0.00085300      -0.00525800
P        0.27686507       5.26335738       3.23433877       0.00000000 NULL       0.00624300       0.00100600      -0.00425800
P        6.32781068       4.63196031       1.55411305       0.00000000 NULL       0.00624100      -0.00419100       0.00125800
P        3.30233787       3.49254069       2.94103182       0.00000000 NULL       0.00624200       0.00318500       0.00300000
P        6.47629571      -2.11127511       6.14008208       0.00000000 NULL       0.00534300       0.00227500       0.00166000
P        3.45082291       1.91048516       6.48786048       0.00000000 NULL       0.00534400       0.00030000      -0.00280000
P        0.42535011       0.20078995       2.83102472       0.00000000 NULL       0.00534500      -0.00257600       0.00114100
P        2.05596728       0.19811855       1.30132144       0.00000000 NULL      -0.00608500       0.00179800      -0.00171300
P        8.10691288      -3.43470131       6.90724723       0.00000000 NULL      -0.00608700      -0.00238400      -0.00070000
P        5.08144008       3.23658277       7.25039862       0.00000000 NULL      -0.00608600       0.00058400       0.00241600
P        7.00422175       2.15363043       6.70575213       0.00000000 NULL      -0.00101500      -0.00372600       0.00013000
P        3.97874895       0.26791702       2.51150891       0.00000000 NULL      -0.00101400       0.00197500       0.00316200
P       10.02969455      -2.42154745       6.24170624       0.00000000 NULL      -0.00101200       0.00175200      -0.00329000
P        4.61228147       0.11120091       5.92089876       0.00000000 NULL       0.00194400      -0.00031900      -0.00278100
P        1.58680867       0.60942883       4.67273145       0.00000000 NULL       0.00194500      -0.00224900       0.00166700
P        7.63775427      -0.72062973       4.86533707       0.00000000 NULL       0.00194200       0.00256800       0.00111300
P        6.29061432       1.05673873       4.86005538       0.00000000 NULL      -0.00189700      -0.00597700       0.00179000
P        3.26514152      -0.78205740       4.38429337       0.00000000 NULL      -0.00189700       0.00453800       0.00428100
P        0.23966872      -0.27468132       6.21461853       0.00000000 NULL      -0.00189500       0.00143900      -0.00607000
P       -0.58619502      -0.45681326       9.28511610       0.00000000 NULL      -0.00452800      -0.00221700       0.00294800
P        5.46475058       3.80693360       3.48253748       0.00000000 NULL      -0.00452700       0.00366300       0.00044600
P        2.43927778      -3.35012033       2.69131370       0.00000000 NULL      -0.00452700      -0.00144500      -0.00339400
P        7.71091422       3.86604462       5.49526745       0.00000000 NULL       0.00097500       0.00109900       0.00117700
P        4.68544142       7.28863836       1.63375707       0.00000000 NULL       0.00097800       0.00046900      -0.00154000
P        1.65996862       2.23317540       0.60045913       0.00000000 NULL       0.00097700      -0.00156700       0.00036100
P        0.49098540       3.36168393       4.44801765       0.00000000 NULL      -0.00065200      -0.00318200      -0.00356200
P        6.54193100      -2.29136514       2.59417114       0.00000000 NULL      -0.00065600      -0.00149400       0.00453700
P        3.51645820      -1.07031878       8.41677850       0.00000000 NULL      -0.00065500       0.00467600      -0.00097400
