3
Lattice="1.5920630411037595 -2.757534076044329 0.0 1.5920630411037595 2.757534076044329 0.0 0.0 0.0 17.33459995" Properties=species:S:1:pos:R:3 mpid=mp-1023924 mp_energy_per_atom=-7.572390883333334 mp_energy=-22.717172650000002 pbc="T T T"
Mo       0.00000000       0.00000000       0.00000000
S        1.59206304       0.91917803       1.55132501
S        1.59206304       0.91917803      15.78327494
14
Lattice="6.37888 0.0 0.0 -1.5966890000000002 6.464796 0.0 -3.1725080000000005 -2.516546 5.55566" Properties=species:S:1:pos:R:3 mpid=mp-1104577 mp_energy_per_atom=-7.931284645714285 mp_energy=-111.03798504 pbc="T T T"
Mo       1.38947302       5.20723663       2.75918521
Mo       0.22020998      -1.25898663       2.79647479
Mo       0.07158726       1.27801181       4.55783013
Mo       1.53809574       2.67023819       0.99782987
Mo      -3.23666303       1.28416130       4.49364559
Mo       4.84634603       2.66408870       1.06201441
S        1.56812683       4.94979618       0.29463332
S        0.04155617      -1.00154618       5.26102668
S        3.19222025       3.40645547       2.92884951
S       -1.58253725       0.54179453       2.62681049
S       -3.19681514      -1.02455419       5.19321985
S        4.80649814       4.97280419       0.36244015
S        1.59487488       0.67941662       2.60761569
S        0.01480812       3.26883338       2.94804431
9
Lattice="1.5920077592328012 -2.757438325035092 0.0 1.5920077592328012 2.757438325035092 0.0 0.0 0.0 28.3873198" Properties=species:S:1:pos:R:3 mpid=mp-1025874 mp_energy_per_atom=-7.57363758 mp_energy=-68.16273822 pbc="T T T"
Mo       1.59200776      -0.91914611       0.00000000
Mo       1.59200776       0.91914611      21.91033351
Mo       1.59200776       0.91914611       6.47698629
S        1.59200776       0.91914611       1.55181782
S        1.59200776      -0.91914611      23.46231597
S        1.59200776      -0.91914611       8.02828860
S        1.59200776       0.91914611      26.83550198
S        1.59200776      -0.91914611      20.35903120
S        1.59200776      -0.91914611       4.92500383
48
Lattice="9.5992 0.0 5.877814777187636e-16 -5.877814777187636e-16 9.5992 5.877814777187636e-16 0.0 0.0 9.5992" Properties=species:S:1:pos:R:3 mpid=mp-1405065 mp_energy_per_atom=-7.306862410833333 mp_energy=-350.72939572 pbc="T T T"
Mo       6.15454868       1.35494868       6.15454868
Mo       8.24425132       3.44465132       6.15454868
Mo       8.24425132       1.35494868       8.24425132
Mo       6.15454868       3.44465132       8.24425132
Mo       6.15454868       6.15454868       1.35494868
Mo       8.24425132       8.24425132       1.35494868
Mo       8.24425132       6.15454868       3.44465132
Mo       6.15454868       8.24425132       3.44465132
Mo       1.35494868       1.35494868       1.35494868
Mo       3.44465132       3.44465132       1.35494868
Mo       3.44465132       1.35494868       3.44465132
Mo       1.35494868       3.44465132       3.44465132
Mo       1.35494868       6.15454868       6.15454868
Mo       3.44465132       8.24425132       6.15454868
Mo       3.44465132       6.15454868       8.24425132
Mo       1.35494868       8.24425132       8.24425132
S        8.49616793       1.10303207       5.90263207
S        1.10303207       1.10303207       3.69656793
S        5.90263207       3.69656793       5.90263207
S        5.93689162       3.66230838       1.13729162
S        8.46190838       1.13729162       1.13729162
S        8.46190838       3.66230838       3.66230838
S        5.93689162       1.13729162       3.66230838
S        3.69656793       3.69656793       3.69656793
S        8.49616793       5.90263207       1.10303207
S        1.10303207       5.90263207       8.49616793
S        5.90263207       8.49616793       1.10303207
S        5.93689162       8.46190838       5.93689162
S        8.46190838       5.93689162       5.93689162
S        8.46190838       8.46190838       8.46190838
S        5.93689162       5.93689162       8.46190838
S        3.69656793       8.49616793       8.49616793
S        3.69656793       1.10303207       1.10303207
S        5.90263207       1.10303207       8.49616793
S        1.10303207       3.69656793       1.10303207
S        1.13729162       3.66230838       5.93689162
S        3.66230838       1.13729162       5.93689162
S        3.66230838       3.66230838       8.46190838
S        1.13729162       1.13729162       8.46190838
S        8.49616793       3.69656793       8.49616793
S        3.69656793       5.90263207       5.90263207
S        5.90263207       5.90263207       3.69656793
S        1.10303207       8.49616793       5.90263207
S        1.13729162       8.46190838       1.13729162
S        3.66230838       5.93689162       1.13729162
S        3.66230838       8.46190838       3.66230838
S        1.13729162       5.93689162       3.66230838
S        8.49616793       8.49616793       3.69656793
10
Lattice="0.0 6.170364 0.0 3.209857 0.0 0.0 0.0 -1.9522030000000001 -8.484579" Properties=species:S:1:pos:R:3 mpid=mp-1627 mp_energy_per_atom=-7.805989200000001 mp_energy=-78.059892 pbc="T T T"
Mo       0.80246425       2.30755552      -8.40719115
Mo       2.40739275       1.91060548      -0.07738785
Mo       0.80246425       4.77795012      -3.16971993
Mo       2.40739275      -0.55978912      -5.31485907
S        0.80246425       2.66013666      -1.66693978
S        2.40739275       1.55802434      -6.81763922
S        0.80246425      -1.48207100      -7.14567001
S        2.40739275       5.70023200      -1.33890899
S        0.80246425       0.73717463      -4.12986883
S        2.40739275       3.48098637      -4.35471017
3
Lattice="1.5997023719711114 -2.770765785242412 0.0 1.5997023719711114 2.770765785242412 0.0 0.0 0.0 6.493522" Properties=species:S:1:pos:R:3 mpid=mp-1238797 mp_energy_per_atom=-7.296407713333333 mp_energy=-21.88922314 pbc="T T T"
Mo       0.00000000       0.00000000       3.24676100
S        1.59970237       0.92358860       1.66063384
S        1.59970237      -0.92358860       4.83288816
6
Lattice="1.592270727983104 -2.7578938002714195 0.0 1.592270727983104 2.7578938002714195 0.0 0.0 0.0 21.67053472" Properties=species:S:1:pos:R:3 mpid=mp-1023939 mp_energy_per_atom=-7.573311911666667 mp_energy=-45.43987147 pbc="T T T"
Mo       1.59227073      -0.91929793       3.22543740
Mo       1.59227073       0.91929793      18.44509732
S        1.59227073       0.91929793       4.77563564
S        1.59227073      -0.91929793      19.99646424
S        1.59227073       0.91929793       1.67407048
S        1.59227073      -0.91929793      16.89489908
6
Lattice="1.5961189560652265 -2.7645591268287686 0.0 1.5961189560652265 2.7645591268287686 0.0 0.0 0.0 13.378294" Properties=species:S:1:pos:R:3 mpid=mp-2815 mp_energy_per_atom=-7.574405446666667 mp_energy=-45.44643268 pbc="T T T"
Mo       1.59611896      -0.92151971       3.34457350
Mo       1.59611896       0.92151971      10.03372050
S        1.59611896      -0.92151971       8.46955712
S        1.59611896       0.92151971       4.90873688
S        1.59611896      -0.92151971      11.59788388
S        1.59611896       0.92151971       1.78041012
6
Lattice="1.5927161564966397 -2.758665305088003 0.0 1.5927161564966397 2.758665305088003 0.0 0.0 0.0 13.178390907029309" Properties=species:S:1:pos:R:3 mpid=mp-1018809 mp_energy_per_atom=-7.573130095 mp_energy=-45.43878057 pbc="T T T"
Mo       0.00000000       0.00000000       3.29459773
Mo       0.00000000       0.00000000       9.88379318
S        1.59271616       0.91955510       4.84626153
S        1.59271616      -0.91955510       8.33212937
S        1.59271616      -0.91955510      11.43545699
S        1.59271616       0.91955510       1.74293392
12
Lattice="5.61622 0.0 3.438942923153674e-16 -3.438942923153674e-16 5.61622 3.438942923153674e-16 0.0 0.0 10.30463" Properties=species:S:1:pos:R:3 mpid=mp-1042086 mp_energy_per_atom=-6.926904449999999 mp_energy=-83.1228534 pbc="T T T"
Mo      -0.00000000       2.80811000       2.57615750
Mo       0.00000000       0.00000000       0.00000000
Mo       2.80811000       0.00000000       7.72847250
Mo       2.80811000       2.80811000       5.15231500
S        4.38968248       4.21216500       1.28807875
S        1.40405500       4.03464752       3.86423625
S        1.22653752       1.40405500       1.28807875
S        4.21216500       1.58157248       3.86423625
S        1.58157248       1.40405500       6.44039375
S        4.21216500       1.22653752       9.01655125
S        4.03464752       4.21216500       6.44039375
S        1.40405500       4.38968248       9.01655125
14
Lattice="-3.8544106728689407 0.0 0.0 -0.04153336556087034 -8.97673682731159 0.0 1.1939385551492563 0.8021940372597955 11.90469431153925" Properties=species:S:1:pos:R:3 mpid=mp-1181164 mp_energy_per_atom=-7.349281071428571 mp_energy=-102.889935 pbc="T T T"
Mo      -0.31609145      -1.51753185       3.74635968
Mo      -0.03862202      -5.57763700       0.37773595
Mo      -2.37533359      -0.72266635       5.10426864
Mo      -2.38591403      -6.65701094       8.15833463
Mo      -2.66338347      -2.59690579      11.52695836
Mo      -0.32667189      -7.45187644       6.80042567
S       -2.58588702      -5.89862419      10.31504858
S       -1.97176181      -5.99076355       1.56190780
S       -1.88714683      -5.68320590       6.18592916
S       -0.11611847      -2.27591860       1.58964574
S       -0.73024367      -2.18377924      10.34278651
S       -0.81485866      -2.49133689       5.71876515
S       -2.25948345      -0.01023197       7.52607632
S       -0.44252204      -8.16431082       4.37861800
54
Lattice="3.162981 0.0 1.936767278706947e-16 -7.973041554529857e-16 13.020964999999999 7.973041554529857e-16 0.0 0.0 43.476516999999994" Properties=species:S:1:pos:R:3 mpid=mp-990083 mp_energy_per_atom=-7.4080486279629625 mp_energy=-400.03462591 pbc="T T T"
Mo       0.00000000       0.00000000       2.30569013
Mo      -0.00000000       6.51048250      38.39763376
Mo       1.58149050       6.51048250      41.17082687
Mo       0.00000000       0.00000000      40.22995157
Mo      -0.00000000       6.51048250       0.46880728
Mo       1.58149050       6.51048250      35.63157080
Mo      -0.00000000       6.51048250       6.02780170
Mo       0.00000000       0.00000000      34.64778417
Mo       0.00000000       0.00000000       7.84494620
Mo       1.58149050       0.00000000       5.07888324
Mo       1.58149050       6.51048250       8.82873283
Mo       1.58149050       0.00000000      43.00770972
Mo      -0.00000000       6.51048250      11.42515043
Mo       1.58149050       0.00000000      37.44871530
Mo       1.58149050       6.51048250       3.24656543
Mo      -0.00000000       6.51048250      32.85607343
Mo       1.58149050       0.00000000      32.05136657
Mo       1.58149050       0.00000000      10.62044357
S        1.58149050       5.00321465      31.87567797
S        1.58149050       1.56849242       3.23513111
S       -0.00000000       8.07258163       7.87972742
S       -0.00000000       1.56583615      38.37972144
S        1.58149050       1.56209913      35.59678958
S        1.58149050       4.94060985      37.46867102
S        1.58149050      11.45247258       3.23513111
S       -0.00000000       1.50726785      11.60083903
S       -0.00000000      11.45512885      38.37972144
S       -0.00000000       8.07897492      40.24138589
S        1.58149050       1.56547156       8.78008261
S        1.58149050       8.08035515      37.46867102
S        1.58149050       8.01775035      31.87567797
S        1.58149050       4.94464635       5.09679556
S       -0.00000000       4.94838337       7.87972742
S        1.58149050       8.07906607      43.01601373
S       -0.00000000      11.51369715      11.60083903
S        1.58149050       4.87721078      10.68635397
S       -0.00000000       1.56858357       0.46050327
S        1.58149050       1.56821898      41.16087075
S       -0.00000000       1.56987265       6.00784598
S       -0.00000000      11.38769328      32.79016303
S        1.58149050       8.14375422      10.68635397
S        1.58149050       4.94189893      43.01601373
S        1.58149050       8.07631865       5.09679556
S       -0.00000000       4.94501094      34.69643439
S       -0.00000000       4.94199008      40.24138589
S       -0.00000000      11.45238143       0.46050327
S        1.58149050      11.45886587      35.59678958
S       -0.00000000       8.07870148       2.31564625
S        1.58149050      11.45274602      41.16087075
S       -0.00000000       4.94226352       2.31564625
S       -0.00000000      11.45109235       6.00784598
S        1.58149050      11.45549344       8.78008261
S       -0.00000000       1.63327172      32.79016303
S       -0.00000000       8.07595406      34.69643439
9
Lattice="1.5948889694405843 -2.7624287275022583 0.0 1.5948889694405843 2.7624287275022583 0.0 0.0 0.0 18.97600166013402" Properties=species:S:1:pos:R:3 mpid=mp-558544 mp_energy_per_atom=-7.29468826 mp_energy=-65.65219434 pbc="T T T"
Mo       0.00000000       0.00000000       0.00000000
Mo       1.59488897      -0.92080958       6.32533389
Mo       1.59488897       0.92080958      12.65066777
S        0.00000000       0.00000000       4.72219699
S        1.59488897      -0.92080958       1.60313690
S        1.59488897      -0.92080958      11.04753088
S        1.59488897       0.92080958       7.92847078
S        1.59488897       0.92080958      17.37286476
S        0.00000000       0.00000000      14.25380467
9
Lattice="1.5921519154827346 -2.757688010984205 0.0 1.5921519154827346 2.757688010984205 0.0 0.0 0.0 19.446295138816083" Properties=species:S:1:pos:R:3 mpid=mp-1434 mp_energy_per_atom=-7.574205683333333 mp_energy=-68.16785115 pbc="T T T"
Mo       1.59215192      -0.91922934       6.47772374
Mo       1.59215192       0.91922934      12.95982212
Mo       0.00000000       0.00000000      19.44192050
S        1.59215192       0.91922934       1.54786455
S        0.00000000       0.00000000       4.92566372
S        0.00000000       0.00000000       8.02996293
S        1.59215192      -0.91922934      11.40776210
S        1.59215192      -0.91922934      14.51206131
S        1.59215192       0.91922934      17.88986048
12
Lattice="1.5918594745349206 -2.757181488404378 0.0 1.5918594745349206 2.757181488404378 0.0 0.0 0.0 34.47923848" Properties=species:S:1:pos:R:3 mpid=mp-1027525 mp_energy_per_atom=-7.573816163333333 mp_energy=-90.88579396 pbc="T T T"
Mo       1.59185947      -0.91906050      31.25351160
Mo       1.59185947      -0.91906050       9.62305099
Mo       1.59185947       0.91906050      24.85618749
Mo       1.59185947       0.91906050       3.22572688
S        1.59185947       0.91906050      32.80539902
S        1.59185947       0.91906050      11.17431606
S        1.59185947      -0.91906050      26.40800527
S        1.59185947      -0.91906050       4.77774291
S        1.59185947       0.91906050      29.70149557
S        1.59185947       0.91906050       8.07123321
S        1.59185947      -0.91906050      23.30492242
S        1.59185947      -0.91906050       1.67383946
30
Lattice="6.442608 0.0 0.0 -0.7445749999999982 6.471351 0.0 -1.02575 -1.1111979999999992 12.993771999999998" Properties=species:S:1:pos:R:3 mpid=mp-673645 mp_energy_per_atom=-8.105233239 mp_energy=-243.15699717 pbc="T T T"
Mo       0.46374784       5.78121742       0.13208169
Mo       0.75555616       2.40619523       3.54051701
Mo       0.32875048       1.61433507      10.02353865
Mo       2.07423222       3.53095236       1.37661218
Mo       1.56992597       2.83529049       7.88731056
Mo       1.98825539       4.84055072       3.80785087
Mo       1.67434915       4.11853264      10.40464599
Mo       3.04869818       1.29459802       2.64024351
Mo       2.60339948       0.57637338       9.11632649
Mo       3.03844813       2.60791771       5.06534914
Mo       2.63456391       1.88308214      11.57552777
Mo       4.30913398       3.70278975       2.92006439
Mo       3.88899908       2.95520096       9.44567962
Mo      -1.04265049       4.66728987       7.09132508
S        0.09082438       4.65546526       2.29150367
S       -0.28275338       3.85669366       9.12920331
S        0.93652042       1.38605921       1.33517504
S        0.50042839       0.44329476       7.82976114
S        0.73120716       3.71675131       5.63085110
S        0.38582557       2.82503382      12.03832695
S        1.81813555       0.55506504       4.68446271
S        1.38723383      -0.20972997      11.32084984
S        3.27614990       5.60087891       1.78872265
S        2.82977854       4.87286376       8.24436642
S        4.25884876       2.41360904       0.87891173
S        3.70874905       1.78637716       7.34032473
S        4.10330228       4.86134719       5.05057523
S        3.85326933       4.03902410      11.70797329
S        4.94788597       1.59076726       4.07165043
S        4.51994861       0.80903078      10.53564919
42
Lattice="4.644429181247492 -8.044387314076179 0.0 4.644429181247492 8.044387314076179 0.0 0.0 0.0 10.984104619219538" Properties=species:S:1:pos:R:3 mpid=mp-2164 mp_energy_per_atom=-7.976914530714287 mp_energy=-335.03041029 pbc="T T T"
Mo       0.89744770       1.29657558       4.27644511
Mo       7.71726713       0.12892471       4.27644511
Mo       5.31857272       6.61888702       4.27644511
Mo       8.39141067      -1.29657558       6.70765951
Mo       1.57159124      -0.12892471       6.70765951
Mo       3.97028564      -6.61888702       6.70765951
Mo       5.54187688      -1.38488686       7.93781332
Mo       3.07283795      -2.55253772       7.93781332
Mo       5.31857272      -4.10696273       7.93781332
Mo       3.74698149      -3.97803802      10.36902771
Mo       6.21602042      -2.81038715      10.36902771
Mo       3.97028564      -1.25596215      10.36902771
Mo       5.54187688       3.97803802       0.61507691
Mo       3.07283795       2.81038715       0.61507691
Mo       5.31857272       1.25596215       0.61507691
Mo       3.74698149       1.38488686       3.04629130
Mo       6.21602042       2.55253772       3.04629130
Mo       3.97028564       4.10696273       3.04629130
S        3.45889219      -5.51247540       4.59172187
S        7.68892682      -2.29266111       4.59172187
S        2.78546853      -0.23925080       4.59172187
S        5.82996617       5.51247540       6.39238275
S        1.59993154       2.29266111       6.39238275
S        6.50338983       0.23925080       6.39238275
S        0.00000000       0.00000000       2.42793747
S        0.00000000       0.00000000       8.55616715
S        3.45889219      -0.14955052       8.25309007
S        3.04449764      -4.97412355       8.25309007
S        7.42989772      -2.92071324       8.25309007
S        5.82996617      -5.21337435      10.05375096
S        6.24436072      -0.38880133      10.05375096
S        1.85896065      -2.44221163      10.05375096
S        4.64442918      -2.68146244       6.08930568
S        4.64442918      -2.68146244       1.23343074
S        3.45889219       5.21337435       0.93035366
S        3.04449764       0.38880133       0.93035366
S        7.42989772       2.44221163       0.93035366
S        5.82996617       0.14955052       2.73101455
S        6.24436072       4.97412355       2.73101455
S        1.85896065       2.92071324       2.73101455
S        4.64442918       2.68146244       9.75067388
S        4.64442918       2.68146244       4.89479894
68
Lattice="4.647453060234579 -8.049624826117752 0.0 4.647453060234579 8.049624826117752 0.0 0.0 0.0 19.204461" Properties=species:S:1:pos:R:3 mpid=mp-31257 mp_energy_per_atom=-8.021422273088236 mp_energy=-545.45671457 pbc="T T T"
Mo       3.95732022       1.27426366      14.40334575
Mo       5.52256847      -3.98535315       4.80111525
Mo       3.08220481      -2.79000801       4.80111525
Mo       6.21270131       2.79000801      14.40334575
Mo       3.77233765       3.98535315      14.40334575
Mo       5.33758590      -1.27426366       4.80111525
Mo       6.22159653      -2.54492914       2.49364165
Mo       5.31477155       4.11559608      12.09587215
Mo       5.55427804       1.38909961      12.09587215
Mo       3.74062808      -1.38909961       2.49364165
Mo       3.98013457      -4.11559608       2.49364165
Mo       3.07330959       2.54492914      12.09587215
Mo       3.07330959       2.54492914      16.71081935
Mo       3.98013457      -4.11559608       7.10858885
Mo       3.74062808      -1.38909961       7.10858885
Mo       5.55427804       1.38909961      16.71081935
Mo       5.31477155       4.11559608      16.71081935
Mo       6.22159653      -2.54492914       7.10858885
Mo       3.98514917       6.62699048      17.99552098
Mo       0.90088554      -1.28488916       8.39329048
Mo       7.73171669      -0.13774518       8.39329048
Mo       1.56318943       0.13774518      17.99552098
Mo       8.39402058       1.28488916      17.99552098
Mo       5.30975695      -6.62699048       8.39329048
Mo       5.30975695      -6.62699048       1.20894002
Mo       8.39402058       1.28488916      10.81117052
Mo       1.56318943       0.13774518      10.81117052
Mo       7.73171669      -0.13774518       1.20894002
Mo       0.90088554      -1.28488916       1.20894002
Mo       3.98514917       6.62699048      10.81117052
S        4.64745306       2.68320828      18.54759162
S        4.64745306      -2.68320828       8.94536112
S        4.64745306      -2.68320828       0.65686938
S        4.64745306       2.68320828      10.25909988
S        0.00000000       0.00000000       3.04903466
S        0.00000000       0.00000000      12.65126516
S        0.00000000       0.00000000      16.15542634
S        0.00000000       0.00000000       6.55319584
S        1.82053284       2.46337034      14.40334575
S        3.42437819      -5.24131196       4.80111525
S        3.04360771      -0.34494252       4.80111525
S        6.25129841       0.34494252      14.40334575
S        5.87052793       5.24131196      14.40334575
S        7.47437328      -2.46337034       4.80111525
S        5.81634327      -0.12760265       2.74099511
S        3.01867878       4.97329971      12.34322561
S        7.69727442       2.30260323       0.91507336
S        7.44511756       2.94872247      12.34322561
S        6.27622734      -4.97329971       2.74099511
S        3.47856285       0.12760265      12.34322561
S        3.47856285       0.12760265      16.46346589
S        6.27622734      -4.97329971       6.86123539
S        1.84978856      -2.94872247       6.86123539
S        7.44511756       2.94872247      16.46346589
S        3.01867878       4.97329971      16.46346589
S        5.81634327      -0.12760265       6.86123539
S        3.45215602       5.51473357       0.91507336
S        1.59763170      -2.30260323      10.51730386
S        6.50197738      -0.23228802      10.51730386
S        2.79292874       0.23228802       0.91507336
S        3.45215602       5.51473357       8.68715714
S        1.59763170      -2.30260323      18.28938764
S        6.50197738      -0.23228802      18.28938764
S        2.79292874       0.23228802       8.68715714
S        7.69727442       2.30260323       8.68715714
S        5.84275010      -5.51473357      18.28938764
S        5.84275010      -5.51473357      10.51730386
S        1.84978856      -2.94872247       2.74099511
