 +-------------------------------------------------+
 +-------------------------------------------------+
 |                                                 |
 |      CCC   AA    SSS  TTTTT  EEEEE  PPPP        |
 |     C     A  A  S       T    E      P   P       |
 |     C     AAAA   SS     T    EEE    PPPP        |
 |     C     A  A     S    T    E      P           |
 |      CCC  A  A  SSS     T    EEEEE  P           |
 |                                                 |
 +-------------------------------------------------+
 |                                                 |
 | Welcome to Academic Release CASTEP version 20.1 |          
 | Ab Initio Total Energy Program                  |
 |                                                 |
 | Authors:                                        |
 | M. Segall, M. Probert, C. Pickard, P. Hasnip,   |
 | S. Clark, K. Refson, J. R. Yates, M. Payne      |
 |                                                 |
 | Contributors:                                   |
 | P. Lindan, P. Haynes, J. White, V. Milman,      |
 | N. Govind, M. Gibson, P. Tulip, V. Cocula,      |
 | B. Montanari, D. Quigley, M. Glover,            |
 | L. Bernasconi, A. Perlov, M. Plummer,           |
 | E. McNellis, J. Meyer, J. Gale, D. Jochym       |
 | J. Aarons, B. Walker, R. Gillen, D. Jones       |
 | T. Green, I. J. Bush, C. J. Armstrong,          |
 | E. J. Higgins, E. L. Brown, M. S. McFly,        |
 | J. Wilkins, B-C. Shih, P. J. P. Byrne,          |
 | R. J. Maurer, J. C. Womack, A. Bartok-Partay    |
 |                                                 |
 | Copyright (c) 2000 - 2019                       |
 |                                                 |
 |     Distributed under the terms of an           |
 |     Agreement between the United Kingdom        |
 |     Car-Parrinello (UKCP) Consortium,           |
 |     Daresbury Laboratory and Accelrys, Inc.     |
 |                                                 |
 | Please cite                                     |
 |                                                 |
 |     "First principles methods using CASTEP"     |
 |                                                 |
 |         Zeitschrift fuer Kristallographie       |
 |           220(5-6) pp. 567-570 (2005)           |
 |                                                 |
 | S. J. Clark, M. D. Segall, C. J. Pickard,       |
 | P. J. Hasnip, M. J. Probert, K. Refson,         |
 | M. C. Payne                                     |
 |                                                 |
 |       in all publications arising from          |
 |              your use of CASTEP                 |
 |                                                 |
 +-------------------------------------------------+
 |                                                 |
 |              http://www.castep.org              |
 |                                                 |
 +-------------------------------------------------+
 
 
 
 Compiled for linux_x86_64_ifort17 on Sat, 19 Jun 2021 13:35:23 +0100
 from code version 5dacc5c3c63b+  Mon, 10 Jun 2019 22:27:09 +0100
 Compiler: ; Optimisation: fast
 MATHLIBS: Intel MKL(2019.0.1) (LAPACK version 3.7.0)
 FFT  
 Run started: Wed, 21 Sep 2022 10:57:46 +0100
 
 Pseudo atomic calculation performed for P 3s2 3p3
 
 Converged in 18 iterations to a total energy of -214.2208 eV
 Calculation not parallelised.

 ************************************ Title ************************************
 

 ***************************** General Parameters ******************************
  
 output verbosity                               : normal  (1)
 write checkpoint data to                       : 0_0.check
 type of calculation                            : single point energy
 stress calculation                             : on
 density difference calculation                 : off
 electron localisation func (ELF) calculation   : off
 Hirshfeld analysis                             : off
 molecular orbital projected DOS                : off
 deltaSCF calculation                           : off
 unlimited duration calculation
 timing information                             : on
 memory usage estimate                          : on
 write extra output files                       : on
 write final potential to formatted file        : off
 write final density to formatted file          : off
 write BibTeX reference list                    : on
 write OTFG pseudopotential files               : on
 write electrostatic potential file             : on
 write bands file                               : on
 checkpoint writing                             : both castep_bin and check files
  
 output         length unit                     : A
 output           mass unit                     : amu
 output           time unit                     : ps
 output         charge unit                     : e
 output           spin unit                     : hbar/2
 output         energy unit                     : eV
 output          force unit                     : eV/A
 output       velocity unit                     : A/ps
 output       pressure unit                     : GPa
 output     inv_length unit                     : 1/A
 output      frequency unit                     : cm-1
 output force constant unit                     : eV/A**2
 output         volume unit                     : A**3
 output   IR intensity unit                     : (D/A)**2/amu
 output         dipole unit                     : D
 output         efield unit                     : eV/A/e
 output        entropy unit                     : J/mol/K
  
 wavefunctions paging                           : none
 random number generator seed                   : randomised (105746816)
 data distribution                              : optimal for this architecture
 optimization strategy                          : maximize speed(+++)

 *********************** Exchange-Correlation Parameters ***********************
  
 using functional                               : Perdew Burke Ernzerhof
 relativistic treatment                         : Koelling-Harmon
 DFT+D: Semi-empirical dispersion correction    : off

 ************************* Pseudopotential Parameters **************************
  
 pseudopotential representation                 : reciprocal space
 <beta|phi> representation                      : reciprocal space
 spin-orbit coupling                            : off

 **************************** Basis Set Parameters *****************************
  
 plane wave basis set cut-off                   :   500.0000   eV
 size of standard grid                          :     1.7500
 size of   fine   gmax                          :    20.0476   1/A
 finite basis set correction                    : automatic
 number of sample energies                      :          3
           sample  spacing                      :     5.0000   eV

 **************************** Electronic Parameters ****************************
  
 number of  electrons                           :  60.00    
 net charge of system                           :  0.000    
 treating system as non-spin-polarized
 number of bands                                :         90

 ********************* Electronic Minimization Parameters **********************
  
 Method: Treating system as metallic with density mixing treatment of electrons,
         and number of  SD  steps               :          1
         and number of  CG  steps               :          4
  
 total energy / atom convergence tol.           : 0.1000E-05   eV
 eigen-energy convergence tolerance             : 0.1333E-06   eV
 max force / atom convergence tol.              : ignored
 convergence tolerance window                   :          3   cycles
 max. number of SCF cycles                      :        250
 number of fixed-spin iterations                :         10
 smearing scheme                                : Gaussian
 smearing width                                 : 0.5000E-01   eV
 Fermi energy convergence tolerance             : 0.2721E-13   eV
 periodic dipole correction                     : NONE

 ************************** Density Mixing Parameters **************************
  
 density-mixing scheme                          : Pulay
 max. length of mixing history                  :         20
 charge density mixing amplitude                : 0.8000    
 cut-off energy for mixing                      :  500.0       eV

 *********************** Population Analysis Parameters ************************
  
 Population analysis with cutoff                :  3.000       A
 Population analysis output                     : summary and pdos components

 *******************************************************************************
  
 
                           -------------------------------
                                      Unit Cell
                           -------------------------------
        Real Lattice(A)                      Reciprocal Lattice(1/A)
     6.2414100     0.0000000     0.0000000        1.006693248  -0.465045653  -0.350442926
     3.1207050     6.7554500     0.0000000        0.000000000   0.930091305  -0.266683038
     3.1207050     1.8619490     6.4937860        0.000000000   0.000000000   0.967568889
 
                       Lattice parameters(A)       Cell Angles
                    a =      6.241410          alpha =   66.232995
                    b =      7.441432          beta  =   65.205251
                    c =      7.441432          gamma =   65.205250
 
                       Current cell volume =           273.800962       A**3
                                   density =             1.357501   AMU/A**3
                                           =             2.254184     g/cm^3
 
                           -------------------------------
                                     Cell Contents
                           ------------ Calculation not parallelised.

 ************************************ Title ************************************
 

 ***************************** General Parameters ******************************
  
 output verbosity                               : normal  (1)
 write checkpoint data to                       : 0_0.check
 type of calculation                            : single point energy
 stress calculation                             : on
 density difference calculation                 : off
 electron localisation func (ELF) calculation   : off
 Hirshfeld analysis                             : off
 molecular orbital projected DOS                : off
 deltaSCF calculation                           : off
 unlimited duration calculation
 timing information                             : on
 memory usage estimate                          : on
 write extra output files                       : on
 write final potential to formatted file        : off
 write final density to formatted file          : off
 write BibTeX reference list                    : on
 write OTFG pseudopotential files               : on
 write electrostatic potential file             : on
 write bands file                               : on
 checkpoint writing                             : both castep_bin and check files
  
 output         length unit                     : A
 output           mass unit                     : amu
 output           time unit                     : ps
 output         charge unit                     : e
 output           spin unit                     : hbar/2
 output         energy unit                     : eV
 output          force unit                     : eV/A
 output       velocity unit                     : A/ps
 output       pressure unit                     : GPa
 output     inv_length unit                     : 1/A
 output      frequency unit                     : cm-1
 output force constant unit                     : eV/A**2
 output         volume unit                     : A**3
 output   IR intensity unit                     : (D/A)**2/amu
 output         dipole unit                     : D
 output         efield unit                     : eV/A/e
 output        entropy unit                     : J/mol/K
  
 wavefunctions paging                           : none
 random number generator seed                   : randomised (105746941)
 data distribution                              : optimal for this architecture
 optimization strategy                          : maximize speed(+++)

 *********************** Exchange-Correlation Parameters ***********************
  
 using functional                               : Perdew Burke Ernzerhof
 relativistic treatment                         : Koelling-Harmon
 DFT+D: Semi-empirical dispersion correction    : off

 ************************* Pseudopotential Parameters **************************
  
 pseudopotential representation                 : reciprocal space
 <beta|phi> representation                      : reciprocal space
 spin-orbit coupling                            : off

 **************************** Basis Set Parameters *****************************
  
 plane wave basis set cut-off                   :   500.0000   eV
 size of standard grid                          :     1.7500
 size of   fine   gmax                          :    20.0476   1/A
 finite basis set correction                    : automatic
 number of sample energies                      :          3
           sample  spacing                      :     5.0000   eV

 **************************** Electronic Parameters ****************************
  
 number of  electrons                           :  60.00    
 net charge of system                           :  0.000    
 treating system as non-spin-polarized
 number of bands                                :         90

 ********************* Electronic Minimization Parameters **********************
  
 Method: Treating system as metallic with density mixing treatment of electrons,
         and number of  SD  steps               :          1
         and number of  CG  steps               :          4
  
 total energy / atom convergence tol.           : 0.1000E-05   eV
 eigen-energy convergence tolerance             : 0.1333E-06   eV
 max force / atom convergence tol.              : ignored
 convergence tolerance window                   :          3   cycles
 max. number of SCF cycles                      :        250
 number of fixed-spin iterations                :         10
 smearing scheme                                : Gaussian
 smearing width                                 : 0.5000E-01   eV
 Fermi energy convergence tolerance             : 0.2721E-13   eV
 periodic dipole cor------------------------------------------------------------------------ <-- SCF
SCF loop      Energy           Fermi           Energy gain       Timer   <-- SCF
                               energy          per atom          (sec)   <-- SCF
------------------------------------------------------------------------ <-- SCF
Initial  -4.81796225E+002  0      1  -2.36084189E+003  5.71611032E+000   1.565403      1  -2.35788312E+003  5      2  -2.62294060E+003  3.06750903E+000   2.184155      2  -2.62290275E+003  3      3  -2.62851162E+003  2.96529331E+000   4.718832      3  -2.62851174E+003  2      4  -2.62708872E+003  3.30380247E+000  -1.186212      4  -2.62708863E+003  3      5  -2.62705425E+003  3.36835270E+000  -2.879078      5  -2.62705421E+003  3      6  -2.62705788E+003  3.40364351E+000   3.022289      6  -2.62705788E+003  3      7  -2.62706188E+003  3.41845109E+000   3.339382      7  -2.62706189E+003  3      8  -2.62706359E+003  3.42700406E+000   1.422385      8  -2.62706359E+003  3      9  -2.62706371E+003  3.42858688E+000   1.016257      9  -2.62706371E+003  3     10  -2.62706373E+003  3.42880256E+000   1.264376     10  -2.62706373E+003  3     11  -2.62706373E+003  3.42881586E+000   1.055498     11  -2.62706373E+003  3     12  -2.62706373E+003  3.42881876E+000   1.272114     12  -2.62706373E+003  3.42881974E+000   9.05953857E-009    1503.00  <-- SCF
------------------------------------------------------------------------ <-- SCF
 
Final energy, E             =  -2627.057630576     eV
Final free energy (E-TS)    =  -2627.063728112     eV
(energies not corrected for finite basis set)
 
NB est. 0K energy (E-0.5TS)      =  -2627.060679344     eV
 
C----------------------------------------------------------------------------------------------------------------------------- <-- SCF
SCF loop      Energy           Fermi           Energy gain       Timer   <-- SCF
                               energy          per atom          (sec)   <-- SCF
------------------------------------------------------------------------ <-- SCF
Initial  -2.62705763E+003  0      1  -2.62706377E+003  3.42882230E+000   5.113954      1  -2.62706377E+003  3      2  -2.62706377E+003  3.42882230E+000   1.655707      2  -2.62706377E+003  3      3  -2.62706377E+003  3.42881881E+000   9.461187      3  -2.62706377E+003  3      4  -2.62706377E+003  3.42881847E+000  -9.007785      4  -2.62706377E+003  3.42881822E+000  -6.06018732E-010    1759.32  <-- SCF
------------------------------------------------------------------------ <-- SCF
 
Final energy, E             =  -2627.057669826     eV
Final free energy (E-TS)    =  -2627.063767305     eV
(energies not corrected for finite basis set)
 
NB est. 0K energy (E-0.5TS)      =  -2627.060718566     eV
 
Calculating total energy with cut-off of  500.000 eV.
------------------------------------------------------------------------ <-- SCF
SCF loop      Energy           Fermi           Energy gain       Timer   <-- SCF
                               energy          per atom          (sec)   <-- SCF
------------------------------------------------------------------------ <-- SCF
Initial  -2.62705767E+003  0      1  -2.62706380E+003  3.42881737E+000   5.111300      1  -2.62706380E+003  3      2  -2.62706380E+003  3.42881737E+000   4.221442      2  -2.62706380E+003  3      3  -2.62706380E+003  3.42881641E+000   1.621549      3  -2.62706380E+003  3      4  -2.62706380E+003  3.42881642E+000   1.176848      4  -2.62706380E+003  3.42881637E+000   7.44069580E-011    2010.23  <-- SCF
------------------------------------------------------------------------ <-- SCF
 
Final energy, E             =  -2627.057705940     eV
Final free energy (E-TS)    =  -2627.063803406     eV
(energies not corrected for finite basis set)
 
NB est. 0K energy (E-0.5TS)      =  -2627.060754673     eV
 
 For future reference: finite basis dEtot/dlog(Ecut) =      -0.003742eV
 Total energ 
 ************************** Forces **************** 
 ************************** Forces **************************
 *                                                          *
 *               Cartesian components (eV/A)                *
 * -------------------------------------------------------- *
 *                         x            y            z      *
 *                                                          *
 * P               1      1.97871     -0.18297      3.46442 *
 * P               2     -1.97871     -3.27977      1.13076 *
 * P               3     -1.98096     -0.18537      3.47092 *
 * P               4      1.98096     -3.28536      1.13485 *
 * P               5     -0.15769     -0.63851     -2.71415 *
 * P               6      0.15770      2.78495     -0.13429 *
 * P               7      0.15508     -0.62373     -2.70734 *
 * P               8     -0.15509      2.77434     -0.14662 *
 * P               9     -0.57942      1.90535      0.07091 *
 * P              10      0.57941     -0.59330     -1.81201 *
 * P              11      0.58592      1.89686      0.05169 *
 * P              12     -0.58591     -0.57248     -1.80914 *
 *                                                          *
 ******** 
 ***************** Stress Tensor *****************
 
 ***************** Stress Tensor *****************
 *                                               *
 *          Cartesian components (GPa)           *
 * --------------------------------------------- *
 *             x             y             z     *
 *                                               *
 *  x     -8.056052      0.013953      0.010514  *
 *  y      0.013953    -15.208384      9.454518  *
 *  z      0.010514      9.454518    -20.630187  *
 *                                               *
 *  Pressure:   14.6315                          *
 *                                               *
 *************************************************
 
 Pseudo atomic calculation performed for P 3s2 3p3
 
 Converged in 18 iterations to a total energy of -214.2208 eV
Charge spilling parameter for spin component 1 = 2.38%
 
            Orbital Populations       
     Ion    Atom   Orbital             Charge
  -------------------------------------------
      P     1      S                    1.756
      P     1      Px                   1.112
      P     1      Py                   1.001
      P     1      Pz                   1.099
      P     2      S                    1.756
      P     2      Px                   1.111
      P     2      Py                   1.141
      P     2      Pz                   0.959
      P     3      S                    1.756
      P     3      Px                   1.112
      P     3      Py                   1.000
      P     3      Pz                   1.099
      P     4      S                    1.756
      P     4      Px                   1.112
      P     4      Py                   1.141
      P     4      Pz                   0.959
      P     5      S                    1.661
      P     5      Px                   1.104
      P     5      Py                   1.206
      P     5      Pz                   1.041
      P     6      S                    1.661
      P     6      Px                   1.104
      P     6      Py                   1.117
      P     6      Pz                   1.130
      P     7      S                    1.661
      P     7      Px                   1.103
      P     7      Py                   1.206
      P     7      Pz                   1.040
      P     8      S                    1.661
      P     8      Px                   1.104
      P     8      Py                   1.116
      P     8      Pz                   1.130
      P     9      S                    1.812
      P     9      Px                   1.121
      P     9      Py                   1.140
      P     9      Pz                   0.946
      P    10      S                    1.812
      P    10      Px                   1.121
      P    10      Py                   0.954
      P    10      Pz                   1.132
      P    11      S                    1.812
      P    11      Px                   1.122
      P    11      Py                   1.141
      P    11      Pz                   0.944
      P    12      S                    1.812
      P    12      Px                   1.122
      P    12      Py                   0.952
      P    12      Pz                   1.132
  -------------------------------------------
                           Total:   
 ***************** Stress Tensor *****************
 *                                               *
 *          Cartesian components (GPa)           *
 * --------------------------------------------- *
 *             x             y             z     *
 *                                               *
 *  x     -8.056052      0.013953      0.010514  *
 *  y      0.013953    -15.208384      9.454518  *
 *  z      0.010514      9.454518    -20.630187  *
 *                                               *
 *  Pressure:   14.6315                          *
 *                                               *
 *************************************************
 
 Pseudo atomic calculation performed for P 3s2 3p3
 
 Converged in 18 iterations to a total energy of -214.2208 eV
Charge spilling parameter for spin component 1 = 2.38%
 
            Orbital Populations       
     Ion    Atom   Orbital             Charge
  -------------------------------------------
      P     1      S                    1.756
      P     1      Px                   1.112
      P     1      Py                   1.001
      P     1      Pz                   1.099
      P     2      S                    1.756
      P     2      Px                   1.112
      P     2      Py                   1.141
      P     2      Pz                   0.959
      P     3      S                    1.757
      P     3      Px                   1.112
      P     3      Py                   1.000
      P     3      Pz        4  -2.62706380E+003  3.42881642E+000   1.07888478E-010    2138.12  <-- SCF
------------------------------------------------------------------------ <-- SCF
 
Final energy, E             =  -2627.057705938     eV
Final free energy (E-TS)    =  -2627.063803406     eV
(energies not corrected for finite basis set)
 
NB est. 0K energy (E-0.5TS)      =  -2627.060754672     eV
 
 For future reference: finite basis dEtot/dlog(Ecut) =      -0.003743eV
 Total energy corrected for finite basis set =   -2627.063803 eV
 
 ************************** Forces **************************
 *                                                          *
 *               Cartesian components (eV/A)                *
 * -------------------------------------------------------- *
 *                         x            y            z      *
 *                                                          *
 * P               1      1.97871     -0.18297      3.46442 *
 * P               2     -1.97870     -3.27977      1.13076 *
 * P               3     -1.98096     -0.18537      3.47092 *
 * P               4      1.98096     -3.28536      1.13486 *
 * P               5     -0.15769     -0.63851     -2.71415 *
 * P               6      0.15770      2.78495     -0.13429 *
 * P               7      0.15508     -0.62374     -2.70735 *
 * P               8     -0.15509      2.77434     -0.14662 *
 * P               9     -0.57942      1.90535      0.07091 *
 * P              10      0.57941     -0.59329     -1.81201 *
 * P              11      0.58593      1.89686      0.05169 *
 * P              12     -0.58591     -0.57248     -1.80914 *
 *                                                          *
 ************************************************************
 
 ***************** Stress Tensor *****************
 *                                               *
 *          Cartesian components (GPa)           *
 * --------------------------------------------- *
 *             x             y             z     *
 *                                               *
 *  x     -8.056052      0.013955      0.010515  *
 *  y      0.013955    -15.208383      9.454519  *
 *  z      0.010515      9.454519    -20.630187  *
 *                                               *
 *  Pressure:   14.6315                          *
 *                                               *
 *************************************************
 
 Pseudo atomic calculation performed for P 3s2 3p3
 
 Converged in 18 iterations to a total energy of -214.2208 eV
Charge spilling parameter for spin component 1 = 2.38%
 
            Orbital Populations       
     Ion    Atom   Orbital             Charge
  -------------------------------------------
      P     1      S                    1.756
      P     1      Px                   1.112
      P     1      Py                   1.001
      P     1      Pz                   1.099
      P     2      S                    1.756
      P     2      Px                   1.112
      P     2      Py                   1.141
      P     2      Pz                   0.959
      P     3      S                    1.756
      P     3      Px                   1.112
      P     3      Py                   1.001
      P     3      Pz                   1.100
      P     4      S                    1.756
      P     4      Px                   1.112
      P     4      Py                   1.141
      P     4      Pz                   0.959
      P     5      S                    1.661
      P     5      Px                   1.104
      P     5      Py                   1.206
      P     5      Pz                   1.041
      P     6      S                    1.661
      P     6      Px                   1.103
      P     6      Py                   1.118
      P     6      Pz                   1.130
      P     7      S                    1.661
      P     7      Px                   1.103
      P     7      Py                   1.206
      P     7      Pz                   1.040
      P     8      S                    1.661
      P     8      Px                   1.103
      P     8      Py                   1.116
      P     8      Pz                   1.130
      P     9      S                    1.812
      P     9      Px                   1.121
      P     9      Py                   1.140
      P     9      Pz                   0.946
      P    10      S                    1.812
      P    10      Px                   1.121
      P    10      Py                   0.954
      P    10      Pz                   1.132
      P    11      S                    1.812
      P    11      Px                   1.121
      P    11      Py                   1.141
      P    11      Pz                   0.944
      P    12      S                    1.812
      P    12      Px                   1.121
      P    12      Py                   0.952
      P    12      Pz                   1.133
  -------------------------------------------
                           Total:      59.992
  -------------------------------------------
 
     Atomic Populations (Mulliken)
     -----------------------------
Species          Ion     s      p      d      f     Total  Charge (e)
=====================================================================
  P               1     1.76   3.21   0.00   0.00   4.97     0.03
  P               2     1.76   3.21   0.00   0.00   4.97     0.03
  P               3     1.76   3.21   0.00   0.00   4.97     0.03
  P               4     1.76   3.21   0.00   0.00   4.97     0.03
  P               5     1.66   3.35   0.00   0.00   5.01    -0.01
  P               6     1.66   3.35   0.00   0.00   5.01    -0.01
  P               7     1.66   3.35   0.00   0.00   5.01    -0.01
  P               8     1.66   3.35   0.00   0.00   5.01    -0.01
  P               9     1.81   3.21   0.00   0.00   5.02    -0.02
  P              10     1.81   3.21   0.00   0.00   5.02    -0.02
  P              11     1.81   3.21   0.00   0.00   5.02    -0.02
  P              12     1.81   3.21   0.00   0.00   5.02    -0.02
=====================================================================
 
                 Bond                   Population      Length (A)
======================================================================
              P 3  -- P 7                    0.31        2.00552
              P 1  -- P 5                    0.31        2.00552
              P 4  -- P 8                    0.31        2.00552
              P 2  -- P 6                    0.31        2.00552
              P 6  -- P 12                   0.32        2.05350
              P 8  -- P 10                   0.32        2.05350
              P 7  -- P 9                    0.32        2.05350
              P 5  -- P 11                   0.32        2.05350
              P 2  -- P 4                    0.27        2.13372
              P 1  -- P 3                    0.27        2.13372
              P 4  -- P 9                    0.33        2.19010
              P 2  -- P 11                   0.33        2.19010
              P 3  -- P 10                   0.33        2.19010
              P 1  -- P 12                   0.33        2.19010
              P 6  -- P 8                    0.26        2.23625
              P 5  -- P 7                    0.26        2.23625
              P 10 -- P 12                   0.08        2.48704
              P 9  -- P 11                   0.08        2.48704
              P 7  -- P 10                  -0.26        2.69250
              P 5  -- P 12                  -0.25        2.69250
              P 8  -- P 9                   -0.25        2.69250
              P 6  -- P 11                  -0.25        2.69250
              P 2  -- P 5                   -0.25        2.74993
              P 4  -- P 7                   -0.26        2.74993
              P 1  -- P 6                   -0.26        2.74993
              P 3  -- P 8                   -0.26        2.74993
              P 3  -- P 5                   -0.39        2.96541
              P 1  -- P 7                   -0.39        2.96541
              P 2  -- P 8                   -0.39        2.96541
              P 4  -- P 6                   -0.39        2.96541
======================================================================
 

Writing analysis data to 0_0.castep_bin

Writing model to 0_0.check
 
 A BibTeX formatted list of references used in this run has been written to 
 0_0.bib
 
Initialisation time =    412.07 s
Calculation time    =   1787.67 s
Finalisation time   =      2.56 s
Total time          =   2202.30 s
Peak Memory Use     = 1755880 kB
     1.812
      P    12      Px                   1.121
      P    12      Py                   0.952
      P    12      Pz                   1.133
  -------------------------------------------
                           Total:      59.992
  -------------------------------------------
 
     Atomic Populations (Mulliken)
     -----------------------------
Species          Ion     s      p      d      f     Total  Charge (e)
=====================================================================
  P               1     1.76   3.21   0.00   0.00   4.97     0.03
  P               2     1.76   3.21   0.00   0.00   4.97     0.03
  P               3     1.76   3.21   0.00   0.00   4.97     0.03
  P               4     1.76   3.21   0.00   0.00   4.97     0.03
  P               5     1.66   3.35   0.00   0.00   5.01    -0.01
  P               6     1.66   3.35   0.00   0.00   5.01    -0.01
  P               7     1.66   3.35   0.00   0.00   5.01    -0.01
  P               8     1.66   3.35   0.00   0.00   5.01    -0.01
  P               9     1.81   3.21   0.00   0.00   5.02    -0.02
  P              10     1.81   3.21   0.00   0.00   5.02    -0.02
  P              11     1.81   3.21   0.00   0.00   5.02    -0.02
  P              12     1.81   3.21   0.00   0.00   5.02    -0.02
=====================================================================
 
                 Bond                   Population      Length (A)
======================================================================
              P 3  -- P 7                    0.31        2.00552
              P 1  -- P 5                    0.31        2.00552
              P 4  -- P 8                    0.31        2.00552
              P 2  -- P 6                    0.31        2.00552
              P 6  -- P 12                   0.32        2.05350
              P 8  -- P 10                   0.32        2.05350
              P 7  -- P 9                    0.32        2.05350
              P 5  -- P 11                   0.32        2.05350
              P 2  -- P 4                    0.27        2.13372
              P 1  -- P 3                    0.27        2.13372
              P 4  -- P 9                    0.33        2.19010
              P 2  -- P 11                   0.33        2.19010
              P 3  -- P 10                   0.33        2.19010
              P 1  -- P 12                   0.33        2.19010
              P 6  -- P 8                    0.26        2.23625
              P 5  -- P 7                    0.26        2.23625
              P 10 -- P 12                   0.08        2.48704
              P 9  -- P 11                   0.08        2.48704
              P 7  -- P 10                  -0.26        2.69250
              P 5  -- P 12                  -0.25        2.69250
              P 8  -- P 9                   -0.26        2.69250
              P 6  -- P 11                  -0.25        2.69250
              P 2  -- P 5                   -0.26        2.74993
              P 4  -- P 7                   -0.26        2.74993
              P 1  -- P 6                   -0.25        2.74993
              P 3  -- P 8                   -0.26        2.74993
              P 3  -- P 5                   -0.39        2.96541
              P 1  -- P 7                   -0.39        2.96541
              P 2  -- P 8                   -0.39        2.96541
              P 4  -- P 6                   -0.39        2.96541
======================================================================
 

Writing analysis data to 0_0.castep_bin

Writing model to 0_0.check
 
 A BibTeX formatted list of references used in this run has been written to 
 0_0.bib
 
Initialisation time =     16.47 s
Calculation time    =   2173.79 s
Finalisation time   =      2.60 s
Total time          =   2192.86 s
Peak Memory Use     = 1753320 kB
   3.21   0.00   0.00   4.97     0.03
  P               3     1.76   3.21   0.00   0.00   4.97     0.03
  P               4     1.76   3.21   0.00   0.00   4.97     0.03
  P               5     1.66   3.35   0.00   0.00   5.01    -0.01
  P               6     1.66   3.35   0.00   0.00   5.01    -0.01
  P               7     1.66   3.35   0.00   0.00   5.01    -0.01
  P               8     1.66   3.35   0.00   0.00   5.01    -0.01
  P               9     1.81   3.21   0.00   0.00   5.02    -0.02
  P              10     1.81   3.21   0.00   0.00   5.02    -0.02
  P              11     1.81   3.21   0.00   0.00   5.02    -0.02
  P              12     1.81   3.21   0.00   0.00   5.02    -0.02
=====================================================================
 
                 Bond                   Population      Length (A)
======================================================================
              P 3  -- P 7                    0.31        2.00552
              P 1  -- P 5                    0.31        2.00552
              P 4  -- P 8                    0.31        2.00552
              P 2  -- P 6                    0.31        2.00552
              P 6  -- P 12                   0.32        2.05350
              P 8  -- P 10                   0.32        2.05350
              P 7  -- P 9                    0.32        2.05350
              P 5  -- P 11                   0.32        2.05350
              P 2  -- P 4                    0.27        2.13372
              P 1  -- P 3                    0.27        2.13372
              P 4  -- P 9                    0.33        2.19010
              P 2  -- P 11                   0.33        2.19010
              P 3  -- P 10                   0.33        2.19010
              P 1  -- P 12                   0.33        2.19010
              P 6  -- P 8                    0.26        2.23625
              P 5  -- P 7                    0.26        2.23625
              P 10 -- P 12                   0.08        2.48704
              P 9  -- P 11                   0.08        2.48704
              P 7  -- P 10                  -0.25        2.69250
              P 5  -- P 12                  -0.25        2.69250
              P 8  -- P 9                   -0.26        2.69250
              P 6  -- P 11                  -0.25        2.69250
              P 2  -- P 5                   -0.26        2.74993
              P 4  -- P 7                   -0.26        2.74993
              P 1  -- P 6                   -0.25        2.74993
              P 3  -- P 8                   -0.26        2.74993
              P 3  -- P 5                   -0.39        2.96541
              P 1  -- P 7                   -0.39        2.96541
              P 2  -- P 8                   -0.39        2.96541
              P 4  -- P 6                   -0.39        2.96541
======================================================================
 

Writing analysis data to 0_0.castep_bin

Writing model to 0_0.check
 
 A BibTeX formatted list of references used in this run has been written to 
 0_0.bib
 
Initialisation time =    396.51 s
Calculation time    =   1745.17 s
Finalisation time   =      2.82 s
Total time          =   2144.50 s
Peak Memory Use     = 1754692 kB
   3.21   0.00   0.00   4.97     0.03
  P               3     1.76   3.21   0.00   0.00   4.97     0.03
  P               4     1.76   3.21   0.00   0.00   4.97     0.03
  P               5     1.66   3.35   0.00   0.00   5.01    -0.01
  P               6     1.66   3.35   0.00   0.00   5.01    -0.01
  P               7     1.66   3.35   0.00   0.00   5.01    -0.01
  P               8     1.66   3.35   0.00   0.00   5.01    -0.01
  P               9     1.81   3.21   0.00   0.00   5.02    -0.02
  P              10     1.81   3.21   0.00   0.00   5.02    -0.02
  P              11     1.81   3.21   0.00   0.00   5.02    -0.02
  P              12     1.81   3.20   0.00   0.00   5.02    -0.02
=====================================================================
 
                 Bond                   Population      Length (A)
======================================================================
              P 3  -- P 7                    0.31        2.00552
              P 1  -- P 5                    0.31        2.00552
              P 4  -- P 8                    0.31        2.00552
              P 2  -- P 6                    0.31        2.00552
              P 6  -- P 12                   0.32        2.05350
              P 8  -- P 10                   0.32        2.05350
              P 7  -- P 9                    0.32        2.05350
              P 5  -- P 11                   0.32        2.05350
              P 2  -- P 4                    0.27        2.13372
              P 1  -- P 3                    0.27        2.13372
              P 4  -- P 9                    0.33        2.19010
              P 2  -- P 11                   0.33        2.19010
              P 3  -- P 10                   0.33        2.19010
              P 1  -- P 12                   0.33        2.19010
              P 6  -- P 8                    0.26        2.23625
              P 5  -- P 7                    0.26        2.23625
              P 10 -- P 12                   0.08        2.48704
              P 9  -- P 11                   0.08        2.48704
              P 7  -- P 10                  -0.26        2.69250
              P 5  -- P 12                  -0.25        2.69250
              P 8  -- P 9                   -0.25        2.69250
              P 6  -- P 11                  -0.25        2.69250
              P 2  -- P 5                   -0.25        2.74993
              P 4  -- P 7                   -0.26        2.74993
              P 1  -- P 6                   -0.26        2.74993
              P 3  -- P 8                   -0.26        2.74993
              P 3  -- P 5                   -0.39        2.96541
              P 1  -- P 7                   -0.39        2.96541
              P 2  -- P 8                   -0.39        2.96541
              P 4  -- P 6                   -0.39        2.96541
====================================== 
 ***************** Stress Tensor *****************
 *                                               *
 *          Cartesian components (GPa)           *
 * --------------------------------------------- *
 *             x             y             z     *
 *                                               *
 *  x     -8.056052      0.013953      0.010514  *
 *  y      0.013953    -15.208380      9.454517  *
 *  z      0.010514      9.454517    -20.630190  *
 *                                               *
 *  Pressure:   14.6315                          *
 *                                               *
 *************************************************
 
 Pseudo atomic calculation performed for P 3s2 3p3
 
 Converged in 18 iterations to a total energy of -214.2208 eV
Charge spilling parameter for spin component 1 = 2.38%
 
            Orbital Populations       
     Ion    Atom   Orbital             Charge
  -------------------------------------------
      P     1      S                    1.756
      P     1      Px                   1.112
      P     1      Py                   1.002
      P     1      Pz                   1.099
      P     2      S                    1.756
      P     2      Px                   1.112
      P     2      Py                   1.141
      P     2      Pz                   0.959
      P     3      S                    1.756
      P     3      Px                   1.112
      P     3      Py                   1.000
      P     3      Pz                   1.099
      P     4      S                    1.756
      P     4      Px                   1.112
      P     4      Py                   1.141
      P     4      Pz                   0.959
      P     5      S                    1.661
      P     5      Px                   1.104
      P     5      Py                   1.206
      P     5      Pz                   1.041
      P     6      S                    1.661
      P     6      Px                   1.104
      P     6      Py                   1.118
      P     6      Pz                   1.130
      P     7      S                    1.661
      P     7      Px                   1.104
      P     7      Py                   1.206
      P     7      Pz                   1.040
      P     8      S                    1.661
      P     8      Px                   1.103
      P     8      Py                   1.116
      P     8      Pz                   1.131
      P     9      S                    1.812
      P     9      Px                   1.121
      P     9      Py                   1.141
      P     9      Pz                   0.946
      P    10      S                    1.812
      P    10      Px                   1.121
      P    10      Py                   0.954
      P    10      Pz                   1.132
      P    11      S                    1.812
      P    11      Px                   1.122
      P    11      Py                   1.140
      P    11      Pz                   0.944
      P    12      S                    1.812
      P    12      Px                   1.122
      P    12      Py                   0.952
      P    12      Pz                   1.133
  -------------------------------------------
                           Total:      59.992
  -------------------------------------------
 
     Atomic Populations (Mulliken)
     -----------------------------
Species          Ion     s      p      d      f     Total  Charge (e)
=====================================================================
  P               1     1.76   3.21   0.00   0.00   4.97     0.03
  P               2     1.76   3.21   0.00   0.00   4.97     0.03
  P               3     1.76   3.21   0.00   0.00   4.97     0.03
  P               4     1.76   3.21   0.00   0.00   4.97     0.03
  P               5     1.66   3.35   0.00   0.00   5.01    -0.01
  P               6     1.66   3.35   0.00   0.00   5.01    -0.01
  P               7     1.66   3.35   0.00   0.00   5.01    -0.01
  P               8     1.66   3.35   0.00   0.00   5.01    -0.01
  P               9     1.81   3.21   0.00   0.00   5.02    -0.02
  P              10     1.81   3.21   0.00   0.00   5.02    -0.02
  P              11     1.81   3.21   0.00   0.00   5.02    -0.02
  P              12     1.81   3.21   0.00   0.00   5.02    -0.02
=====================================================================
 
                 Bond                   Population      Length (A)
======================================================================
              P 3  -- P 7                    0.31        2.00552
              P 1  -- P 5                    0.31        2.00552
              P 4  -- P 8                    0.31        2.00552
              P 2  -- P 6                    0.31        2.00552
              P 6  -- P 12                   0.32        2.05350
              P 8  -- P 10                   0.32        2.05350
              P 7  -- P 9                    0.32        2.05350
              P 5  -- P 11                   0.32        2.05350
              P 2  -- P 4                    0.27        2.13372
              P 1  -- P 3                    0.27        2.13372
              P 4  -- P 9                    0.33        2.19010
              P 2  -- P 11                   0.33        2.19010
              P 3  -- P 10                   0.33        2.19010
              P 1  -- P 12                   0.33        2.19010
              P 6  -- P 8                    0.26        2.23625
              P 5  -- P 7                    0.26        2.23625
              P 10 -- P 12                   0.08        2.48704
              P 9  -- P 11                   0.08        2.48704
              P 7  -- P 10                  -0.25        2.69250
              P 5  -- P 12                  -0.25        2.69250
              P 8  -- P 9                   -0.25        2.69250
              P 6  -- P 11                  -0.25        2.69250
              P 2  -- P 5                   -0.26        2.74993
              P 4  -- P 7                   -0.26        2.74993
              P 1  -- P 6                   -0.26        2.74993
              P 3  -- P 8                   -0.26        2.74993
              P 3  -- P 5                   -0.39        2.96541
              P 1  -- P 7                   -0.39        2.96541
              P 2  -- P 8                   -0.39        2.96541
              P 4  -- P 6                   -0.39        2.96541
======================================================================
 

Writing analysis data to 0_0.castep_bin

Writing model to 0_0.check
 
 A BibTeX formatted list of references used in this run has been written to 
 0_0.bib
 
Initialisation time =    408.17 s
Calculation time    =   1765.04 s
Finalisation time   =      4.08 s
Total time          =   2177.29 s
Peak Memory Use     = 1759132 kB
y      0.013954    -15.208384      9.454519  *
 *  z      0.010515      9.454519    -20.630186  *
 *                                               *
 *  Pressure:   14.6315                          *
 *                                               *
 *************************************************
 
 Pseudo atomic calculation performed for P 3s2 3p3
 
 Converged in 18 iterations to a total energy of -214.2208 eV
Charge spilling parameter for spin component 1 = 2.38%
 
            Orbital Populations       
     Ion    Atom   Orbital             Charge
  -------------------------------------------
      P     1      S                    1.756
      P     1      Px                   1.112
      P     1      Py                   1.001
      P     1      Pz                   1.099
      P     2      S                    1.756
      P     2      Px                   1.113
      P     2      Py                   1.141
      P     2      Pz                   0.959
      P     3      S                    1.756
      P     3      Px                   1.113
      P     3      Py                   1.001
      P     3      Pz                   1.100
      P     4      S                    1.756
      P     4      Px                   1.112
      P     4      Py                   1.141
      P     4      Pz                   0.959
      P     5      S                    1.661
      P     5      Px                   1.104
      P     5      Py                   1.206
      P     5      Pz                   1.041
      P     6      S                    1.661
      P     6      Px                   1.103
      P     6      Py                   1.117
      P     6      Pz                   1.129
      P     7      S                    1.661
      P     7      Px                   1.103
      P     7      Py                   1.206
      P     7      Pz                   1.040
      P     8      S                    1.661
      P     8      Px                   1.104
      P     8      Py                   1.116
      P     8      Pz                   1.130
      P     9      S                    1.812
      P     9      Px                   1.121
      P     9      Py                   1.140
      P     9      Pz                   0.946
      P    10      S                    1.812
      P    10      Px                   1.121
      P    10      Py                   0.954
      P    10      Pz                   1.132
      P    11      S                    1.812
      P    11      Px                   1.121
      P    11      Py                   1.141
      P    11      Pz                   0.944
      P    12      S                    1.812
      P    12      Px                   1.121
      P    12      Py                   0.952
      P    12      Pz                   1.132
  -------------------------------------------
                           Total:      59.992
  -------------------------------------------
 
     Atomic Populations (Mulliken)
     -----------------------------
Species          Ion     s      p      d      f     Total  Charge (e)
=====================================================================
  P               1     1.76   3.21   0.00   0.00   4.97     0.03
  P               2     1.76   3.21   0.00   0.00   4.97     0.03
  P               3     1.76   3.21   0.00   0.00   4.97     0.03
  P               4     1.76   3.21   0.00   0.00   4.97     0.03
  P               5     1.66   3.35   0.00   0.00   5.01    -0.01
  P               6     1.66   3.35   0.00   0.00   5.01    -0.01
  P               7     1.66   3.35   0.00   0.00   5.01    -0.01
  P               8     1.66   3.35   0.00   0.00   5.01    -0.01
  P               9     1.81   3.21   0.00   0.00   5.02    -0.02
  P              10     1.81   3.21   0.00   0.00   5.02    -0.02
  P              11     1.81   3.21   0.00   0.00   5.02    -0.02
  P              12     1.81   3.21   0.00   0.00   5.02    -0.02
=====================================================================
 
                 Bond                   Population      Length (A)
======================================================================
              P 3  -- P 7                    0.31        2.00552
              P 1  -- P 5                    0.31        2.00552
              P 4  -- P 8                    0.31        2.00552
              P 2  -- P 6                    0.31        2.00552
              P 6  -- P 12                   0.32        2.05350
              P 8  -- P 10                   0.32        2.05350
              P 7  -- P 9                    0.32        2.05350
              P 5  -- P 11                   0.32        2.05350
              P 2  -- P 4                    0.27        2.13372
              P 1  -- P 3                    0.27        2.13372
              P 4  -- P 9                    0.33        2.19010
              P 2  -- P 11                   0.33        2.19010
              P 3  -- P 10                   0.33        2.19010
              P 1  -- P 12                   0.33        2.19010
              P 6  -- P 8                    0.26        2.23625
              P 5  -- P 7                    0.26        2.23625
              P 10 -- P 12                   0.08        2.48704
              P 9  -- P 11                   0.08        2.48704
              P 7  -- P 10                  -0.26        2.69250
              P 5  -- P 12                  -0.25        2.69250
              P 8  -- P 9                   -0.25        2.69250
              P 6  -- P 11                  -0.25        2.69250
              P 2  -- P 5                   -0.25        2.74993
              P 4  -- P 7                   -0.26        2.74993
              P 1  -- P 6                   -0.26        2.74993
              P 3  -- P 8                   -0.26        2.74993
              P 3  -- P 5                   -0.39        2.96541
              P 1  -- P 7                   -0.39        2.96541
              P 2  -- P 8                   -0.39        2.96541
              P 4  -- P 6                   -0.39        2.96541
======================================================================
 

Writing analysis data to 0_0.castep_bin

Writing model to 0_0.check
 
 A BibTeX formatted list of references used in this run has been written to 
 0_0.bib
 
Initialisation time =    371.44 s
Calculation time    =   1695.80 s
Finalisation time   =      2.66 s
Total time          =   2069.90 s
Peak Memory Use     = 1749940 kB
