 +-------------------------------------------------+
 +-------------------------------------------------+
 |                                                 |
 |      CCC   AA    SSS  TTTTT  EEEEE  PPPP        |
 |     C     A  A  S       T    E      P   P       |
 |     C     AAAA   SS     T    EEE    PPPP        |
 |     C     A  A     S    T    E      P           |
 |      CCC  A  A  SSS     T    EEEEE  P           |
 |                                                 |
 +-------------------------------------------------+
 |                                                 |
 | Welcome to Academic Release CASTEP version 20.1 |          
 | Ab Initio Total Energy Program                  |
 |                                                 |
 | Authors:                                        |
 | M. Segall, M. Probert, C. Pickard, P. Hasnip,   |
 | S. Clark, K. Refson, J. R. Yates, M. Payne      |
 |                                                 |
 | Contributors:                                   |
 | P. Lindan, P. Haynes, J. White, V. Milman,      |
 | N. Govind, M. Gibson, P. Tulip, V. Cocula,      |
 | B. Montanari, D. Quigley, M. Glover,            |
 | L. Bernasconi, A. Perlov, M. Plummer,           |
 | E. McNellis, J. Meyer, J. Gale, D. Jochym       |
 | J. Aarons, B. Walker, R. Gillen, D. Jones       |
 | T. Green, I. J. Bush, C. J. Armstrong,          |
 | E. J. Higgins, E. L. Brown, M. S. McFly,        |
 | J. Wilkins, B-C. Shih, P. J. P. Byrne,          |
 | R. J. Maurer, J. C. Womack, A. Bartok-Partay    |
 |                                                 |
 | Copyright (c) 2000 - 2019                       |
 |                                                 |
 |     Distributed under the terms of an           |
 |     Agreement between the United Kingdom        |
 |     Car-Parrinello (UKCP) Consortium,           |
 |     Daresbury Laboratory and Accelrys, Inc.     |
 |                                                 |
 | Please cite                                     |
 |                                                 |
 |     "First principles methods using CASTEP"     |
 |                                                 |
 |         Zeitschrift fuer Kristallographie       |
 |           220(5-6) pp. 567-570 (2005)           |
 |                                                 |
 | S. J. Clark, M. D. Segall, C. J. Pickard,       |
 | P. J. Hasnip, M. J. Probert, K. Refson,         |
 | M. C. Payne                                     |
 |                                                 |
 |       in all publications arising from          |
 |              your use of CASTEP                 |
 |                                                 |
 +-------------------------------------------------+
 |                                                 |
 |              http://www.castep.org              |
 |                                                 |
 +-------------------------------------------------+
 
 
 
 Compiled for linux_x86_64_ifort17 on Sat, 19 Jun 2021 13:35:23 +0100
 from code version 5dacc5c3c63b+  Mon, 10 Jun 2019 22:27:09 +0100
 Compiler: ; Optimisation: fast
 MATHLIBS: Intel MKL(2019.0.1) (LAPACK version 3.7.0)
 FFT Lib : mkl
 Fundamental constants values: CODATA  
 Pseudo atomic calculation performed for P 3s2 3p3
 
 Pseudo atomic calculation performed for P 3s2 3p3
 
 Converge Calculation not parallelised.

 ******************** Calculation not parallelised.

 ************************************ Title ************************************
 

 ***************************** General Parameters ******************************
  
 output verbosity                               : normal  (1)
 write checkpoint data to                       : 1_0.check
 type of calculation                            : single point energy
 stress calculation                             : on
 density difference calculation                 : off
 electron localisation func (ELF) calculation   : off
 Hirshfeld analysis                             : off
 molecular orbital projected DOS                : off
 deltaSCF calculation                           : off
 unlimited duration calculation
 timing information                             : on
 memory usage estimate                          : on
 write extra output files                       : on
 write final potential to formatted file        : off
 write final density to formatted file          : off
 write BibTeX reference list                    : on
 write OTFG pseudopotential files               : on
 write electrostatic potential file             : on
 write bands file                               : on
 checkpoint writing                             : both castep_bin and check files
  
 output         length unit                     : A
 output           mass unit                     : amu
 output           time unit                     : ps
 output         charge unit                     : e
 output           spin unit                     : hbar/2
 output         energy unit                     : eV
 output          force unit                     : eV/A
 output       velocity unit                     : A/ps
 output       pressure unit                     : GPa
 output     inv_length unit                     : 1/A
 output      frequency unit                     : cm-1
 output force constant unit                     : eV/A**2
 output         volume unit                     : A**3
 output   IR intensity unit                     : (D/A)**2/amu
 output         dipole unit                     : D
 output         efield unit                     : eV/A/e
 output        entropy unit                     : J/mol/K
  
 wavefunctions paging                           : none
 random number generator seed                   : randomised (113434612)
 data distribution                              : optimal for this architecture
 optimization strategy                          : maximize speed(+++)

 *********************** Exchange-Correlation Parameters ***********************
  
 using functional                               : Perdew Burke Ernzerhof
 relativistic treatment                         : Koelling-Harmon
 DFT+D: Semi-empirical dispersion correction    : off

 ************************* Pseudopotential Parameters **************************
  
 pseudopotential representation                 : reciprocal space
 <beta|phi> representation                      : reciprocal space
 spin-orbit coupling                            : off

 **************************** Basis Set Parameters *****************************
  
 plane wave basis set cut-off                   :   500.0000   eV
 size of standard grid                          :     1.7500
 size of   fine   gmax                          :    20.0476   1/A
 finite basis set correction                    : automatic
 number of sample energies                      :          3
           sample  spacing                      :     5.0000   eV

 **************************** Electronic Parameters ****************************
  
 number of  electrons                           :  210.0    
 net charge of system                           :  0.000    
 treating system as non-spin-polarized
 number of bands                                :        315

 ********************* Electronic Minimization Parameters **********************
  
 Method: Treating system as metallic with density mixing treatment of electrons,
         and number of  SD  steps               :          1
         and number of  CG  steps               :          4
  
 total energy / atom convergence tol.           : 0.1000E-05   eV
 eigen-energy convergence tolerance             : 0.1333E-06   eV
 max force / atom convergence tol.              : ignored
 convergence tolerance window                   :          3   cycles
 max. number of SCF cycles                      :        250
 number of fixed-spin iterations                :         10
 smearing scheme                                : Gaussian
 smearing width                                 : 0.5000E-01   eV
 Fermi energy convergence tolerance             : 0.2721E-13   eV
 periodic dipole correction                     : NONE

 ************************** Density Mixing Parameters **************************
  
 density-mixing scheme                          : Pulay
 max. length of mixing history                  :         20
 charge density mixing amplitude                : 0.8000    
 cut-off energy for mixing                      :  500.0       eV

 *********************** Population Analysis Parameters ************************
  
 Population analysis with cutoff                :  3.000       A
 Population analysis output                     : summary and pdos components

 *******************************************************************************
  
 
                           -------------------------------
                                      Unit Cell
                           -------------------------------
        Real Lattice(A)                      Reciprocal Lattice(1/A)
     9.5431200     0.0000000     0.0000000        0.658399486   0.380127137   0.000000000
    -4.7715600     8.2645840     0.0000000        0.000000000   0.760254274   0.000000000
     0.0000000     0.0000000    11.1920600        0.000000000   0.000000000   0.561396678
 
                       Lattice parameters(A)       Cell Angles
                    a =      9.543120          alpha =   90.000000
                    b =      9.543120          beta  =   90.000000
                    c =     11.192060          gamma =  120.000001
 
                       Current cell volume =           882.716842       A**3
                                   density =             1.473743   AMU/A**3
                                           =             2.447208     g/cm^3
 
                           -------------------------------
                                      Calculation not parallelised.

 ************************************ Title ************************************
 

 ***************************** General Parameters ******************************
  
 output verbosity                               : normal  (1)
 write checkpoint data to                       : 1_0.check
 type of calculation                            : single point energy
 stress calculation                             : on
 density difference calculation                 : off
 electron localisation func (ELF) calculation   : off
 Hirshfeld analysis                             : off
 molecular orbital projected DOS                : off
 deltaSCF calculation                           : off
 unlimited duration calculation
 timing information                             : on
 memory usage estimate                          : on
 write extra output files                       : on
 write final potential to formatted file        : off
 write final density to formatted file          : off
 write BibTeX reference list                    : on
 write OTFG pseudopotential files               : on
 write electrostatic potential file             : on
 write bands file                               : on
 checkpoint writing                             : both castep_bin and check files
  
 output         length unit                     : A
 output           mass unit                     : amu
 output           time unit                     : ps
 output         charge unit                     : e
 output           spin unit                     : hbar/2
 output         energy unit                     : eV
 output          force unit                     : eV/A
 output       velocity unit                     : A/ps
 output       pressure unit                     : GPa
 output     inv_length unit                     : 1/A
 output      frequency unit                     : cm-1
 output force constant unit                     : eV/A**2
 output         volume unit                     : A**3
 output   IR intensity unit                     : (D/A)**2/amu
 output         dipole unit                     : D
 output         efield unit                     : eV/A/e
 output        entropy unit                     : J/mol/K
  
 wavefunctions paging                           : none
 random number generator seed                   : randomised (113434679)
 data distribution                              : optimal for this architecture
 optimization strategy                          : maximize speed(+++)

 *********************** Exchange-Correlation Parameters ***********************
  
 using functional                               : Perdew Burke Ernzerhof
 relativistic treatment                         : Koelling-Harmon
 DFT+D: Semi-empirical dispersion correction    : off

 ************************* Pseudopotential Parameters **************************
  
 pseudopotential representation                 : reciprocal space
 <beta|phi> representation                      : reciprocal space
 spin-orbit coupling                            : off

 **************************** Basis Set Parameters *****************************
  
 plane wave basis set cut-off                   :   500.0000   eV
 size of standard grid                          :     1.7500
 size of   fine   gmax                          :    20.0476   1/A
 finite basis set correction                    : automatic
 number of sample energies                      :          3
           sample  spacing                      :     5.0000   eV

 **************************** Electronic Parameters ****************************
  
 number of  electrons                           :  210.0    
 net charge of system                           :  0.000    
 treating system as non-spin-polarized
 number of bands                                :        315

 ********************* Electronic Minimization Parameters **********************
  
 Method: Treating system as metallic with density mixing treatment of electrons,
         and number of  SD  steps               :          1
         and number of  CG  steps               :          4
  
 total energy / atom convergence tol.           : 0.1000E-05   eV
 eigen-energy convergence tolerance             : 0.1333E-06   eV
 max force / atom convergence tol.              : ignored
 convergence tolerance window                   :          3   cycles
 max. number of SCF cycles                      :        250
 number of fixed-spin iterations                :         10
 smearing scheme                                : Gaussian
 smearing width                                 : 0.5000E-01   eV
 Fermi energy convergence tolerance             : 0.2721E-13   eV
 periodic dipole correction                     : NONE

 ************************** Density Mixing Parameters **************************
  
 density-mixing scheme                          : Pulay
 max. length of mixing history                  :         20
 charge density mixing amplitude                : 0.8000    
 cut-off energy for mixing                      :  500.0       eV

 *********************** Population Analysis Parameters ************************
  
 Population analysis with cutoff                :  3.000       A
 Population analysis output                     : summary and pdos components

 *******************************************************************************
  
 
                           -------------------------------
                                      Unit Cell
                           -------------------------------
        Real Lattice(A)                      Reciprocal Lattice(1/A)
     9.5431200     0.0000000     0.0000000        0.658399486   0.380127137   0.000000000
    -4.7715600     8.2645840     0.0000000        0.000000000   0.760254274   0.000000000
     0.0000000     0.0000000    11.1920600        0.000000000   0.000000000   0.561396678
 
                       Lattice parameters(A)       Cell Angles
                    a =      9.543120          alpha =   90.000000
                    b =      9.543120          beta  =   90.000000
                    c =     11.192060          gamma =  120.000001
 
                       Current cell volume =           882.716842       A**3
                                   density =             1.473743   AMU/A**3
                                           =             2.447208     g/cm^3
 
                           -------------------------------
                                     Cell Contents
                           -------------------------------
                         Total number of ions in cell =   42
                      Total number of species in cell =    1
                        Max number of any one species =   42
 
            xxxxxxxxxxxxxxxxxxxxxxxxxxxxxxxxxxxxxxxxxxxxxxxxxxxxxxxxxxxx
            x  Element    Atom        Fractional coor----------------------------------------------------------------------------------------------------------------------------- <-- SCF
SCF loop      Energy           Fermi           Energy gain       Timer   <-- SCF
                               energy          per atom          (sec)   <-- SCF
------------------------------------------------------------------------ <-- SCF
Initial  -1.75943655E+003  0      1  -8.14983469E+003  5.86563693E+000   1.520623      1  -8.14973407E+003  5      2  -9.14637444E+003  3.66273367E+000   2.372713      2  -9.14638763E+003  3      3  -9.17303905E+003  3.62152527E+000   6.348715      3  -9.17303979E+003  3      4  -9.16967883E+003  3.73737461E+000  -8.000535      4  -9.16967294E+003  3      5  -9.16858609E+003  3.98385584E+000  -2.601740      5  -9.16858597E+003  3      6  -9.16766994E+003  3.82767537E+000  -2.181321      6  -9.16767025E+003  3      7  -9.16752100E+003  3.89322947E+000  -3.546292      7  -9.16752095E+003  3      8  -9.16752520E+003  3.90478554E+000   1.000728      8  -9.16752520E+003  3      9  -9.16753132E+003  3.91128865E+000   1.456682      9  -9.16753132E+003  3     10  -9.16753102E+003  3.91288075E+000  -7.091392     10  -9.16753102E+003  3.91288075E+000  -7.09139272E-006    4570.18  <-- SCF
98   x 
            x  P           16         0.686266   0.572694   0.905256   x 
            x  P           17         0.886428   0.313734   0.571923   x 
            x  P           18         0.427306   0.113572   0.238589   x 
            x  P           19         0.402020   0.408839   0.432022   x 
            x  P           20         0.006819   0.597980   0.098689   x 
            x  P           21         0.591161   0.993181   0.765355   x 
            x  P           22         0.767203   0.132835   0.882439   x 
            x  P           23         0.365631   0.232797   0.549106   x 
            x  P           24         0.867165   0.634369   0.215773   x 
            x  P           25         0.428038   0.321498   0.275518   x 
            x  P           26         0.893460   0.571962   0.942185   x 
            x  P           27         0.678502   0.106540   0.608851   x 
            x  P           28         0.769840   0.152168   0.437316   x 
            x  P           29         0.382328   0.230160   0.103983   x 
            x  P           30         0.847832   0.617672   0.770649   x 
            x  P           31         0.721467   0.637935   0.083074   x 
            x  P           32         0.916468   0.278533   0.749741   x 
            x  P           33         0.362065   0.083532   0.416408   x 
            x  P           34         0.659475   0.420758   0.214391   x 
            x  P           35         0.761283   0.340525   0.881058   x 
            x  P           36         0.579242   0.238717   0.547725   x 
            x  P           37         0.562494   0.737993   0.708537   x 
            x  P           38         0.175499   0.437506   0.375204   x 
            x  P           39         0.262007   0.824501   0.041871   x 
            x  P           40         0.640661   0.333508   0.382907   x 
            x  P           41         0.692847   0.359340   0.049573   x 
            x  P           42         0.666492   0.307153   0.716240   x 
            xxxxxxxxxxxxxxxxxxxxxxxxxx------------------------------------------------------------------------ <-- SCF
SCF loop      Energy           Fermi           Energy gain       Timer   <-- SCF
                               energy          per atom          (sec)   <-- SCF
------------------------------------------------------------------------ <-- SCF
Initial  -1.76321608E+003  0.00000000E+000                       131.23  <-- SCF
      1  -8.14983469E+003  5.86563693E+000   1.52062348E+002     703.14  <-- SCF
      2  -9.14637444E+003  3.66273367E+000   2.37271370E+001    1103.80  <-- SCF
      3  -9.17304002E+003  3.62152666E+000   6.31408330E-001    1525.79  <-- SCF
      4  -9.16968752E+003  3.73709098E+000  -7.98215001E-002    2094.56  <-- SCF
      5  -9.16858514E+003  3.98382236E+000  -2.62471674E-002    2506.13  <-- SCF
      6  -9.16766993E+003  3.82773056E+000  -2.17907526E-002    2916.57  <-- SCF
      7  -9.16752098E+003  3.89323685E+000  -3.54628046E-003    3327.99  <-- SCF
      8  -9.16752514E+003  3.90480537E+000   9.89055132E-005    3748.61  <-- SCF
      9  -9.16753024E+003  3.91159173E+000   1.21591049E-004    4160.70  <-- SCF
     10  -9.16753173E+003  3.91433133E+000   3.52750300E-005    4580.77  <-- SCF
                    -------------------------------
 
                      Maximum deviation from symmetry =  0.00000         ANG
 
                      Number of symmetry operations   =           1
         There are no ionic constraints specified or generated for this cell
                      Point group of crystal =     1: C1, 1, 1
                      Space group of crystal =   144: P3_1, P 31
 
             Set iprint > 1 for details on symmetry rotations/translations
 
                         Centre of mass is NOT constrained
 
                         Number of cell constraints= 0
                         Cell constraints are:  1 2 3 4 5 6
 
                         External pressure/stress (GPa)
                          0.00000   0.00000   0.00000
                                    0.00000   0.00000
                                              0.00000
  
+---------------- MEMORY AND SCRATCH DISK ESTIMATES PER PROCESS --------------+
|                                                     Memory          Disk    |
| Baseline code, static data and system overhead      536.0 MB         0.0 MB |
| BLAS internal memory storage                          0.0 MB         0.0 MB |
| Model and support data                             2193.7 MB         0.0 MB |
| Electronic energy minimisation requirements        2362.1 MB         0.0 MB |
| Force calculation requirements                       42.8 MB         0.0 MB |
| Stress calculation requirements                      47.3 MB         0.0 MB |
|                                               ----------------------------- |
| A Calculation not parallelised.

 ************************************ Title ************************************
 

 ***************************** General Parameters ******************************
  
 output verbosity                               : normal  (1)
 write checkpoint data to                       : 1_0.check
 type of calculation                            : single point energy
 stress calculation                          ------------------------------------------------------------------------ <-- SCF
SCF loop      Energy           Fermi           Energy gain       Timer   <-- SCF
                               energy          per atom          (sec)   <-- SCF
------------------------------------------------------------------------ <-- SCF
Initial  -1.76387707E+003  0.00000000E+000                       166.96  <-- SCF
      1  -8.15831887E+003  5.87020578E+000   1.52353089E+002     735.31  <-- SCF
      2  -9.14644941E+003  3.67522593E+000   2.35269176E+001    1163.02  <-- SCF
      3  -9.17304061E+003  3.62155548E+000   6.33123832E-001    1607.80  <-- SCF
      4  -9.16967169E+003  3.73738677E+000  -8.01923835E-002    2198.89  <-- SCF
      5  -9.16858577E+003  3.98375425E+000  -2.58551249E-002    2638.64  <-- SCF
      6  -9.16767044E+003  3.82761210E+000  -2.17936667E-002    3075.11  <-- SCF
      7  -9.16752096E+003  3.89321922E+000  -3.55900130E-003    3514.82  <-- SCF
      8  -9.16752514E+003  3.90478462E+000   9.96136009E-005    3968.20  <-- SCF
      9  -9.16753035E+003  3.91155504E+000   1.24107990E-004    4410.95  <-- SCF
 hbar/2
 output         energy unit                     : eV
 output          force unit                     : eV/A
 output       velocity unit                     : A/ps
 output       pressure unit                     : GPa
 output     inv_length unit                     : 1/A
 output      frequency unit                     : cm-1
 output force constant unit                     : eV/A**2
 output         volume unit                     : A**3
 output   IR intensity unit                     : (D/A)**2/amu
 output         dipole unit                     : D
 output         efield unit                     : eV/A/e
 output        entropy unit                     : J/mol/K
  
 wavefunctions paging                           : none
 random number generator seed                   : randomised (113435121)
 data distribution                              : optimal for this architecture
 optimization strategy                          : maximize speed(+++)

 *********************** Exchange-Correlation Parameters ***********************
  
 using functional                               : Perdew Burke Ernzerhof
 relativistic treatment                         : Koelling-Harmon
 DFT+D: Semi-empirical dispersion correction    : off

 ************************* Pseudopotential Parameters **************************
  
 pseudopotential representation                 : reciprocal space
 <beta|phi> representation                      : reciprocal space
 spin-orbit coupling                            : off

 **************************** Basis Set Parameters *****************************
  
 plane wave basis set cut-off                   :   500.0000   eV
 size of standard grid                          :     1.7500
 size of   fine   gmax                          :    20.0476   1/A
 finite basis set correction                    : automatic
 number of sample energies                      :          3
           sample  spacing                      :     5.0000   eV

 **************************** Electronic Parameters ****************************
  
 number of  electrons                           :  210.0    
 net------------------------------------------------------------------------ <-- SCF
SCF loop      Energy           Fermi           Energy gain       Timer   <-- SCF
                               energy          per atom          (sec)   <-- SCF
------------------------------------------------------------------------ <-- SCF
Initial  -1.76344291E+003  0.00000000E+000                       183.53  <-- SCF
      1  -8.15396087E+003  5.86246645E+000   1.521965      1  -8.15678102E+003  5      2  -9.14615958E+003  3.66309196E+000   2.362377      2  -9.14639960E+003  3      3  -9.17303896E+003  3.62158289E+000   6.399851      3  -9.17303973E+003  3      4  -9.16969868E+003  3.73714496E+000  -7.953043      4  -9.16968593E+003  3      5  -9.16858204E+003  3.98371740E+000  -2.658674      5  -9.16858449E+003  3      6  -9.16767098E+003  3.82760082E+000  -2.169187      6  -9.16767037E+003  3      7  -9.16752096E+003  3.89320617E+000  -3.571843      7  -9.16752096E+003  3      8  -9.16752514E+003  3.90481131E+000   9.945365      8  -9.16752514E+003  3      9  -9.16753033E+003  3.91157261E+000   1.235859      9  -9.16753038E+003  3     10  -9.16753180E+003  3.91402532E+000   3.57578705E-005    4595.57  <-- SCF
y
 max. length of mixing history                  :         20
 charge density mixing amplitude                : 0.8000    
 cut-off energy for mixing                      :  500.0       eV

 *********************** Population Analysis Parameters ************************
  
 Population analysis with cutoff                :  3.000       A
 Population analysis output                     : summary and pdos components

 *******************************************************************************
  
 
                           -------------------------------
                                      Unit Cell
                           -------------------------------
        Real Lattice(A)                      Reciprocal Lattice(1/A)
     9.5431200     0.0000000     0.0000000        0.658399486   0.380127137   0.000000000
    -4.7715600     8.2645840     0.0000000        0.000000000   0.760254274   0.000000000
     0.0000000     0.0000000    11.1920600        0.000000000   0.000000000   0.561396678
 
                       Lattice parameters(A)       Cell Angles
                    a =      9.543120          alpha =   90.000000
                    b =      9.543120          beta  =   90.000000
                    c =     11.192060          gamma =  120.000001
 
                       Current cell volume =           882.716842       A**3
                                   density =             1.473743   AMU/A**3
                                           =             2.447208     g/cm^3
 
                           -------------------------------
                                     Cell Contents
                           -------------------------------
                         Total number of ions in cell =   42
                      Total number of species in cell =    1
                        Max number of any one species =   42
 
            xxxxxxxxxxxxxxxxxxxxxxxxxxxxxxxxxxxxxxxxxxxxxxxxxxxxxxxxxxxx
            x  Element    Atom        Fractional coordinates of atom------------------------------------------------------------------------ <-- SCF
SCF loop      Energy           Fermi           Energy gain       Timer   <-- SCF
                               energy          per atom          (sec)   <-- SCF
------------------------------------------------------------------------ <-- SCF
Initial  -1.76053295E+003  0.00000000E+000                       151.36  <-- SCF
      1  -8.14985163E+003  5.96474670E+000   1.52126635E+002     725.98  <-- SCF
      2  -9.14638414E+003  3.67105802E+000   2.37269646E+001    1150.01  <-- SCF
      3  -9.17303859E+003  3.62155909E+000   6.34629805E-001    1597.49  <-- SCF
      4  -9.16968885E+003  3.73718905E+000  -7.97556609E-002    2187.99  <-- SCF
      5  -9.16858402E+003  3.98378377E+000  -2.63055266E-002    2619.03  <-- SCF
      6  -9.16767047E+003  3.82762906E+000  -2.17512227E-002    3055.24  <-- SCF
      7  -9.16752098E+003  3.89319856E+000  -3.55925309E-003    3496.55  <-- SCF
      8  -9.16752519E+003  3.90479805E+000   1.00138747E-004    3940.66  <-- SCF
      9  -9.16753115E+003  3.91134071E+000   1.42044396E-004    4383.99  <-- SCF
  1.23654544E-004    4126.39  <-- SCF
     10  -9.16753180E+003  3.91387456E+000   3.48341971E-005    4541.29  <-- SCF
98   x 
            x  P           16         0.686266   0.572694   0.905256   x 
            x  P           17         0.886428   0.313734   0.571923   x 
            x  P           18         0.427306   0.113572   0.238589   x 
            x  P           19         0.402020   0.408839   0.432022   x 
            x  P           20         0.006819   0.597980   0.098689   x 
            x  P           21         0.591161   0.993181   0.765355   x 
            x  P           22         0.767203   0.132835   0.882439   x 
            x  P           23         0.365631   0.232797   0.549106   x 
            x  P           24         0.867165   0.634369   0.215773   x 
            x  P           25         0.428038   0.321498   0.275518   x 
            x  P           26         0.893460   0.571962   0.942185   x 
            x  P           27         0.678502   0.106540   0.608851   x 
            x  P           28         0.769840   0.152168   0.437316   x 
            x  P           29         0.382328   0.230160   0.103983   x 
            x  P           30         0.847832   0.617672   0.770649   x 
            x  P           31         0.721467   0.637935   0.083074   x 
            x  P           32         0.916468   0.278533   0.749741   x 
            x  P           33         0.362065   0.083532   0.416408   x 
            x  P           34         0.659475   0.420758   0.214391   x 
            x  P           35         0.761283   0.340525   0.881058   x 
            x  P           36         0.579242   0.238717   0.547725   x 
            x  P           37         0.562494   0.737993   0.708537   x 
            x  P           38         0.175499   0.437506   0.375204   x 
            x  P           39         0.262007   0.824501   0.041871   x 
            x  P           40         0.640661   0.333508   0.382907   x 
            x  P           41         0.692847   0.359340   0.049573   x 
            x  P           42         0.666492   0.307153   0.716240   x 
            xxxxxxxxxxxxxxxxxxxxxxxxxx------------------------------------------------------------------------ <-- SCF
SCF loop      Energy           Fermi           Energy gain       Timer   <-- SCF
                               energy          per atom          (sec)   <-- SCF
------------------------------------------------------------------------ <-- SCF
Initial  -1.75963523E+003  0.00000000E+000                       124.37  <-- SCF
      1  -8.15924200E+003  5.95675203E+000   1.52371590E+002     725.15  <-- SCF
      2  -9.14645149E+003  3.66358708E+000   2.35049880E+001    1149.03  <-- SCF
      3  -9.17304035E+003  3.62152265E+000   6.33068015E-001    1593.50  <-- SCF
      4  -9.16970231E+003  3.73700437E+000  -7.94771652E-002    2180.20  <-- SCF
      5  -9.16858268E+003  3.98376998E+000  -2.66579140E-002    2615.47  <-- SCF
      6  -9.16767041E+003  3.82767918E+000  -2.17206024E-002    3051.80  <-- SCF
      7  -9.16752097E+003  3.89321257E+000  -3.55809027E-003    3488.41  <-- SCF
      8  -9.16752514E+003  3.90481783E+000   9.92414877E-005    3937.99  <-- SCF
      9  -9.16753034E+003  3.91157624E+000   1.23771349E-004    4379.73  <-- SCF
-----------------
                               Symmetry and Constraints
                           -------------------------------
 
                      Maximum deviation from symmetry =  0.00000         ANG
 
                      Number of symmetry operations   =           1
         There are no ionic constraints specified or generated for this cell
                      Point group of crystal =     1: C1, 1, 1
                      Space group of crystal =   144: P3_1, P 31
 
             Set iprint > 1 for details on symmetry rotations/translations
 
                         Centre of mass is NOT constrained
 
                         Number of cell constraints= 0
                         Cell constraints are:  1 2 3 4 5 6
 
                         External pressure/stress (GPa)
                          0.00000   0.00000   0.00000
                                    0.00000   0.00000
                                              0.00000
  
+---------------- MEMORY AND SCRATCH DISK ESTIMATES PER PROCESS --------------+
|                                                     Memory          Disk    |
| Baseline code, static data and system overhead      544.0 MB         0.0 MB |
| BLAS internal memory storage                          0.0 MB         0.0 MB |
| Model and support data                             2193.7 MB         0.0 MB |
| Electronic energy minimisation requirements        2362.1 MB         0.0 MB |
| Force calculation requirements                       42.8 MB         0.0 MB |
| Stress calculation requirements                      47.3 MB         0.0 MB |
|                                               ----------------------------- |
| Approx. total storage required per process         5099.8 MB         0.0 MB |
|                                                                             |
| Requirements will fluctuate during execution and may exceed these estimates |
+-----------------------------------------------------------------------------+
Calculating finite basis set correction with  3 cut-off energies.
Calculating total energy with cut-off of  490.000 eV.
------------------------------------------------------------------------ <-- SCF
SCF loop      Energy           Fermi           Energy gain       Timer   <-- SCF
                               energy          per atom          (sec)   <-- SCF
------------------------------------------------------------------------ <-- SCF
Initial  -1.76153674E+003  0.00000000E+000                       192.92  <-- SCF
      1  -8.15337162E+003  5.94991560E+000   1.52186545E+002     762.97  <-- SCF
      2  -9.14661981E+003  3.66865802E+000   2.36487664E+001    1195.05  <-- SCF
      3  -9.17304036E+003  3.62152355E+000   6.29060574E-001    1643.48  <-- SCF
      4  -9.16968934E+003  3.73722634E+000  -7.97861201E-002    2236.96  <-- SCF
      5  -9.16858364E+003  3.98376091E+000  -2.63261369E-002    2677.76  <-- SCF
      6  -9.16767057E+003  3.82762086E+000  -2.17398901E-002    3116.23  <-- SCF
      7  -9.16752098E+003  3.89322313E+000  -3.56162981E-003    3555.90  <-- SCF
      8  -9.16752515E+003  3.90480723E+000   9.92496935E-005    4006.24  <-- SCF
      9  -9.16753043E+003  3.91154159E+000   1.25740316E-004    4450.89  <-- SCF
-----------------
                               Symmetry and Constraints
                           -------------------------------
 
                      Maximum deviation from symmetry =  0.00000         ANG
 
                      Number of symmetry operations   =           1
         There are no ionic constraints specified or generated for this cell
                      Point group of crystal =     1: C1, 1, 1
                      Space group of crystal =   144: P3_1, P 31
 
             Set iprint > 1 for details on symmetry rotations/translations
 
                         Centre of mass is NOT constrained
 
                         Number of cell constraints= 0
                         Cell constraints are:  1 2 3 4 5 6
 
                         External pressure/stress (GPa)
                          0.00000   0.00000   0.00000
                                    0.00000   0.00000
                                              0.00000
  
+---------------- MEMORY AND SCRATCH DISK ESTIMATES PER PROCESS --------------+
|                                                     Memory          Disk    |
| Baseline code, static data and system overhead      531.0 MB         0.0 MB |
| BLAS internal memory storage                          0.0 MB         0.0 MB |
| Model and support data                             2193.7 MB         0.0 MB |
| Electronic energy minimisation requirements        2362.1 MB         0.0 MB |
| Force calculation requirements                       42.8 MB         0.0 MB |
| Stress calculation requirements                      47.3 MB         0.0 MB |
|                                               ----------------------------- |
| Approx. total storage required per process         5086.8 MB         0.0 MB |
|                                                                             |
| Requirements will fluctuate during execution and may exceed these estimates |
+-----------------------------------------------------------------------------+
Calculating finite basis set correction with  3 cut-off energies.
Calculating total energy with cut-off of  490.000 eV.
------------------------------------------------------------------------ <-- SCF
SCF loop      Energy           Fermi           Energy gain       Timer   <-- SCF
                               energy          per atom          (sec)   <-- SCF
------------------------------------------------------------------------ <-- SCF
Initial  -1.76282569E+003  0.00000000E+000                       169.23  <-- SCF
      1  -8.15891812E+003  5.96651375E+000   1.52287915E+002     742.09  <-- SCF
      2  -9.14643078E+003  3.65803912E+000   2.35122062E+001    1160.74  <-- SCF
      3  -9.17304113E+003  3.62152994E+000   6.33579694E-001    1603.47  <-- SCF
      4  -9.16968834E+003  3.73728829E+000  -7.98282981E-002    2197.82  <-- SCF
      5  -9.16858376E+003  3.98370865E+000  -2.62995835E-002    2636.58  <-- SCF
      6  -9.16767063E+003  3.82758621E+000  -2.17411025E-002    3073.25  <-- SCF
      7  -9.16752095E+003  3.89321653E+000  -3.56370663E-003    3508.72  <-- SCF
      8  -9.16752514E+003  3.90480891E+000   9.96290145E-005    3956.75  <-- SCF
      9  -9.16753024E+003  3.91158311E+000   1.21473430E-004    4392.43  <-- SCF
