248
Lattice="19.207643 0.0 0.0 0.0 19.207643 0.0 0.0 0.0 19.207643" Properties=species:S:1:pos:R:3:forces:R:3 energy=-1307.753090209313 hash=0a52d05be110f62b0b8ba1dd06f580af virial="0.494352900131 -7.65209813893 7.72109612803 -7.65209813893 14.1363610828 -13.2346104406 7.72109612803 -13.2346104406 19.6957855958" config_type=liq_12_03_01_liqP4 pressure=0.0016146784108647724 uploaded="2020-04-10 10:56:38.097000" hash_structure=7256de5227695c2198da4cf346617eea filename=liq_12_03_01_liqP4/liq_12_03_01_liqP4_mbd2.xyz username=gabor stress="0.0014880000365966354 0.00082090709574024 -0.0011953286639068183 0.00082090709574024 0.0015076575640515608 0.0018088481394151314 -0.0011953286639068183 0.0018088481394151314 -0.0002274882534744219" volume=7086.343911736328 n_atoms=248 free_energy=-1310.85738039 modified="2020-04-10 10:56:38.097000" formula=P248 miguel_caro=T pbc="T T T"
P       19.07786000       1.83802000       2.14603000       1.04719600       0.58992300      -0.13161500
P        1.84009000       2.77358000       1.36927000      -1.01739000      -1.02450100       1.13488900
P        1.74336000       0.66243000       2.09671000      -0.06617200      -0.48962600      -1.14773200
P        1.56765000       2.19952000       3.55407000      -0.31516600       0.70742800      -0.37628000
P       17.28258000      18.89348000       5.16478000      -0.28078000       0.83514400       0.68011600
P       15.20283000      18.88955000       4.58162000      -0.61740500       0.24578400      -1.75033700
P       16.13352000       1.63244000       5.24472000       0.03427600      -0.64396500      -0.61373600
P       15.56991000       0.04130000       6.60745000       0.82771100      -0.18767100       1.60490900
P        2.46893000       6.49209000       9.63336000      -0.44714800       0.77608800       0.20995500
P        0.67446000       6.85221000      11.06187000       0.81286400       1.07376900       0.56929700
P        1.57443000       4.92107000      10.78613000       1.08123600      -2.02118900       1.96688700
P        0.45238000       5.76483000       9.27418000      -1.54911000       0.04201200      -2.81682800
P        2.46336000      18.93916000      13.69707000      -0.56990200       1.02322800       0.03201200
P        0.72883000       0.26124000      12.17388000       1.64826700      -1.75515100       1.56502800
P        1.05738000      17.37769000      13.20124000      -0.49607800       0.97490000      -0.96565300
P        2.49231000      18.17408000      11.69484000      -0.35797100      -0.36138600      -0.58246200
P        1.38800000       9.37700000       6.05427000       0.05061600      -0.18006600      -0.83507100
P        2.10276000       9.39052000       3.85828000      -1.52797800       0.18638800       1.25611300
P        1.78441000      11.24473000       4.98965000      -0.67468800      -0.06329100      -0.29866100
P       19.02665000      10.08705000       4.61127000       2.66837400      -0.32428600      -0.37521100
P       17.12988000       8.17216000       9.35508000      -1.10227300      -0.10952300      -0.67054400
P       16.12170000       6.39269000       8.45186000       0.07155300       0.61187200      -0.01601700
P       15.74389000       8.45077000       7.56637000       0.45373800      -1.02924600       0.76067800
P       14.90429000       7.89065000       9.53083000       0.54038900      -0.11670500       0.12056300
P        3.95699000       6.81330000      12.71951000      -0.97734700       0.39033000       0.34709800
P        5.58345000       8.01383000      12.12671000       1.71933100       0.62894300       0.39148200
P        4.26220000       8.76199000      13.83772000       0.12485100      -0.48707100      -1.91685300
P        3.67527000       8.78640000      11.58075000      -0.61218200      -0.36632700       1.35067400
P        1.01983000       8.93949000      14.88483000      -1.89386200      -0.37021400      -0.43956300
P        2.45900000       8.55236000      16.32550000       0.80104500      -1.17398600       1.29625700
P        1.53976000       6.79518000      15.20026000       0.08437000       0.85289400       0.61737300
P        0.39531000       7.81703000      16.83387000       0.72467000       0.58024800      -1.37307700
P        6.11089000      12.48537000       4.19445000       0.66696600      -2.48601600       1.48705500
P        5.05776000      13.62600000       2.84621000      -0.72676700       1.81142900      -0.63552900
P        6.35435000      14.57964000       4.48239000      -0.70467500       0.45632700      -0.30647900
P        4.35606000      13.64102000       4.95309000       0.92146200      -0.39980700      -0.59506100
P        9.90000000      12.31790000       7.53923000      -0.89457600       0.81973500       0.12660200
P        8.94634000      14.24892000       6.79370000      -0.14762100      -1.53357800       1.21966000
P        8.91260000      13.71602000       9.04242000      -0.70018700      -1.04386400      -2.49391100
P        7.66022000      12.40318000       7.32798000       1.79897400       1.53884400       1.09312900
P        2.69679000      14.27808000      15.94839000      -1.35795200      -0.38165000      -0.48254300
P        2.86109000      12.91954000      14.26064000       1.52483900      -0.08407300      -1.35834800
P        1.32900000      14.50106000      14.14683000       0.39711000      -0.62306100       0.67884800
P        1.11737000      12.66089000      15.38832000      -0.58860300       0.77453200       1.21267200
P        0.19580000      11.36124000      18.52324000      -0.86214100      -0.28565500      -1.16587200
P        0.73462000      13.00233000       0.61568000      -0.27511300       0.08621200       0.52466700
P        1.50957000      10.97325000       0.94404000       0.85231100      -0.32470600       0.82163500
P       18.60458000      11.35195000       1.36954000       0.11796200       0.50704600      -0.23194700
P        1.19715000      17.04527000       4.98874000       1.09927200      -0.08102000       0.66061100
P       18.42777000      16.21705000       5.00572000      -0.84173500      -1.08730700       1.00209900
P        0.94096000      14.88444000       4.38589000      -0.24071300       0.65159800       0.49124100
P        0.21693000      16.52856000       3.16165000       0.03726400       0.21682800      -2.05882600
P        1.01236000       9.92171000       9.41814000      -0.48472300      -1.81963800       0.27490400
P        2.74727000      11.18371000       9.52578000       0.08763800       0.61472200       0.76513700
P        0.64855000      11.77436000      10.43653000       1.69074400       0.63616500      -0.16903800
P        1.06560000      11.70892000       8.28212000      -0.53609500       1.04668300      -1.23677100
P        3.80117000      14.58010000       9.21055000       1.30793400       0.20579800       2.01891900
P        2.24618000      16.10580000       9.15115000       0.24986200      -0.47760200      -1.05172700
P        3.10839000      14.84849000       7.29066000      -1.36655300       1.72780900      -0.56139700
P        4.19877000      16.60672000       8.25185000      -0.38740200      -1.23306600      -0.00908300
P       18.95602000      17.58850000      16.76564000       2.30600100      -0.19965200      -0.64803500
P        0.17738000      16.52856000      18.76414000      -1.47500100       1.54192200      -1.19695700
P       17.30463000      17.17667000      17.94221000      -0.76894400      -1.07062500       1.55976100
P       18.68312000      18.71819000      18.61599000       0.48472100      -0.61888900       0.50796200
P        3.75807000       6.26861000      18.83772000      -0.91658500       0.25810300       0.82216300
P        2.61018000       7.54484000       1.11055000       0.35100500       0.36491000      -0.48789900
P        3.24836000       5.54686000       1.67318000       0.28582200      -0.20765200      -0.06797700
P        1.62066000       5.81509000       0.21568000       0.31543300       0.00799100      -0.37058000
P        5.73652000       1.66169000       1.67546000      -0.01625000       1.29049100       0.84400300
P        6.35060000       3.33481000       0.45547000      -0.29319100       0.43776200      -1.91718700
P        7.57211000       2.81834000       2.13116000       1.71332700      -1.66345500      -0.13402500
P        5.87254000       3.90499000       2.45391000      -2.73079500       0.16029300       0.69923000
P        5.42576000       3.49020000      10.25292000       0.51715200       1.21492700       0.19084100
P        7.27570000       2.17394000      10.41615000      -1.32201100       0.13599600      -0.59016600
P        5.46932000       1.76824000       8.99459000       0.69723800      -0.83798100       0.36923000
P        5.29405000       1.57762000      11.22531000       0.00383200      -0.72202100      -0.05336800
P        3.35427000       1.64202000      17.24673000      -0.37258300       1.39663800      -0.27308900
P        3.59075000       3.92502000      16.73871000      -0.75174000      -1.11906200       0.18143200
P        2.51259000       2.49734000      15.35809000       0.57453200       0.31516400       0.55251800
P        4.70537000       2.43007000      15.66162000      -0.05869600      -0.97423000       0.41035200
P        6.00329000       7.31035000       2.68615000       0.36451300       0.55840500       0.38031400
P        5.65367000       9.45857000       3.28249000       0.31410100      -0.67689900      -0.04190300
P        5.80178000       8.87166000       1.18198000      -0.10979200       0.27950300      -0.54119300
P        7.62584000       8.86331000       2.39779000      -0.89382200      -0.39446000       0.58969700
P        4.12384000       5.69345000       5.02247000      -0.41643700      -0.53526200      -0.41487100
P        2.54302000       4.19741000       5.60064000      -0.19689300       0.67598800      -0.33505500
P        3.89429000       5.02163000       7.08019000       0.43803600      -0.28056200       0.62051200
P        4.63139000       3.59978000       5.52944000       0.25083300       0.12619300       0.15612600
P        7.16902000       4.87340000      14.62399000       0.10595900      -0.34178300      -1.00379100
P        7.99426000       2.85086000      14.67026000      -0.66410000      -0.16258900       0.75346500
P        8.00457000       3.76558000      12.78294000       0.32080700       1.77297900      -1.02057600
P        6.05554000       3.22750000      13.59782000       0.22868700       0.43164200      -0.01099800
P        5.93879000       7.92982000      16.15797000       0.58371200       0.17058800       0.17830900
P        7.04761000       9.53081000      17.26331000       0.39644500      -0.96648900      -1.74468200
P        7.50927000       9.02606000      14.99429000       0.12701500      -0.92051100       2.67504800
P        8.04625000       7.56964000      16.84954000      -0.77401300       1.29143800      -1.50179900
P        4.94900000       8.97033000       8.68462000       0.12728100       2.63893100       2.72852800
P        4.30612000       8.13572000       6.96665000      -1.71768800      -1.88700900      -2.66239700
P        6.42211000       8.21559000       7.41553000       1.07830700       0.02472900      -1.36915100
P        5.27188000      10.02001000       6.64058000       0.58770200      -0.26851600       1.22970300
P       12.80679000      14.04805000      13.05353000       0.52008200      -1.45063500      -1.12352200
P       10.75922000      14.57376000      12.07256000       0.50310500      -0.98662000      -0.55917900
P       12.40551000      15.95804000      12.13510000       0.60953800       1.19134200      -0.51447900
P       11.41981000      15.30227000      13.95082000      -1.18223900       1.69464600       2.05479600
P        8.03025000      13.40002000      12.30374000      -1.81410000      -1.16762100       0.11916800
P        6.64961000      11.78925000      13.22450000       0.79658100       0.53737800      -1.41524500
P        7.13134000      11.85532000      10.93656000       0.69277300      -0.66552300       0.92094700
P        5.78934000      13.24394000      11.81660000      -0.04193800       0.98276800       0.58288700
P        4.09323000      13.02198000      18.91425000       1.30550800      -0.79065200      -0.90164000
P        5.98284000      11.70095000      18.94398000       0.11357600       1.13674500       0.71738300
P        5.46713000      12.80773000      17.08314000       0.06945900       0.74301900       0.56094000
P        4.32896000      11.12687000      17.74827000      -1.68400300      -0.74650200      -0.28613200
P        5.05559000      16.96031000       4.90175000      -0.91552600       1.70482000      -1.58401100
P        5.77822000      17.89196000       2.94540000       0.41926700      -0.39771500       0.43415100
P        4.94873000      19.19351000       4.50598000      -0.30082300      -0.27713500      -0.10627700
P        3.61741000      17.96637000       3.18682000       0.89235800      -0.77278600       1.45373500
P        0.99805000       0.25706000       8.63286000       0.31211000       0.45429000      -0.48768900
P        1.84415000       2.32447000       8.51112000      -0.06565800      -0.94604600      -0.51318500
P        2.82366000       0.61126000       7.39644000      -0.31934100       0.32602300       0.40358800
P        0.88468000       1.38543000       6.71146000      -0.03224400       0.04902900       0.51133000
P        5.76379000      16.61532000      12.49207000       1.63484400       0.55321700      -0.39890200
P        6.89284000      18.36218000      13.30051000       0.04195600       0.03242000      -0.61415800
P        8.05816000      17.05147000      11.85371000      -1.94698700       0.08863700       0.91671300
P        7.45823000      16.35327000      13.88960000       0.13233800      -0.07428800      -0.36365200
P        5.17089000      18.70417000      18.39844000       0.00686400      -0.19119400       0.01078300
P        4.29921000      17.60734000      16.68145000      -0.88004600       0.54538500      -0.39129400
P        3.66363000      17.11822000      18.77146000       0.70649800       0.02431300      -0.63048700
P        5.69981000      16.61851000      17.92467000       0.14039000      -0.46781300       1.04594000
P       11.22598000       4.75562000       0.52796000      -0.73007400      -0.20925600       0.92673600
P        9.93014000       6.37344000      19.08786000       0.37173700       0.46568300       0.58053800
P       11.47311000       6.67458000       1.53461000       0.09681800       0.53062800      -0.50220600
P        9.59330000       5.70135000       1.96221000       0.35782000      -0.95712800      -0.77734400
P       13.37881000       1.11059000       9.08733000       0.26487800      -0.13659500       0.34840700
P       11.75761000       0.80025000       7.67933000      -0.45315500      -1.17814400      -0.66002400
P       12.14276000       2.75668000       8.37330000       0.08938200       1.01830100       0.84606900
P       11.29240000       1.22808000       9.80404000       0.31448500       0.71301600      -0.95839800
P       12.24635000       1.09512000      12.66199000      -0.39901400      -0.76542200      -0.14168800
P       11.42555000      18.95326000      14.18471000      -0.30177300      -0.15051200      -0.54456500
P       10.49367000      18.88655000      12.07665000       0.83767300       0.63623900       1.46220600
P       10.20658000       1.44516000      13.47368000       0.22056000      -0.97191300      -0.68135500
P        8.86675000       2.64612000      17.78822000       0.95231000      -1.63367000       0.41738200
P        8.52097000       0.89704000      16.51900000      -1.02724000      -0.77404400      -0.76946200
P        9.08289000       0.40184000      18.52637000       0.72042600       1.40950000       0.18543100
P       10.58322000       1.28693000      17.01063000      -0.68669800       0.45884100       1.10808500
P       11.96338000       8.97750000       5.44827000      -0.57783300       1.00240800       1.03776000
P       11.69152000       9.50398000       3.42885000      -0.50414500       0.32548100      -1.22443100
P       11.37769000      11.17190000       4.84640000      -0.13310900      -1.79310700       0.34381300
P        9.87307000       9.44157000       4.74175000       1.31955700       0.58064700       0.02103600
P        7.55811000       3.09112000       7.15441000       0.23264400      -0.17195800      -0.83964500
P        9.65009000       3.68199000       6.76873000      -0.13210900       0.07678600      -0.16800500
P        8.06466000       5.18320000       6.92929000       0.00550900       0.55114700      -0.22359900
P        8.19354000       3.92545000       5.11067000      -0.17623900      -0.11298000       1.09907300
P       10.81156000       6.90340000      10.11828000      -0.38154800       0.21916500      -1.21392100
P        9.33618000       7.97780000      11.22671000      -0.65627400       0.68951100       1.33139600
P        8.63184000       6.58352000       9.72151000      -0.24688300      -1.54322400       0.34434400
P        9.40589000       8.45430000       9.11547000       1.29139800       0.63944400      -0.37409600
P       13.15428000      10.56645000      14.22044000      -0.51073400       0.62785400       0.66395600
P       11.21571000      10.51292000      13.24626000      -0.46215000       0.04193800       0.35016600
P       11.48807000      12.07750000      14.81499000       0.75388200      -0.76992000      -0.40119100
P       11.39912000       9.96333000      15.40614000      -0.26921000      -0.28358700      -0.28429100
P        9.55008000       9.70564000       0.50564000      -0.27426800       0.18315300      -0.64329100
P       11.43249000      10.57081000      19.07062000       0.47575700       0.30430500      -0.50833900
P       10.21666000      11.61198000       1.32834000       0.33962600       0.25012300       1.58900000
P        9.55110000      11.64830000      18.54070000      -0.09464200      -0.79433400      -0.96699100
P       12.88308000      10.26326000       8.96941000      -1.89818300      -1.11220900      -0.43665900
P       13.99480000      12.01897000       9.03791000       0.67057100       1.30290300       0.73106200
P       13.95881000      10.62830000      10.80361000      -0.94510700       1.25269400      -0.40350700
P       12.06924000      11.99888000      10.20258000       1.78527100      -1.43949700      -0.23655500
P       16.11458000      17.37923000      12.66646000       0.45099800      -0.27147300      -0.00339200
P       16.28637000      15.86478000      14.30823000       0.98390400       0.65636600      -0.18971500
P       16.92145000      18.09185000      14.61581000      -0.67534600      -1.21613100      -0.45191300
P       14.82067000      17.41593000      14.39838000      -0.85842500       0.80417600       0.33252400
P       15.10673000      12.38953000      16.69332000       0.99274400       0.82361500      -0.65788400
P       15.92314000      13.81202000      18.29684000      -1.43214400      -0.58090000      -1.12677700
P       13.82737000      12.92986000      18.28495000      -0.33149100       0.92691800       0.85018000
P       14.33578000      14.52693000      16.79253000       0.65758400      -1.14354900       0.77930100
P        8.85910000      14.38026000       2.94845000      -0.56423800       0.07265900       0.75642600
P       10.02418000      16.07734000       3.91173000      -0.25885400      -1.23186100      -2.48385600
P        9.32493000      16.02121000       1.59164000      -0.21274700       0.72807000       0.95303900
P       10.85001000      14.66000000       2.24194000       1.29332900       0.37032900       0.66301700
P        7.35910000      17.10546000       8.34280000       0.94616600       0.23549500      -0.25338900
P        8.86465000      17.63154000       6.71042000       0.09078400      -0.98604600      -0.02581700
P        8.81610000      18.82140000       8.52222000      -1.42487800      -0.11028500      -0.48671300
P        7.05385000      18.75987000       6.95397000       0.19990200       0.84540000       0.77937800
P       15.89359000      10.95022000      12.93066000       1.22445500       0.78785400       0.25683200
P       17.86874000      10.90178000      11.83193000      -0.99355300      -0.58338900      -1.25613700
P       17.90694000      11.16431000      13.90770000      -0.20615800       0.32801800       1.51293400
P       17.15663000      12.81163000      12.64841000      -0.39626500      -0.66011800       0.17926700
P        9.02317000      16.54675000      17.69035000      -0.75431600      -1.21993100      -0.54827000
P       10.10480000      14.82033000      16.90386000       0.33194700      -0.34864500       0.58812900
P        8.02054000      14.93310000      16.35162000       0.10884000       0.27748000       1.07410200
P        8.52372000      14.43449000      18.50218000       0.61219500       1.04316200      -0.91426300
P        9.98052000       0.91229000       4.78868000      -0.36141800      -0.32440400      -1.33803500
P        9.76943000      19.03733000       2.71946000       1.42822000       0.82090400       1.56146600
P       11.78431000       0.93543000       3.55416000      -1.20048800      -0.81964700      -0.79745800
P        9.91124000       1.98745000       2.78328000       1.51739100       0.01058100       0.78186000
P       16.41151000       3.71180000      11.35452000       0.16421000      -1.24228700      -0.29362200
P       16.02521000       1.47939000      11.39098000      -1.89673800      -0.48816800       1.50593100
P       17.96472000       2.11518000      11.00496000       0.91270700       1.35555300      -1.05919700
P       16.29290000       2.44114000       9.51842000       0.67338100       0.70387700      -0.41010200
P       17.78877000       1.72056000      14.44572000       0.12408100       0.30753300       0.11192500
P       18.37134000       1.89136000      16.57890000      -1.33015900       0.20218500      -0.21179800
P       16.38994000       2.88979000      15.70916000       2.12470600      -0.57542100       0.17565800
P       18.50470000       3.63685000      15.30711000      -0.60468500       0.29307300      -0.30749900
P       12.32407000       5.95145000      14.41021000       0.27368200       2.11677300      -1.52090300
P       11.59373000       4.69360000      15.89847000       0.28894700      -1.73388400       0.00634100
P       13.66084000       4.34281000      14.92716000      -0.35139300      -0.30918500       0.96571700
P       11.89696000       3.91373000      13.74073000      -0.52981900       0.57447000       0.69781000
P        0.22156000       6.28063000       3.02048000      -0.89649600       0.73977700       1.14708900
P       17.67966000       6.87054000       4.55448000       1.17220100      -0.07459200      -1.07847500
P       17.40846000       5.51499000       2.84815000      -0.43982100       0.56509600      -0.48019300
P       17.81947000       7.75472000       2.49021000      -0.03915500      -1.36669200       0.48607800
P       14.09780000       3.98284000       6.20048000      -0.03171700       0.14079900       0.46061800
P       12.36285000       4.29617000       4.90383000       1.12581600       1.54933300       0.40309600
P       14.42100000       5.29084000       4.47173000      -1.87633600       0.23011400       1.41997500
P       13.09669000       5.99980000       6.41213000       0.68385600      -1.97260200      -2.23645300
P       15.72891000       8.22235000      14.34060000      -0.41942900       1.64135700      -0.75272000
P       15.03467000       6.77304000      12.76465000       0.57974700       1.08660100      -0.46650200
P       16.11610000       6.19548000      14.51760000       1.74846700      -1.69616200      -0.03322700
P       17.25029000       7.45975000      12.87041000      -1.75363300      -0.96382900       1.16827900
P       15.87546000       1.93586000       0.19323000       0.83899500      -1.26254600       0.02839500
P       16.16498000       4.02419000      18.94146000       0.09968400       0.59869600      -0.13667000
P       14.52177000       3.36155000       1.02344000      -0.63074200       0.62557400       0.52362200
P       14.46105000       2.92363000      18.07343000      -0.25911400       0.34902200      -0.08182000
P       14.24185000      15.90057000       2.23156000      -0.00237300      -1.35204200       0.49653200
P       15.75255000      15.02278000       3.57084000       1.52950400       0.16997800      -0.63357100
P       14.53652000      13.62016000       2.34641000       0.81637600       0.22921900      -1.25833300
P       13.74989000      14.61396000       4.00151000      -2.32377300       0.87164000       1.54892000
P       17.36657000      12.14807000       5.20848000       0.46028600      -0.11000800      -0.00225600
P       16.67008000      11.03775000       7.02773000       0.00569200       1.89053800       0.38457700
P       15.71051000      10.68473000       5.17485000      -0.80247200       1.09348300      -0.95833600
P       15.44099000      12.86230000       5.95187000       0.17992600      -1.94415500       0.75571900
P       16.63801000      14.76949000       9.99372000       0.42322500      -0.33564100      -0.95886400
P       17.62311000      16.67805000       9.67581000      -0.23521200       1.08938400      -0.57056300
P       18.22682000      15.03718000       8.30414000      -1.58716200       0.03378100      -0.95044800
P       18.79349000      15.01723000      10.30507000       1.20384600      -0.78484900       2.34120900
P       14.25793000       8.24436000       0.29885000       0.78229500      -0.24107100       0.17781200
P       15.29435000       9.56155000      18.04078000      -0.79735000      -1.25914400      -0.07057100
P       13.39339000       8.37584000      17.54196000       0.42380600       0.53872000      -0.59698800
P       15.31600000       7.31613000      17.73457000      -0.19951300       0.75393800       0.68590500
P       12.09672000      17.65250000      19.19712000       0.56324300      -1.99970800      -0.67696300
P       13.07278000       0.20349000      18.74188000       0.80669200       1.27788400      -1.26391200
P       13.11498000      17.77546000      17.07300000      -0.56612700       0.73296800       2.03108000
P       14.42997000      17.70393000      18.86940000      -1.28182800      -0.16157600       0.02628200
P       14.12663000      16.08888000       7.23556000       1.05816800      -0.45874900       0.67039200
P       12.52932000      15.00409000       8.35433000      -0.03342000       0.37742000      -0.86774600
P       12.14626000      16.78241000       6.97946000      -0.97720500      -0.10939600       0.78899400
P       13.10301000      16.99928000       9.01336000       0.16330300       0.16212300      -0.61229300
248
Lattice="19.577111 0.0 0.0 0.0 19.577111 0.0 0.0 0.0 19.577111" Properties=species:S:1:pos:R:3:forces:R:3 energy=-1306.728788892331 hash=4bc068354c7e0ac46aabe6d5394a67ac virial="-22.3820422846 4.77856345205 -10.971851059 4.77856345205 -12.0118786678 -7.89218357075 -10.971851059 -7.89218357075 5.6096770135" config_type=liq_12_03_01_liqP4 pressure=-0.0012787562287043448 uploaded="2020-04-10 10:56:37.921000" hash_structure=43c6885f842ce4cccfd1f4be8a6457e1 filename=liq_12_03_01_liqP4/liq_12_03_01_liqP4_mbd2.xyz username=gabor stress="0.005060671760400645 -0.001069446792925066 0.0018668745337720603 -0.001069446792925066 0.0034856131978769096 0.0003128683568153976 0.0018668745337720603 0.0003128683568153976 0.0011155245421153941" volume=7503.187678979971 n_atoms=248 free_energy=-1310.13427812 modified="2020-04-10 10:56:37.921000" formula=P248 miguel_caro=T pbc="T T T"
P        1.20759000       0.46672000      19.22911000       1.69608300       0.34159100      -2.21068500
P        2.95215000       1.02081000       1.16347000      -0.62173700      -0.00052700      -1.02775200
P        1.70616000      18.83212000       1.32034000      -0.60987500      -0.27724100       1.02432800
P        0.80677000       1.36470000       1.46699000      -0.22991100      -0.02441700       1.95667900
P       16.32430000       1.25370000       5.41599000      -0.82516200      -0.26553800      -0.20571700
P       16.26024000      19.27944000       3.74432000      -0.52174400       0.83161700      -0.16442900
P       17.64350000      19.10984000       5.35356000       0.74199900      -1.17577600       1.57498100
P       17.94761000       1.12911000       3.99258000       0.39411300       0.67505200      -1.13276500
P        2.99970000       6.46959000      11.85654000      -0.96032200       0.61535300      -0.74778400
P        1.08490000       5.55594000      12.88266000       0.49293000       1.04787700      -1.66838000
P        3.07441000       5.04087000      13.39948000       0.91212800      -1.71024900       0.67992700
P        2.32829000       4.44737000      11.32495000      -0.28891700       0.24357300       1.17785800
P       19.31787000      19.27645000      11.73511000       1.61042000      -0.11094900       1.80418600
P        1.66981000       0.54017000      12.95568000      -2.16835000      -1.92588200      -0.55428200
P        1.44876000      17.98549000      12.15416000       0.26952400       0.48346900       0.95476600
P        0.11887000      18.61419000      13.89930000       1.34329300       0.64644800      -1.67632900
P        1.21946000       8.18785000       4.88441000      -0.31170900       0.43137400       0.01719100
P        2.56106000       9.74793000       4.12576000       0.69621300      -0.15296000      -0.47642000
P        0.56623000      10.34333000       4.65324000      -0.58163100      -0.58482900       0.14411500
P        0.86116000       9.03789000       2.87500000       0.24413800       0.14008000       0.34227500