104
Lattice="14.752975 0.0 0.0 0.0 12.828814 0.0 0.0 0.0 12.8717" Properties=species:S:1:pos:R:3:forces:R:3 energy=-568.1815088647 hash=65caec19db865b84795faa891699f15e virial="26.5960839552 0.0 0.0 0.0 -8.69836786862 0.0 0.0 0.0 9.45073549841" config_type=rss_3c pressure=0.0037420489448516097 uploaded="2020-04-10 10:56:53.323000" hash_structure=f5bb3ec5005e822dba26f0166ed6c15a filename=rss_3c/rss_3c_mbd2.xyz username=gabor stress="-0.0008350427413277098 0.0 -0.0 0.0 0.007545432221286347 1.3546026340432204e-07 -0.0 1.3546026340432204e-07 0.005223799291082005" volume=2436.138773885412 n_atoms=104 free_energy=-570.88456 modified="2020-04-10 10:56:53.323000" formula=P104 miguel_caro=T pbc="T T T"
P        5.55284000       1.54336000       4.79899000      -0.07397500       0.04682100      -0.00320200
P        3.40593000       1.92310000       4.54218000      -0.07026900       0.50769700      -0.07071200
P        2.83521000      12.72241000       5.14557000      -0.28456800       0.06203300       0.05519100
P        0.61386000       0.19271000       4.91270000      -0.15625400      -0.23736400       0.20664300
P        6.32144000       3.56955000       4.26074000      -0.30889100      -0.13894700      -0.30039800
P        4.67563000       3.69629000       7.41183000       0.10359500       0.02846100      -0.16687800
P        2.84625000       3.29862000       6.23727000      -0.10466900      -0.42579900      -0.16618000
P        1.91349000       1.94200000       7.76613000       0.19356400       0.24052400      -0.05055800
P        0.02843000       1.52844000       6.62131000      -0.01730400       0.24526900       0.31616800
P        5.98915000       4.94149000       6.02491000      -0.15889200      -0.14649400       0.10724700
P        5.84247000       1.90315000       6.94732000       0.20084500      -0.26613700       0.37494000
P        2.80712000      12.81238000       7.35081000       0.12423100      -0.25887100       0.13811900
P        4.90134000       0.16568000       7.93271000       0.14880000      -0.01096500       0.24935200
P        9.20015000       4.87104000       4.79899000       0.07392600      -0.04685000      -0.00322600
P       11.34706000       4.49130000       4.54218000       0.07024400      -0.50764500      -0.07074100
P       11.91778000       6.52081000       5.14557000       0.28447900      -0.06206300       0.05517500
P       14.13912000       6.22169000       4.91270000       0.15632800       0.23741600       0.20665400
P        8.43153000       2.84485000       4.26074000       0.30895000       0.13899400      -0.30038900
P       10.07734000       2.71812000       7.41183000      -0.10344200      -0.02859000      -0.16686000
P       11.90673000       3.11579000       6.23727000       0.10465500       0.42572400      -0.16612100
P       12.83948000       4.47241000       7.76613000      -0.19343100      -0.24053000      -0.05057800
P       14.72456000       4.88597000       6.62131000       0.01715800      -0.24532800       0.31623000
P        8.76383000       1.47291000       6.02491000       0.15886100       0.14652900       0.10725200
P        8.91052000       4.51125000       6.94732000      -0.20098000       0.26624100       0.37487600
P       11.94585000       6.43084000       7.35081000      -0.12411900       0.25889500       0.13809500
P        9.85164000       6.24872000       7.93271000      -0.14886600       0.01101000       0.24938000
P        5.55284000      11.28544000       1.63686000      -0.07398200      -0.04673100       0.00320200
P        3.40593000      10.90571000       1.89367000      -0.07028600      -0.50770900       0.07071400
P        2.83521000       0.10640000       1.29028000      -0.28455900      -0.06202800      -0.05519400
P        0.61386000      12.63610000       1.52315000      -0.15625100       0.23743300      -0.20663700
P        6.32144000       9.25926000       2.17511000      -0.30887300       0.13888900       0.30041100
P        4.67563000       9.13252000      11.89572000       0.10359500      -0.02846400       0.16687000
P        2.84625000       9.53019000       0.19858000      -0.10467700       0.42580000       0.16618100
P        1.91349000      10.88681000      11.54142000       0.19355500      -0.24051200       0.05056300
P        0.02843000      11.30038000      12.68624000      -0.01729800      -0.24535200      -0.31617800
P        5.98915000       7.88732000       0.41094000      -0.15889200       0.14648900      -0.10725000
P        5.84247000      10.92566000      12.36023000       0.20084700       0.26612600      -0.37495600
P        2.80712000       0.01643000      11.95674000       0.12423800       0.25887500      -0.13811900
P        4.90134000      12.66313000      11.37484000       0.14879800       0.01096800      -0.24934700
P        9.20015000       7.95776000       1.63686000       0.07392400       0.04694500       0.00321900
P       11.34706000       8.33751000       1.89367000       0.07023000       0.50765700       0.07071500
P       11.91778000       6.30800000       1.29028000       0.28448600       0.06207200      -0.05518200
P       14.13912000       6.60712000       1.52315000       0.15632000      -0.23741000      -0.20665800
P        8.43153000       9.98396000       2.17511000       0.30897000      -0.13905500       0.30037700
P       10.07734000      10.11070000      11.89572000      -0.10346600       0.02850500       0.16687300
P       11.90673000       9.71303000       0.19858000       0.10464300      -0.42578300       0.16614700
P       12.83948000       8.35641000      11.54142000      -0.19344500       0.24044600       0.05060200
P       14.72456000       7.94284000      12.68624000       0.01714800       0.24534300      -0.31623300
P        8.76383000      11.35590000       0.41094000       0.15884700      -0.14651300      -0.10723500
P        8.91052000       8.31756000      12.36023000      -0.20094000      -0.26619500      -0.37487300
P       11.94585000       6.39797000      11.95674000      -0.12409400      -0.25881700      -0.13810800
P        9.85164000       6.58009000      11.37484000      -0.14886400      -0.01100600      -0.24938100
P        9.20015000      11.28544000       8.07271000       0.07393600      -0.04676400       0.00322100
P       11.34706000      10.90571000       8.32952000       0.07025200      -0.50772400       0.07073500
P       11.91778000       0.10640000       7.72613000       0.28447900      -0.06201200      -0.05519500
P       14.13912000      12.63610000       7.95900000       0.15632800       0.23742300      -0.20666500
P        8.43153000       9.25926000       8.61096000       0.30893500       0.13893500       0.30040100
P       10.07734000       9.13252000       5.45987000      -0.10346700      -0.02851000       0.16686100
P       11.90673000       9.53019000       6.63443000       0.10465200       0.42576800       0.16614700
P       12.83948000      10.88681000       5.10557000      -0.19343200      -0.24048900       0.05059000
P       14.72456000      11.30038000       6.25039000       0.01714900      -0.24535700      -0.31621500
P        8.76383000       7.88732000       6.84679000       0.15885600       0.14648400      -0.10722800
P        8.91052000      10.92566000       5.92438000      -0.20094500       0.26617100      -0.37490500
P       11.94585000       0.01643000       5.52089000      -0.12410400       0.25887500      -0.13809800
P        9.85164000      12.66313000       4.93899000      -0.14885700       0.01098100      -0.24938700
P        5.55284000       7.95776000       8.07271000      -0.07397000       0.04691200       0.00320000
P        3.40593000       8.33751000       8.32952000      -0.07026400       0.50764100       0.07069400
P        2.83521000       6.30800000       7.72613000      -0.28456500       0.06208800      -0.05518200
P        0.61386000       6.60712000       7.95900000      -0.15624200      -0.23741900      -0.20663100
P        6.32144000       9.98396000       8.61096000      -0.30890800      -0.13900900       0.30038700
P        4.67563000      10.11070000       5.45987000       0.10359400       0.02845900       0.16688300
P        2.84625000       9.71303000       6.63443000      -0.10466800      -0.42581500       0.16618200
P        1.91349000       8.35641000       5.10557000       0.19356800       0.24047000       0.05057500
P        0.02843000       7.94284000       6.25039000      -0.01729600       0.24533800      -0.31619600
P        5.98915000      11.35590000       6.84679000      -0.15888200      -0.14651800      -0.10725700
P        5.84247000       8.31756000       5.92438000       0.20084200      -0.26615000      -0.37492400
P        2.80712000       6.39797000       5.52089000       0.12422800      -0.25881700      -0.13812900
P        4.90134000       6.58009000       4.93899000       0.14880500      -0.01099300      -0.24934200
P        9.20015000       1.54336000      11.23484000       0.07392900       0.04685400      -0.00322100
P       11.34706000       1.92310000      10.97803000       0.07023600       0.50771300      -0.07073200
P       11.91778000      12.72241000      11.58142000       0.28448800       0.06201700       0.05519200
P       14.13912000       0.19271000      11.34855000       0.15633100      -0.23735500       0.20667100
P        8.43153000       3.56955000      10.69659000       0.30895300      -0.13899300      -0.30038800
P       10.07734000       3.69629000       0.97598000      -0.10346700       0.02850600      -0.16686800
P       11.90673000       3.29862000      12.67312000       0.10464400      -0.42576700      -0.16614500
P       12.83948000       1.94200000       1.33028000      -0.19344100       0.24050000      -0.05058600
P       14.72456000       1.52844000       0.18546000       0.01715500       0.24527400       0.31620500
P        8.76383000       4.94149000      12.46076000       0.15885600      -0.14648900       0.10722500
P        8.91052000       1.90315000       0.51147000      -0.20094400      -0.26618300       0.37488900
P       11.94585000      12.81238000       0.91496000      -0.12409700      -0.25887100       0.13809800
P        9.85164000       0.16568000       1.49686000      -0.14885800      -0.01097900       0.24939100
P        5.55284000       4.87104000      11.23484000      -0.07397100      -0.04681700      -0.00320800
P        3.40593000       4.49130000      10.97803000      -0.07027700      -0.50762900      -0.07072100
P        2.83521000       6.52081000      11.58142000      -0.28455900      -0.06207900       0.05517400
P        0.61386000       6.22169000      11.34855000      -0.15625000       0.23742600       0.20662600
P        6.32144000       2.84485000      10.69659000      -0.30888800       0.13894700      -0.30039900
P        4.67563000       2.71812000       0.97598000       0.10357000      -0.02854500      -0.16687000
P        2.84625000       3.11579000      12.67312000      -0.10468000       0.42575600      -0.16615500
P        1.91349000       4.47241000       1.33028000       0.19355300      -0.24055400      -0.05055100
P        0.02843000       4.88597000       0.18546000      -0.01730600      -0.24532200       0.31619300
P        5.98915000       1.47291000      12.46076000      -0.15889700       0.14653400       0.10727300
P        5.84247000       4.51125000       0.51147000       0.20088100       0.26619500       0.37492700
P        2.80712000       6.43084000       0.91496000       0.12425300       0.25889500       0.13811600
P        4.90134000       6.24872000       1.49686000       0.14880800       0.01099700       0.24934100
104
Lattice="14.889483 0.0 0.0 0.0 12.391801 -1e-06 0.0 -2e-06 13.347013" Properties=species:S:1:pos:R:3:forces:R:3 energy=-567.169760717699 hash=2a03cfe65dbe78e74669f4a756e0817d virial="26.3757318784 0.0 0.0 0.0 11.6352465281 -0.0 0.0 -0.0 5.35105200861" config_type=rss_3c pressure=0.005869352902749718 uploaded="2020-04-10 10:56:53.293000" hash_structure=389247ae759652655bed27dccf1a710e filename=rss_3c/rss_3c_mbd2.xyz username=gabor stress="-0.0024686877318494628 8.121417996198547e-09 -1.218212699429782e-08 8.121417996198547e-09 0.0002521456645279763 -6.903205296768765e-08 -1.218212699429782e-08 -6.903205296768765e-08 0.005397924835427353" volume=2462.6241389572056 n_atoms=104 free_energy=-569.77517532 modified="2020-04-10 10:56:53.293000" formula=P104 miguel_caro=T pbc="T T T"
P       13.33855000       1.06165000      11.95313000      -0.31777900       0.22067200       0.25182600
P       11.16165000       1.34697000      11.59177000      -0.03771200       0.34958500       0.08390100
P       10.27593000      11.89413000      12.35433000      -0.13756500       0.40964600      -0.03891300
P        8.16584000       0.09854000      11.85261000      -0.20490400      -0.09928000       0.21434400
P       13.77690000       3.12620000      11.20159000      -0.06835900       0.16765600      -0.36588000
P       12.15737000       3.40535000       0.98354000       0.34093900      -0.30814000       0.00948600
P       10.45252000       2.90202000      13.05469000      -0.14886900      -0.28888100      -0.37832100
P        9.40458000       1.86157000       1.37042000       0.17456800      -0.04871200      -0.07118600
P        7.55619000       1.51609000       0.15572000       0.06684700       0.13855500       0.23381300
P       13.37872000       4.56250000      12.87660000       0.19504100      -0.06308200      -0.11709200
P       13.41294000       1.59319000       0.76070000       0.19060200      -0.00815900       0.25371300
P       10.24094000      12.20672000       1.19632000      -0.19016100      -0.17977900       0.12538400
P       12.35360000      12.32120000       1.74348000       0.20347000      -0.06526400       0.03803700
P        1.55096000       5.13427000      11.95313000       0.31795600      -0.22067400       0.25180600
P        3.72788000       4.84895000      11.59177000       0.03759400      -0.34951300       0.08394400
P        4.61360000       6.69360000      12.35433000       0.13755000      -0.40973800      -0.03894200
P        6.72369000       6.09738000      11.85261000       0.20489400       0.09932600       0.21435400
P        1.11262000       3.06972000      11.20159000       0.06836500      -0.16766500      -0.36587200
P        2.73215000       2.79057000       0.98354000      -0.34085600       0.30820700       0.00946900
P        4.43701000       3.29390000      13.05469000       0.14878400       0.28888900      -0.37831300
P        5.48494000       4.33435000       1.37042000      -0.17449900       0.04885900      -0.07120100
P        7.33334000       4.67984000       0.15572000      -0.06690500      -0.13859100       0.23386000
P        1.51081000       1.63342000      12.87660000      -0.19510300       0.06308600      -0.11711400
P        1.47659000       4.60274000       0.76070000      -0.19062000       0.00812000       0.25371800
P        4.64859000       6.38102000       1.19632000       0.19018000       0.17964500       0.12539200
P        2.53593000       6.26653000       1.74348000      -0.20345700       0.06527600       0.03802600
P        5.89381000       5.13427000       8.06739000      -0.31779900      -0.22065800      -0.25179900
P        3.71691000       4.84895000       8.42875000      -0.03773500      -0.34952800      -0.08392400
P        2.83119000       6.69360000       7.66619000      -0.13754900      -0.40972000       0.03895900
P        0.72110000       6.09738000       8.16790000      -0.20489500       0.09934600      -0.21423200
P        6.33215000       3.06972000       8.81893000      -0.06828300      -0.16765600       0.36588700
P        4.71263000       2.79057000       5.68996000       0.34096600       0.30820300      -0.00942100
P        3.00778000       3.29390000       6.96583000      -0.14883500       0.28889500       0.37830700
P        1.95984000       4.33435000       5.30309000       0.17458300       0.04885200       0.07118100
P        0.11145000       4.67984000       6.51779000       0.06683100      -0.13862400      -0.23388500
P        5.93398000       1.63342000       7.14392000       0.19501800       0.06310700       0.11706100
P        5.96820000       4.60274000       5.91281000       0.19055300       0.00810100      -0.25377000
P        2.79620000       6.38102000       5.47719000      -0.19026900       0.17963500      -0.12540200
P        4.90885000       6.26653000       4.93003000       0.20354500       0.06521600      -0.03806800
P        8.99570000       1.06165000       8.06739000       0.31796600       0.22069700      -0.25179400
P       11.17262000       1.34698000       8.42875000       0.03759300       0.34946900      -0.08391500
P       12.05834000      11.89413000       7.66619000       0.13752200       0.40970600       0.03894800
P       14.16843000       0.09854000       8.16790000       0.20489800      -0.09927500      -0.21422700
P        8.55736000       3.12620000       8.81893000       0.06831700       0.16767300       0.36588100
P       10.17689000       3.40535000       5.68996000      -0.34083500      -0.30814900      -0.00940900
P       11.88175000       2.90202000       6.96583000       0.14876600      -0.28880200       0.37827600
P       12.92968000       1.86157000       5.30309000      -0.17446600      -0.04872900       0.07116600
P       14.77808000       1.51609000       6.51779000      -0.06687400       0.13859000      -0.23387800
P        8.95555000       4.56250000       7.14392000      -0.19506000      -0.06307600       0.11710500
P        8.92133000       1.59319000       5.91281000      -0.19065000      -0.00817800      -0.25374500
P       12.09333000      12.20672000       5.47719000       0.19014200      -0.17980500      -0.12540900
P        9.98067000      12.32120000       4.93003000      -0.20346100      -0.06526000      -0.03806600
P        1.55096000      11.33017000       1.39388000       0.31795400      -0.22067700      -0.25181500
P        3.72788000      11.04485000       1.75524000       0.03759200      -0.34947700      -0.08390900
P        4.61360000       0.49770000       0.99268000       0.13752800      -0.40972900       0.03894700
P        6.72369000      12.29329000       1.49440000       0.20489000       0.09926800      -0.21435100
P        1.11262000       9.26562000       2.14542000       0.06837000      -0.16763700       0.36590500
P        2.73215000       8.98647000      12.36347000      -0.34079100       0.30817900      -0.00945000
P        4.43701000       9.48980000       0.29233000       0.14879800       0.28890700       0.37820200
P        5.48494000      10.53025000      11.97659000      -0.17452200       0.04883500       0.07125100
P        7.33334000      10.87574000      13.19129000      -0.06690900      -0.13857500      -0.23385000
P        1.51081000       7.82933000       0.47041000      -0.19509500       0.06300500       0.11711300
P        1.47659000      10.79863000      12.58631000      -0.19061700       0.00823700      -0.25374200
P        4.64859000       0.18512000      12.15069000       0.19018300       0.17962900      -0.12538600
P        2.53593000       0.07063000      11.60353000      -0.20347100       0.06520000      -0.03801300
P       13.33855000       7.25756000       1.39388000      -0.31779000       0.22060000      -0.25183200
P       11.16165000       7.54288000       1.75524000      -0.03772200       0.34947100      -0.08386300
P       10.27593000       5.69823000       0.99268000      -0.13753800       0.40970100       0.03893800
P        8.16584000       6.29444000       1.49440000      -0.20490200      -0.09925800      -0.21435100
P       13.77690000       9.32210000       2.14542000      -0.06835200       0.16771100       0.36590100
P       12.15737000       9.60125000      12.36347000       0.34089200      -0.30815800      -0.00945600
P       10.45252000       9.09792000       0.29233000      -0.14887000      -0.28882600       0.37819400
P        9.40458000       8.05747000      11.97659000       0.17459700      -0.04876300       0.07123300
P        7.55619000       7.71199000      13.19129000       0.06684300       0.13850100      -0.23382700
P       13.37872000      10.75840000       0.47041000       0.19504500      -0.06306300       0.11709400
P       13.41294000       7.78909000      12.58631000       0.19060700      -0.00814300      -0.25372300
P       10.24094000       6.01081000      12.15069000      -0.19018000      -0.17970100      -0.12538900
P       12.35360000       6.12530000      11.60353000       0.20346000      -0.06528300      -0.03803300
P        8.99570000       7.25755000       5.27962000       0.31795700       0.22070500       0.25187800
P       11.17262000       7.54288000       4.91827000       0.03757900       0.34947100       0.08383700
P       12.05834000       5.69823000       5.68082000       0.13753300       0.40968500      -0.03885600
P       14.16843000       6.29444000       5.17911000       0.20491200      -0.09926500       0.21430100
P        8.55736000       9.32210000       4.52808000       0.06832100       0.16767100      -0.36587500
P       10.17689000       9.60125000       7.65705000      -0.34083100      -0.30813700       0.00942400
P       11.88175000       9.09792000       6.38118000       0.14877600      -0.28879300      -0.37825000
P       12.92968000       8.05747000       8.04392000      -0.17448600      -0.04871100      -0.07112300
P       14.77808000       7.71199000       6.82923000      -0.06686500       0.13854700       0.23381400
P        8.95555000      10.75840000       6.20309000      -0.19507900      -0.06310100      -0.11708000
P        8.92133000       7.78909000       7.43421000      -0.19065400      -0.00818300       0.25366300
P       12.09333000       6.01082000       7.86983000       0.19014300      -0.17982000       0.12532300
P        9.98067000       6.12530000       8.41699000      -0.20346900      -0.06527600       0.03802700
P        5.89381000      11.33017000       5.27962000      -0.31779000      -0.22066700       0.25188200
P        3.71691000      11.04485000       4.91827000      -0.03772800      -0.34952500       0.08384600
P        2.83119000       0.49770000       5.68082000      -0.13754500      -0.40970300      -0.03886000
P        0.72110000      12.29329000       5.17911000      -0.20491100       0.09927000       0.21429800
P        6.33215000       9.26562000       4.52808000      -0.06828700      -0.16765400      -0.36588300
P        4.71263000       8.98647000       7.65705000       0.34096100       0.30819000       0.00943700
P        3.00778000       9.48980000       6.38118000      -0.14884600       0.28889000      -0.37827900
P        1.95984000      10.53025000       8.04392000       0.17460800       0.04885000      -0.07114300
P        0.11145000      10.87574000       6.82923000       0.06684100      -0.13858400       0.23376200
P        5.93398000       7.82932000       6.20309000       0.19503600       0.06313400      -0.11703700
P        5.96820000      10.79864000       7.43421000       0.19055500       0.00811300       0.25368800
P        2.79620000       0.18512000       7.86983000      -0.19027300       0.17963900       0.12531900
P        4.90885000       0.07063000       8.41699000       0.20355200       0.06522800       0.03803000
104
Lattice="12.943911 0.24864 -0.016578 0.24758 13.078507 -0.10008 -0.023239 -0.133746 16.279084" Properties=species:S:1:pos:R:3:forces:R:3 energy=-565.178560742416 hash=e4724269cb8291177014383e86479694 virial="9.43688046502 -2.29643045408 -1.48755793306 -2.29643045408 17.2412984863 -0.689551531013 -1.48755793306 -0.689551531013 -1.39997563866" config_type=rss_3c pressure=0.0030588429534144515 uploaded="2020-04-10 10:56:53.299000" hash_structure=2f85a93544bd858272d2942ccbbe2898 filename=rss_3c/rss_3c_mbd2.xyz username=gabor stress="0.0013478440202943868 0.00025089498303084145 0.0004668055933464452 0.00025089498303084145 -0.0012948791974329863 0.00020932903225887183 0.0004668055933464452 0.00020932903225887183 -0.003801527472039267" volume=2754.658509512892 n_atoms=104 free_energy=-568.50559371 modified="2020-04-10 10:56:53.299000" formula=P104 miguel_caro=T pbc="T T T"
P       11.56466000      11.71978000       2.43582000      -0.44178000       0.15587600      -0.29331300
P       11.51399000      10.28244000       4.11301000      -0.17757200      -0.24794000      -0.12861500
P       11.50866000      11.84246000       5.67230000      -0.44251300       0.02752400       0.38393400
P       11.32961000      10.55544000       7.56835000       0.24823600       0.16725300       0.04353700
P       11.36653000      10.43519000       0.54418000       0.33809800       0.11545100      -0.04498900
P        8.41953000      10.30399000       2.34860000       0.15004300      -0.16858100       0.12458500
P        9.47892000       9.35829000       4.07124000       0.11513100       0.05274400       0.00329000
P        8.37528000      10.36833000       5.72777000       0.26182900      -0.20428400      -0.02618300
P        9.52161000       9.27819000       7.32820000      -0.50726500      -0.46076300      -0.32519700
P        9.55102000       9.18788000       0.76564000      -0.53098200      -0.77598700       0.40770700
P        9.42757000      12.27072000       2.11207000       0.06636100       0.17306900       0.13901200
P        9.36073000      12.35953000       5.93696000      -0.01248900       0.08661600      -0.17065800
P        8.55582000      12.90350000       3.99024000      -0.28086000       0.35076600       0.11627400
P        1.67220000       1.41810000       2.34905000       0.44191000      -0.02420400      -0.38814900
P        1.66806000       2.97743000       3.90906000       0.17038300       0.24415900       0.13353400
P        1.61706000       1.53883000       5.58569000       0.44291600      -0.14889800       0.29741400
P        1.81424000       2.82386000       7.47870000      -0.35566100      -0.12283600       0.03403400
P        1.84999000       2.70680000       0.45327000      -0.24994100      -0.16051500      -0.03811400
P        4.80419000       2.89448000       2.29303000      -0.25604600       0.20098200       0.02990700
P        3.70225000       3.90173000       3.95210000      -0.11234000      -0.05084300      -0.00706600
P        4.76254000       2.95520000       5.67444000      -0.15484000       0.16874000      -0.13121400
P        3.62796000       4.07029000       7.25545000       0.54365500       0.78926800      -0.39690900
P        3.65850000       3.98484000       0.69258000       0.50288500       0.45167400       0.32567400
P        3.81996000       0.90254000       2.08223000       0.01490400      -0.08661300       0.17376400
P        3.75452000       0.98849000       5.90958000      -0.06779700      -0.17492700      -0.14142600
P        4.62487000       0.35887000       4.02936000       0.28116400      -0.35646500      -0.11042600
P       11.41600000       1.89460000      13.69041000       0.03548300       0.49659800       0.35136800
P        9.95914000       2.00931000      12.04039000      -0.46916600       0.22107700       0.12012700
P       11.45166000       2.02195000      10.44108000      -0.03964000       0.45805100      -0.43409900
P       10.03836000       2.21202000       8.63452000       0.33006300      -0.24679300      -0.09061800
P       10.04498000       2.01667000      15.52042000       0.12748200      -0.22437800       0.24137900
P        9.97948000       5.06385000      13.83963000      -0.15129400      -0.27341800      -0.00735400
P        9.02188000       4.06409000      12.10844000      -0.04886700      -0.33614400       0.02419300
P        9.95475000       5.17064000      10.43283000      -0.13125300      -0.23917000       0.03221500
P        8.74879000       4.00422000       8.89693000      -0.22083500       0.57687600       0.36368700
P        8.76321000       3.83317000      15.32729000      -0.12843200       0.56209100      -0.35266400
P       11.95476000       4.03374000      14.03792000       0.08425700      -0.00313600      -0.12995200
P       11.94706000       4.18053000      10.21152000       0.13316900       0.01255700       0.06759200
P       12.64760000       4.88573000      12.15138000       0.32322200       0.18618600       0.04086200
P        1.70872000      11.10480000      13.86087000       0.03907300      -0.45590800       0.44213100
P        3.20044000      11.11226000      12.26045000       0.46401200      -0.23025900      -0.11328800
P        1.74096000      11.23315000      10.61258000      -0.03802000      -0.49939100      -0.35250600
P        3.10908000      11.10916000       8.78138000      -0.12377100       0.22529500      -0.24101500
P        3.12012000      10.91159000      15.66957000      -0.32844500       0.26232200       0.08030000
P        3.19611000       7.95153000      13.87593000       0.13498900       0.23981800      -0.04285800
P        4.12529000       9.05142000      12.19393000       0.06931400       0.34519800      -0.03030700
P        3.16668000       8.05938000      10.45833000       0.16126800       0.27695000       0.01510400
P        4.39014000       9.29231000       8.97700000       0.12146600      -0.56209900       0.35076300
P        4.40873000       9.11986000      15.40567000       0.21750000      -0.58359900      -0.36192800
P        1.20749000       8.94784000      14.09532000      -0.14145200      -0.00793000      -0.06903200
P        1.19460000       9.09534000      10.26306000      -0.08088200       0.00932300       0.13297600
P        0.50942000       8.24536000      12.15346000      -0.32599200      -0.18851600      -0.04458400
P       10.84316000       2.22637000       2.48414000      -0.26323600       0.06223100       0.30276200
P       11.28758000       3.80122000       3.98025000       0.17479800      -0.10865900       0.07471500
P       10.81080000       2.29253000       5.54161000      -0.18760500       0.12839300      -0.55747400