6
Lattice="1.5915581330270887 -2.756594413590022 8.215054274264647e-05 1.5914803267425788 2.7565494921107105 -0.0001912124466083637 -0.0005086432374467487 -0.0007360702883482493 15.404838569568788" Properties=species:S:1:pos:R:3:castep_forces:R:3:forces:R:3 task_id=mp-2815 mp_E=-7.574405446666667 spacegroup=P6_3/mmc theoretical=F castep_energy=-5086.252652 castep_stress="_JSON [[-1.0266685764948449, -0.0, 0.0], [-0.0, -1.0246892488421588, 0.0], [0.0, 0.0, -0.46518865746976645]]" x=0.6666666666666666 stoi=1.9999999999999998 n_minim_iter=0 energy=-5086.434964100513 free_energy=-5086.434964100513 pbc="T T T"
Mo       1.59139960       0.91863176       4.10111900      -0.00000000      -0.00005000      -0.39430000      -0.00033785       0.00038359       0.00050599
Mo       1.59113031      -0.91941292      11.80361010       0.00000000       0.00005000      -0.39431000       0.00033535      -0.00037882      -0.00049050
S        1.59159503      -0.91891166       5.65643812      -0.00000000      -0.00005000       0.39431000      -0.00079482      -0.00078776      -0.05782464
S        1.59128907       0.91843832      13.35870777       0.00000000       0.00005000       0.39430000      -0.00113498      -0.00040529      -0.05732396
S        1.59124071      -0.91921924       2.54602195       0.00000000       0.00024000      -0.00001000       0.00113624       0.00040301       0.05731609
S        1.59093475       0.91813076      10.24829158       0.00000000      -0.00024000       0.00001000       0.00079606       0.00078526       0.05781702
6
Lattice="1.5915581330270887 -2.756594413590022 8.215054274264647e-05 1.5914803267425788 2.7565494921107105 -0.0001912124466083637 -0.0005086432374467487 -0.0007360702883482493 15.661981426711645" Properties=species:S:1:pos:R:3:castep_forces:R:3:forces:R:3 task_id=mp-2815 mp_E=-7.574405446666667 spacegroup=P6_3/mmc theoretical=F castep_energy=-5086.252652 castep_stress="_JSON [[-1.0266685764948449, -0.0, 0.0], [-0.0, -1.0246892488421588, 0.0], [0.0, 0.0, -0.46518865746976645]]" x=0.6666666666666666 stoi=1.9999999999999998 n_minim_iter=0 energy=-5086.434964100513 free_energy=-5086.434964100513 pbc="T T T"
Mo       1.59139960       0.91863176       4.10111900      -0.00000000      -0.00005000      -0.39430000      -0.00033785       0.00038359       0.00050599
Mo       1.59113031      -0.91941292      11.93218153       0.00000000       0.00005000      -0.39431000       0.00033535      -0.00037882      -0.00049050
S        1.59159503      -0.91891166       5.65643812      -0.00000000      -0.00005000       0.39431000      -0.00079482      -0.00078776      -0.05782464
S        1.59128907       0.91843832      13.48727920       0.00000000       0.00005000       0.39430000      -0.00113498      -0.00040529      -0.05732396
S        1.59124071      -0.91921924       2.54602195       0.00000000       0.00024000      -0.00001000       0.00113624       0.00040301       0.05731609
S        1.59093475       0.91813076      10.37686301       0.00000000      -0.00024000       0.00001000       0.00079606       0.00078526       0.05781702
6
Lattice="1.5915581330270887 -2.756594413590022 8.215054274264647e-05 1.5914803267425788 2.7565494921107105 -0.0001912124466083637 -0.0005086432374467487 -0.0007360702883482493 15.919124283854503" Properties=species:S:1:pos:R:3:castep_forces:R:3:forces:R:3 task_id=mp-2815 mp_E=-7.574405446666667 spacegroup=P6_3/mmc theoretical=F castep_energy=-5086.252652 castep_stress="_JSON [[-1.0266685764948449, -0.0, 0.0], [-0.0, -1.0246892488421588, 0.0], [0.0, 0.0, -0.46518865746976645]]" x=0.6666666666666666 stoi=1.9999999999999998 n_minim_iter=0 energy=-5086.434964100513 free_energy=-5086.434964100513 pbc="T T T"
Mo       1.59139960       0.91863176       4.10111900      -0.00000000      -0.00005000      -0.39430000      -0.00033785       0.00038359       0.00050599
Mo       1.59113031      -0.91941292      12.06075296       0.00000000       0.00005000      -0.39431000       0.00033535      -0.00037882      -0.00049050
S        1.59159503      -0.91891166       5.65643812      -0.00000000      -0.00005000       0.39431000      -0.00079482      -0.00078776      -0.05782464
S        1.59128907       0.91843832      13.61585062       0.00000000       0.00005000       0.39430000      -0.00113498      -0.00040529      -0.05732396
S        1.59124071      -0.91921924       2.54602195       0.00000000       0.00024000      -0.00001000       0.00113624       0.00040301       0.05731609
S        1.59093475       0.91813076      10.50543444       0.00000000      -0.00024000       0.00001000       0.00079606       0.00078526       0.05781702
6
Lattice="1.5915581330270887 -2.756594413590022 8.215054274264647e-05 1.5914803267425788 2.7565494921107105 -0.0001912124466083637 -0.0005086432374467487 -0.0007360702883482493 16.17626714099736" Properties=species:S:1:pos:R:3:castep_forces:R:3:forces:R:3 task_id=mp-2815 mp_E=-7.574405446666667 spacegroup=P6_3/mmc theoretical=F castep_energy=-5086.252652 castep_stress="_JSON [[-1.0266685764948449, -0.0, 0.0], [-0.0, -1.0246892488421588, 0.0], [0.0, 0.0, -0.46518865746976645]]" x=0.6666666666666666 stoi=1.9999999999999998 n_minim_iter=0 energy=-5086.434964100513 free_energy=-5086.434964100513 pbc="T T T"
Mo       1.59139960       0.91863176       4.10111900      -0.00000000      -0.00005000      -0.39430000      -0.00033785       0.00038359       0.00050599
Mo       1.59113031      -0.91941292      12.18932439       0.00000000       0.00005000      -0.39431000       0.00033535      -0.00037882      -0.00049050
S        1.59159503      -0.91891166       5.65643812      -0.00000000      -0.00005000       0.39431000      -0.00079482      -0.00078776      -0.05782464
S        1.59128907       0.91843832      13.74442205       0.00000000       0.00005000       0.39430000      -0.00113498      -0.00040529      -0.05732396
S        1.59124071      -0.91921924       2.54602195       0.00000000       0.00024000      -0.00001000       0.00113624       0.00040301       0.05731609
S        1.59093475       0.91813076      10.63400587       0.00000000      -0.00024000       0.00001000       0.00079606       0.00078526       0.05781702
6
Lattice="1.5915581330270887 -2.756594413590022 8.215054274264647e-05 1.5914803267425788 2.7565494921107105 -0.0001912124466083637 -0.0005086432374467487 -0.0007360702883482493 16.433409998140217" Properties=species:S:1:pos:R:3:castep_forces:R:3:forces:R:3 task_id=mp-2815 mp_E=-7.574405446666667 spacegroup=P6_3/mmc theoretical=F castep_energy=-5086.252652 castep_stress="_JSON [[-1.0266685764948449, -0.0, 0.0], [-0.0, -1.0246892488421588, 0.0], [0.0, 0.0, -0.46518865746976645]]" x=0.6666666666666666 stoi=1.9999999999999998 n_minim_iter=0 energy=-5086.434964100513 free_energy=-5086.434964100513 pbc="T T T"
Mo       1.59139960       0.91863176       4.10111900      -0.00000000      -0.00005000      -0.39430000      -0.00033785       0.00038359       0.00050599
Mo       1.59113031      -0.91941292      12.31789581       0.00000000       0.00005000      -0.39431000       0.00033535      -0.00037882      -0.00049050
S        1.59159503      -0.91891166       5.65643812      -0.00000000      -0.00005000       0.39431000      -0.00079482      -0.00078776      -0.05782464
S        1.59128907       0.91843832      13.87299348       0.00000000       0.00005000       0.39430000      -0.00113498      -0.00040529      -0.05732396
S        1.59124071      -0.91921924       2.54602195       0.00000000       0.00024000      -0.00001000       0.00113624       0.00040301       0.05731609
S        1.59093475       0.91813076      10.76257730       0.00000000      -0.00024000       0.00001000       0.00079606       0.00078526       0.05781702
6
Lattice="1.5915581330270887 -2.756594413590022 8.215054274264647e-05 1.5914803267425788 2.7565494921107105 -0.0001912124466083637 -0.0005086432374467487 -0.0007360702883482493 16.690552855283073" Properties=species:S:1:pos:R:3:castep_forces:R:3:forces:R:3 task_id=mp-2815 mp_E=-7.574405446666667 spacegroup=P6_3/mmc theoretical=F castep_energy=-5086.252652 castep_stress="_JSON [[-1.0266685764948449, -0.0, 0.0], [-0.0, -1.0246892488421588, 0.0], [0.0, 0.0, -0.46518865746976645]]" x=0.6666666666666666 stoi=1.9999999999999998 n_minim_iter=0 energy=-5086.434964100513 free_energy=-5086.434964100513 pbc="T T T"
Mo       1.59139960       0.91863176       4.10111900      -0.00000000      -0.00005000      -0.39430000      -0.00033785       0.00038359       0.00050599
Mo       1.59113031      -0.91941292      12.44646724       0.00000000       0.00005000      -0.39431000       0.00033535      -0.00037882      -0.00049050
S        1.59159503      -0.91891166       5.65643812      -0.00000000      -0.00005000       0.39431000      -0.00079482      -0.00078776      -0.05782464
S        1.59128907       0.91843832      14.00156491       0.00000000       0.00005000       0.39430000      -0.00113498      -0.00040529      -0.05732396
S        1.59124071      -0.91921924       2.54602195       0.00000000       0.00024000      -0.00001000       0.00113624       0.00040301       0.05731609
S        1.59093475       0.91813076      10.89114873       0.00000000      -0.00024000       0.00001000       0.00079606       0.00078526       0.05781702
6
Lattice="1.5915581330270887 -2.756594413590022 8.215054274264647e-05 1.5914803267425788 2.7565494921107105 -0.0001912124466083637 -0.0005086432374467487 -0.0007360702883482493 16.947695712425933" Properties=species:S:1:pos:R:3:castep_forces:R:3:forces:R:3 task_id=mp-2815 mp_E=-7.574405446666667 spacegroup=P6_3/mmc theoretical=F castep_energy=-5086.252652 castep_stress="_JSON [[-1.0266685764948449, -0.0, 0.0], [-0.0, -1.0246892488421588, 0.0], [0.0, 0.0, -0.46518865746976645]]" x=0.6666666666666666 stoi=1.9999999999999998 n_minim_iter=0 energy=-5086.434964100513 free_energy=-5086.434964100513 pbc="T T T"
Mo       1.59139960       0.91863176       4.10111900      -0.00000000      -0.00005000      -0.39430000      -0.00033785       0.00038359       0.00050599
Mo       1.59113031      -0.91941292      12.57503867       0.00000000       0.00005000      -0.39431000       0.00033535      -0.00037882      -0.00049050
S        1.59159503      -0.91891166       5.65643812      -0.00000000      -0.00005000       0.39431000      -0.00079482      -0.00078776      -0.05782464
S        1.59128907       0.91843832      14.13013634       0.00000000       0.00005000       0.39430000      -0.00113498      -0.00040529      -0.05732396
S        1.59124071      -0.91921924       2.54602195       0.00000000       0.00024000      -0.00001000       0.00113624       0.00040301       0.05731609
S        1.59093475       0.91813076      11.01972016       0.00000000      -0.00024000       0.00001000       0.00079606       0.00078526       0.05781702
6
Lattice="1.5915581330270887 -2.756594413590022 8.215054274264647e-05 1.5914803267425788 2.7565494921107105 -0.0001912124466083637 -0.0005086432374467487 -0.0007360702883482493 17.20483856956879" Properties=species:S:1:pos:R:3:castep_forces:R:3:forces:R:3 task_id=mp-2815 mp_E=-7.574405446666667 spacegroup=P6_3/mmc theoretical=F castep_energy=-5086.252652 castep_stress="_JSON [[-1.0266685764948449, -0.0, 0.0], [-0.0, -1.0246892488421588, 0.0], [0.0, 0.0, -0.46518865746976645]]" x=0.6666666666666666 stoi=1.9999999999999998 n_minim_iter=0 energy=-5086.434964100513 free_energy=-5086.434964100513 pbc="T T T"
Mo       1.59139960       0.91863176       4.10111900      -0.00000000      -0.00005000      -0.39430000      -0.00033785       0.00038359       0.00050599
Mo       1.59113031      -0.91941292      12.70361010       0.00000000       0.00005000      -0.39431000       0.00033535      -0.00037882      -0.00049050
S        1.59159503      -0.91891166       5.65643812      -0.00000000      -0.00005000       0.39431000      -0.00079482      -0.00078776      -0.05782464
S        1.59128907       0.91843832      14.25870777       0.00000000       0.00005000       0.39430000      -0.00113498      -0.00040529      -0.05732396
S        1.59124071      -0.91921924       2.54602195       0.00000000       0.00024000      -0.00001000       0.00113624       0.00040301       0.05731609
S        1.59093475       0.91813076      11.14829158       0.00000000      -0.00024000       0.00001000       0.00079606       0.00078526       0.05781702
6
Lattice="1.5915581330270887 -2.756594413590022 8.215054274264647e-05 1.5914803267425788 2.7565494921107105 -0.0001912124466083637 -0.0005086432374467487 -0.0007360702883482493 17.461981426711645" Properties=species:S:1:pos:R:3:castep_forces:R:3:forces:R:3 task_id=mp-2815 mp_E=-7.574405446666667 spacegroup=P6_3/mmc theoretical=F castep_energy=-5086.252652 castep_stress="_JSON [[-1.0266685764948449, -0.0, 0.0], [-0.0, -1.0246892488421588, 0.0], [0.0, 0.0, -0.46518865746976645]]" x=0.6666666666666666 stoi=1.9999999999999998 n_minim_iter=0 energy=-5086.434964100513 free_energy=-5086.434964100513 pbc="T T T"
Mo       1.59139960       0.91863176       4.10111900      -0.00000000      -0.00005000      -0.39430000      -0.00033785       0.00038359       0.00050599
Mo       1.59113031      -0.91941292      12.83218153       0.00000000       0.00005000      -0.39431000       0.00033535      -0.00037882      -0.00049050
S        1.59159503      -0.91891166       5.65643812      -0.00000000      -0.00005000       0.39431000      -0.00079482      -0.00078776      -0.05782464
S        1.59128907       0.91843832      14.38727920       0.00000000       0.00005000       0.39430000      -0.00113498      -0.00040529      -0.05732396
S        1.59124071      -0.91921924       2.54602195       0.00000000       0.00024000      -0.00001000       0.00113624       0.00040301       0.05731609
S        1.59093475       0.91813076      11.27686301       0.00000000      -0.00024000       0.00001000       0.00079606       0.00078526       0.05781702
6
Lattice="1.5915581330270887 -2.756594413590022 8.215054274264647e-05 1.5914803267425788 2.7565494921107105 -0.0001912124466083637 -0.0005086432374467487 -0.0007360702883482493 17.7191242838545" Properties=species:S:1:pos:R:3:castep_forces:R:3:forces:R:3 task_id=mp-2815 mp_E=-7.574405446666667 spacegroup=P6_3/mmc theoretical=F castep_energy=-5086.252652 castep_stress="_JSON [[-1.0266685764948449, -0.0, 0.0], [-0.0, -1.0246892488421588, 0.0], [0.0, 0.0, -0.46518865746976645]]" x=0.6666666666666666 stoi=1.9999999999999998 n_minim_iter=0 energy=-5086.434964100513 free_energy=-5086.434964100513 pbc="T T T"
Mo       1.59139960       0.91863176       4.10111900      -0.00000000      -0.00005000      -0.39430000      -0.00033785       0.00038359       0.00050599
Mo       1.59113031      -0.91941292      12.96075296       0.00000000       0.00005000      -0.39431000       0.00033535      -0.00037882      -0.00049050
S        1.59159503      -0.91891166       5.65643812      -0.00000000      -0.00005000       0.39431000      -0.00079482      -0.00078776      -0.05782464
S        1.59128907       0.91843832      14.51585062       0.00000000       0.00005000       0.39430000      -0.00113498      -0.00040529      -0.05732396
S        1.59124071      -0.91921924       2.54602195       0.00000000       0.00024000      -0.00001000       0.00113624       0.00040301       0.05731609
S        1.59093475       0.91813076      11.40543444       0.00000000      -0.00024000       0.00001000       0.00079606       0.00078526       0.05781702
6
Lattice="1.5915581330270887 -2.756594413590022 8.215054274264647e-05 1.5914803267425788 2.7565494921107105 -0.0001912124466083637 -0.0005086432374467487 -0.0007360702883482493 17.976267140997358" Properties=species:S:1:pos:R:3:castep_forces:R:3:forces:R:3 task_id=mp-2815 mp_E=-7.574405446666667 spacegroup=P6_3/mmc theoretical=F castep_energy=-5086.252652 castep_stress="_JSON [[-1.0266685764948449, -0.0, 0.0], [-0.0, -1.0246892488421588, 0.0], [0.0, 0.0, -0.46518865746976645]]" x=0.6666666666666666 stoi=1.9999999999999998 n_minim_iter=0 energy=-5086.434964100513 free_energy=-5086.434964100513 pbc="T T T"
Mo       1.59139960       0.91863176       4.10111900      -0.00000000      -0.00005000      -0.39430000      -0.00033785       0.00038359       0.00050599
Mo       1.59113031      -0.91941292      13.08932439       0.00000000       0.00005000      -0.39431000       0.00033535      -0.00037882      -0.00049050
S        1.59159503      -0.91891166       5.65643812      -0.00000000      -0.00005000       0.39431000      -0.00079482      -0.00078776      -0.05782464
S        1.59128907       0.91843832      14.64442205       0.00000000       0.00005000       0.39430000      -0.00113498      -0.00040529      -0.05732396
S        1.59124071      -0.91921924       2.54602195       0.00000000       0.00024000      -0.00001000       0.00113624       0.00040301       0.05731609
S        1.59093475       0.91813076      11.53400587       0.00000000      -0.00024000       0.00001000       0.00079606       0.00078526       0.05781702
6
Lattice="1.5915581330270887 -2.756594413590022 8.215054274264647e-05 1.5914803267425788 2.7565494921107105 -0.0001912124466083637 -0.0005086432374467487 -0.0007360702883482493 18.233409998140218" Properties=species:S:1:pos:R:3:castep_forces:R:3:forces:R:3 task_id=mp-2815 mp_E=-7.574405446666667 spacegroup=P6_3/mmc theoretical=F castep_energy=-5086.252652 castep_stress="_JSON [[-1.0266685764948449, -0.0, 0.0], [-0.0, -1.0246892488421588, 0.0], [0.0, 0.0, -0.46518865746976645]]" x=0.6666666666666666 stoi=1.9999999999999998 n_minim_iter=0 energy=-5086.434964100513 free_energy=-5086.434964100513 pbc="T T T"
Mo       1.59139960       0.91863176       4.10111900      -0.00000000      -0.00005000      -0.39430000      -0.00033785       0.00038359       0.00050599
Mo       1.59113031      -0.91941292      13.21789581       0.00000000       0.00005000      -0.39431000       0.00033535      -0.00037882      -0.00049050
S        1.59159503      -0.91891166       5.65643812      -0.00000000      -0.00005000       0.39431000      -0.00079482      -0.00078776      -0.05782464
S        1.59128907       0.91843832      14.77299348       0.00000000       0.00005000       0.39430000      -0.00113498      -0.00040529      -0.05732396
S        1.59124071      -0.91921924       2.54602195       0.00000000       0.00024000      -0.00001000       0.00113624       0.00040301       0.05731609
S        1.59093475       0.91813076      11.66257730       0.00000000      -0.00024000       0.00001000       0.00079606       0.00078526       0.05781702
6
Lattice="1.5915581330270887 -2.756594413590022 8.215054274264647e-05 1.5914803267425788 2.7565494921107105 -0.0001912124466083637 -0.0005086432374467487 -0.0007360702883482493 18.490552855283074" Properties=species:S:1:pos:R:3:castep_forces:R:3:forces:R:3 task_id=mp-2815 mp_E=-7.574405446666667 spacegroup=P6_3/mmc theoretical=F castep_energy=-5086.252652 castep_stress="_JSON [[-1.0266685764948449, -0.0, 0.0], [-0.0, -1.0246892488421588, 0.0], [0.0, 0.0, -0.46518865746976645]]" x=0.6666666666666666 stoi=1.9999999999999998 n_minim_iter=0 energy=-5086.434964100513 free_energy=-5086.434964100513 pbc="T T T"
Mo       1.59139960       0.91863176       4.10111900      -0.00000000      -0.00005000      -0.39430000      -0.00033785       0.00038359       0.00050599
Mo       1.59113031      -0.91941292      13.34646724       0.00000000       0.00005000      -0.39431000       0.00033535      -0.00037882      -0.00049050
S        1.59159503      -0.91891166       5.65643812      -0.00000000      -0.00005000       0.39431000      -0.00079482      -0.00078776      -0.05782464
S        1.59128907       0.91843832      14.90156491       0.00000000       0.00005000       0.39430000      -0.00113498      -0.00040529      -0.05732396
S        1.59124071      -0.91921924       2.54602195       0.00000000       0.00024000      -0.00001000       0.00113624       0.00040301       0.05731609
S        1.59093475       0.91813076      11.79114873       0.00000000      -0.00024000       0.00001000       0.00079606       0.00078526       0.05781702
6
Lattice="1.5915581330270887 -2.756594413590022 8.215054274264647e-05 1.5914803267425788 2.7565494921107105 -0.0001912124466083637 -0.0005086432374467487 -0.0007360702883482493 18.74769571242593" Properties=species:S:1:pos:R:3:castep_forces:R:3:forces:R:3 task_id=mp-2815 mp_E=-7.574405446666667 spacegroup=P6_3/mmc theoretical=F castep_energy=-5086.252652 castep_stress="_JSON [[-1.0266685764948449, -0.0, 0.0], [-0.0, -1.0246892488421588, 0.0], [0.0, 0.0, -0.46518865746976645]]" x=0.6666666666666666 stoi=1.9999999999999998 n_minim_iter=0 energy=-5086.434964100513 free_energy=-5086.434964100513 pbc="T T T"
Mo       1.59139960       0.91863176       4.10111900      -0.00000000      -0.00005000      -0.39430000      -0.00033785       0.00038359       0.00050599
Mo       1.59113031      -0.91941292      13.47503867       0.00000000       0.00005000      -0.39431000       0.00033535      -0.00037882      -0.00049050
S        1.59159503      -0.91891166       5.65643812      -0.00000000      -0.00005000       0.39431000      -0.00079482      -0.00078776      -0.05782464
S        1.59128907       0.91843832      15.03013634       0.00000000       0.00005000       0.39430000      -0.00113498      -0.00040529      -0.05732396
S        1.59124071      -0.91921924       2.54602195       0.00000000       0.00024000      -0.00001000       0.00113624       0.00040301       0.05731609
S        1.59093475       0.91813076      11.91972016       0.00000000      -0.00024000       0.00001000       0.00079606       0.00078526       0.05781702
6
Lattice="1.5915581330270887 -2.756594413590022 8.215054274264647e-05 1.5914803267425788 2.7565494921107105 -0.0001912124466083637 -0.0005086432374467487 -0.0007360702883482493 19.00483856956879" Properties=species:S:1:pos:R:3:castep_forces:R:3:forces:R:3 task_id=mp-2815 mp_E=-7.574405446666667 spacegroup=P6_3/mmc theoretical=F castep_energy=-5086.252652 castep_stress="_JSON [[-1.0266685764948449, -0.0, 0.0], [-0.0, -1.0246892488421588, 0.0], [0.0, 0.0, -0.46518865746976645]]" x=0.6666666666666666 stoi=1.9999999999999998 n_minim_iter=0 energy=-5086.434964100513 free_energy=-5086.434964100513 pbc="T T T"
Mo       1.59139960       0.91863176       4.10111900      -0.00000000      -0.00005000      -0.39430000      -0.00033785       0.00038359       0.00050599
Mo       1.59113031      -0.91941292      13.60361010       0.00000000       0.00005000      -0.39431000       0.00033535      -0.00037882      -0.00049050
S        1.59159503      -0.91891166       5.65643812      -0.00000000      -0.00005000       0.39431000      -0.00079482      -0.00078776      -0.05782464
S        1.59128907       0.91843832      15.15870777       0.00000000       0.00005000       0.39430000      -0.00113498      -0.00040529      -0.05732396
S        1.59124071      -0.91921924       2.54602195       0.00000000       0.00024000      -0.00001000       0.00113624       0.00040301       0.05731609
S        1.59093475       0.91813076      12.04829158       0.00000000      -0.00024000       0.00001000       0.00079606       0.00078526       0.05781702
6
Lattice="1.5915581330270887 -2.756594413590022 8.215054274264647e-05 1.5914803267425788 2.7565494921107105 -0.0001912124466083637 -0.0005086432374467487 -0.0007360702883482493 19.261981426711646" Properties=species:S:1:pos:R:3:castep_forces:R:3:forces:R:3 task_id=mp-2815 mp_E=-7.574405446666667 spacegroup=P6_3/mmc theoretical=F castep_energy=-5086.252652 castep_stress="_JSON [[-1.0266685764948449, -0.0, 0.0], [-0.0, -1.0246892488421588, 0.0], [0.0, 0.0, -0.46518865746976645]]" x=0.6666666666666666 stoi=1.9999999999999998 n_minim_iter=0 energy=-5086.434964100513 free_energy=-5086.434964100513 pbc="T T T"
Mo       1.59139960       0.91863176       4.10111900      -0.00000000      -0.00005000      -0.39430000      -0.00033785       0.00038359       0.00050599
Mo       1.59113031      -0.91941292      13.73218153       0.00000000       0.00005000      -0.39431000       0.00033535      -0.00037882      -0.00049050
S        1.59159503      -0.91891166       5.65643812      -0.00000000      -0.00005000       0.39431000      -0.00079482      -0.00078776      -0.05782464
S        1.59128907       0.91843832      15.28727920       0.00000000       0.00005000       0.39430000      -0.00113498      -0.00040529      -0.05732396
S        1.59124071      -0.91921924       2.54602195       0.00000000       0.00024000      -0.00001000       0.00113624       0.00040301       0.05731609
S        1.59093475       0.91813076      12.17686301       0.00000000      -0.00024000       0.00001000       0.00079606       0.00078526       0.05781702
6
Lattice="1.5915581330270887 -2.756594413590022 8.215054274264647e-05 1.5914803267425788 2.7565494921107105 -0.0001912124466083637 -0.0005086432374467487 -0.0007360702883482493 19.519124283854502" Properties=species:S:1:pos:R:3:castep_forces:R:3:forces:R:3 task_id=mp-2815 mp_E=-7.574405446666667 spacegroup=P6_3/mmc theoretical=F castep_energy=-5086.252652 castep_stress="_JSON [[-1.0266685764948449, -0.0, 0.0], [-0.0, -1.0246892488421588, 0.0], [0.0, 0.0, -0.46518865746976645]]" x=0.6666666666666666 stoi=1.9999999999999998 n_minim_iter=0 energy=-5086.434964100513 free_energy=-5086.434964100513 pbc="T T T"
Mo       1.59139960       0.91863176       4.10111900      -0.00000000      -0.00005000      -0.39430000      -0.00033785       0.00038359       0.00050599
Mo       1.59113031      -0.91941292      13.86075296       0.00000000       0.00005000      -0.39431000       0.00033535      -0.00037882      -0.00049050
S        1.59159503      -0.91891166       5.65643812      -0.00000000      -0.00005000       0.39431000      -0.00079482      -0.00078776      -0.05782464
S        1.59128907       0.91843832      15.41585062       0.00000000       0.00005000       0.39430000      -0.00113498      -0.00040529      -0.05732396
S        1.59124071      -0.91921924       2.54602195       0.00000000       0.00024000      -0.00001000       0.00113624       0.00040301       0.05731609
S        1.59093475       0.91813076      12.30543444       0.00000000      -0.00024000       0.00001000       0.00079606       0.00078526       0.05781702
6
Lattice="1.5915581330270887 -2.756594413590022 8.215054274264647e-05 1.5914803267425788 2.7565494921107105 -0.0001912124466083637 -0.0005086432374467487 -0.0007360702883482493 19.77626714099736" Properties=species:S:1:pos:R:3:castep_forces:R:3:forces:R:3 task_id=mp-2815 mp_E=-7.574405446666667 spacegroup=P6_3/mmc theoretical=F castep_energy=-5086.252652 castep_stress="_JSON [[-1.0266685764948449, -0.0, 0.0], [-0.0, -1.0246892488421588, 0.0], [0.0, 0.0, -0.46518865746976645]]" x=0.6666666666666666 stoi=1.9999999999999998 n_minim_iter=0 energy=-5086.434964100513 free_energy=-5086.434964100513 pbc="T T T"
Mo       1.59139960       0.91863176       4.10111900      -0.00000000      -0.00005000      -0.39430000      -0.00033785       0.00038359       0.00050599
Mo       1.59113031      -0.91941292      13.98932439       0.00000000       0.00005000      -0.39431000       0.00033535      -0.00037882      -0.00049050
S        1.59159503      -0.91891166       5.65643812      -0.00000000      -0.00005000       0.39431000      -0.00079482      -0.00078776      -0.05782464
S        1.59128907       0.91843832      15.54442205       0.00000000       0.00005000       0.39430000      -0.00113498      -0.00040529      -0.05732396
S        1.59124071      -0.91921924       2.54602195       0.00000000       0.00024000      -0.00001000       0.00113624       0.00040301       0.05731609
S        1.59093475       0.91813076      12.43400587       0.00000000      -0.00024000       0.00001000       0.00079606       0.00078526       0.05781702
6
Lattice="1.5915581330270887 -2.756594413590022 8.215054274264647e-05 1.5914803267425788 2.7565494921107105 -0.0001912124466083637 -0.0005086432374467487 -0.0007360702883482493 20.033409998140215" Properties=species:S:1:pos:R:3:castep_forces:R:3:forces:R:3 task_id=mp-2815 mp_E=-7.574405446666667 spacegroup=P6_3/mmc theoretical=F castep_energy=-5086.252652 castep_stress="_JSON [[-1.0266685764948449, -0.0, 0.0], [-0.0, -1.0246892488421588, 0.0], [0.0, 0.0, -0.46518865746976645]]" x=0.6666666666666666 stoi=1.9999999999999998 n_minim_iter=0 energy=-5086.434964100513 free_energy=-5086.434964100513 pbc="T T T"
Mo       1.59139960       0.91863176       4.10111900      -0.00000000      -0.00005000      -0.39430000      -0.00033785       0.00038359       0.00050599
Mo       1.59113031      -0.91941292      14.11789581       0.00000000       0.00005000      -0.39431000       0.00033535      -0.00037882      -0.00049050
S        1.59159503      -0.91891166       5.65643812      -0.00000000      -0.00005000       0.39431000      -0.00079482      -0.00078776      -0.05782464
S        1.59128907       0.91843832      15.67299348       0.00000000       0.00005000       0.39430000      -0.00113498      -0.00040529      -0.05732396
S        1.59124071      -0.91921924       2.54602195       0.00000000       0.00024000      -0.00001000       0.00113624       0.00040301       0.05731609
S        1.59093475       0.91813076      12.56257730       0.00000000      -0.00024000       0.00001000       0.00079606       0.00078526       0.05781702
6