248
Lattice="19.207643 0.0 0.0 0.0 19.207643 0.0 0.0 0.0 19.207643" Properties=species:S:1:pos:R:3:forces:R:3 energy=-1308.527858516473 hash=0a52d05be110f62b0b8ba1dd06f580af virial="0.494352900131 -7.65209813893 7.72109612803 -7.65209813893 14.1363610828 -13.2346104406 7.72109612803 -13.2346104406 19.6957855958" config_type=liq_12_03_01_liqP4 pressure=0.0016146784108647724 uploaded="2020-04-10 10:56:38.097000" hash_structure=7256de5227695c2198da4cf346617eea filename=liq_12_03_01_liqP4/liq_12_03_01_liqP4_mbd2.xyz username=gabor stress="0.0035859535349270976 0.0008832876414075031 -0.000915974454647879 0.0008832876414075031 0.001622441719341125 0.001713859805743492 -0.000915974454647879 0.001713859805743492 0.001080993259064538" volume=7086.343911736328 n_atoms=248 free_energy=-1310.85738039 modified="2020-04-10 10:56:38.097000" formula=P248 miguel_caro=T pbc="T T T"
P       19.07786000       1.83802000       2.14603000       1.12621900       0.51289600      -0.07175000
P        1.84009000       2.77358000       1.36927000      -1.00574500      -0.97821600       1.09012100
P        1.74336000       0.66243000       2.09671000      -0.15570600      -0.31666100      -1.08477400
P        1.56765000       2.19952000       3.55407000      -0.26646100       0.63016500      -0.42548400
P       17.28258000      18.89348000       5.16478000      -0.19450600       0.88705100       0.67844800
P       15.20283000      18.88955000       4.58162000      -0.70501500       0.33057100      -1.64950400
P       16.13352000       1.63244000       5.24472000       0.08813700      -0.62758900      -0.65912200
P       15.56991000       0.04130000       6.60745000       0.78966600      -0.21789000       1.62677300
P        2.46893000       6.49209000       9.63336000      -0.52659100       0.78090900       0.33739200
P        0.67446000       6.85221000      11.06187000       0.86121100       1.05013400       0.46722900
P        1.57443000       4.92107000      10.78613000       1.03542100      -2.05968200       1.96435300
P        0.45238000       5.76483000       9.27418000      -1.56240100      -0.09683100      -2.90622600
P        2.46336000      18.93916000      13.69707000      -0.54107400       1.08001000       0.08431300
P        0.72883000       0.26124000      12.17388000       1.49162200      -1.70639800       1.57723100
P        1.05738000      17.37769000      13.20124000      -0.52278600       0.95973700      -1.06628000
P        2.49231000      18.17408000      11.69484000      -0.30440100      -0.31025600      -0.67840600
P        1.38800000       9.37700000       6.05427000       0.09572800      -0.21754500      -0.90217300
P        2.10276000       9.39052000       3.85828000      -1.67305700       0.15339600       1.30396000
P        1.78441000      11.24473000       4.98965000      -0.60513200      -0.15934100      -0.19075700
P       19.02665000      10.08705000       4.61127000       2.66259300      -0.52027900      -0.43962200
P       17.12988000       8.17216000       9.35508000      -1.16019000      -0.12128400      -0.59374800
P       16.12170000       6.39269000       8.45186000       0.06970900       0.65634900      -0.04613800
P       15.74389000       8.45077000       7.56637000       0.32349100      -1.26848400       0.87961200
P       14.90429000       7.89065000       9.53083000       0.69397500      -0.19246700      -0.04634100
P        3.95699000       6.81330000      12.71951000      -1.10825100       0.47655100       0.34718300
P        5.58345000       8.01383000      12.12671000       1.73226400       0.68066300       0.38161600
P        4.26220000       8.76199000      13.83772000       0.09725000      -0.52242700      -2.15343600
P        3.67527000       8.78640000      11.58075000      -0.52988000      -0.35456200       1.36383800
P        1.01983000       8.93949000      14.88483000      -1.89754300      -0.46452300      -0.47223200
P        2.45900000       8.55236000      16.32550000       0.61485000      -1.21211300       1.38863500
P        1.53976000       6.79518000      15.20026000       0.09411500       0.97993100       0.64046000
P        0.39531000       7.81703000      16.83387000       0.73436600       0.74220100      -1.50081100
P        6.11089000      12.48537000       4.19445000       0.79604100      -2.42042600       1.53229600
P        5.05776000      13.62600000       2.84621000      -0.76596200       1.95610000      -0.75810200
P        6.35435000      14.57964000       4.48239000      -0.75261200       0.32764800      -0.26914000
P        4.35606000      13.64102000       4.95309000       1.07062600      -0.42269400      -0.58197800
P        9.90000000      12.31790000       7.53923000      -0.84407600       0.82157100       0.14073400
P        8.94634000      14.24892000       6.79370000      -0.15088300      -1.51365700       1.07667300
P        8.91260000      13.71602000       9.04242000      -0.70989900      -1.02206100      -2.47001700
P        7.66022000      12.40318000       7.32798000       1.77156000       1.62844900       1.16544000
P        2.69679000      14.27808000      15.94839000      -1.37464900      -0.43305100      -0.35109200
P        2.86109000      12.91954000      14.26064000       1.40997500      -0.14153500      -1.34547800
P        1.32900000      14.50106000      14.14683000       0.35518200      -0.63082000       0.58848300
P        1.11737000      12.66089000      15.38832000      -0.45288700       0.89137900       1.30050900
P        0.19580000      11.36124000      18.52324000      -0.81117600      -0.21279600      -1.10927100
P        0.73462000      13.00233000       0.61568000      -0.21325100      -0.10074400       0.51060400
P        1.50957000      10.97325000       0.94404000       0.75568300      -0.26228800       0.73858700
P       18.60458000      11.35195000       1.36954000       0.19221300       0.54216600      -0.24185000
P        1.19715000      17.04527000       4.98874000       1.03747900      -0.08699100       0.68010800
P       18.42777000      16.21705000       5.00572000      -0.74432100      -1.32045800       0.87190800
P        0.94096000      14.88444000       4.38589000      -0.26126900       0.74763000       0.54485100
P        0.21693000      16.52856000       3.16165000      -0.05623800       0.36270600      -1.91351500
P        1.01236000       9.92171000       9.41814000      -0.40464400      -1.87994100       0.09180700
P        2.74727000      11.18371000       9.52578000       0.00598100       0.56569500       0.74033500
P        0.64855000      11.77436000      10.43653000       1.86044600       0.88926400      -0.17158300
P        1.06560000      11.70892000       8.28212000      -0.50517700       1.16275000      -1.18447100
P        3.80117000      14.58010000       9.21055000       1.27357300       0.20901100       2.02377100
P        2.24618000      16.10580000       9.15115000       0.10672900      -0.61091900      -1.18558800
P        3.10839000      14.84849000       7.29066000      -1.40448300       1.86905400      -0.46381700
P        4.19877000      16.60672000       8.25185000      -0.32075900      -1.20633300      -0.08340200
P       18.95602000      17.58850000      16.76564000       2.35159600      -0.19162000      -0.48425100
P        0.17738000      16.52856000      18.76414000      -1.48961400       1.54173000      -1.31924800
P       17.30463000      17.17667000      17.94221000      -0.83714600      -1.06658900       1.48298300
P       18.68312000      18.71819000      18.61599000       0.55423700      -0.58397200       0.39245400
P        3.75807000       6.26861000      18.83772000      -0.96763700       0.22550900       0.96310300
P        2.61018000       7.54484000       1.11055000       0.28757400       0.15914200      -0.55098600
P        3.24836000       5.54686000       1.67318000       0.09586300      -0.12716300      -0.11039900
P        1.62066000       5.81509000       0.21568000       0.52810700       0.01758800      -0.36439000
P        5.73652000       1.66169000       1.67546000       0.02249700       1.16178500       0.91025100
P        6.35060000       3.33481000       0.45547000      -0.07523800       0.57176900      -1.81346900
P        7.57211000       2.81834000       2.13116000       1.23934500      -1.54966100      -0.39878700
P        5.87254000       3.90499000       2.45391000      -2.70566200       0.20127700       0.79500400
P        5.42576000       3.49020000      10.25292000       0.64625100       1.17506400       0.22805700
P        7.27570000       2.17394000      10.41615000      -1.54193700      -0.06128800      -0.87808000
P        5.46932000       1.76824000       8.99459000       0.76761200      -0.80945400       0.50006700
P        5.29405000       1.57762000      11.22531000      -0.06375900      -0.72309100      -0.32097600
P        3.35427000       1.64202000      17.24673000      -0.34583300       1.46433700      -0.35598900
P        3.59075000       3.92502000      16.73871000      -0.70781000      -1.11008000       0.22851200
P        2.51259000       2.49734000      15.35809000       0.44210900       0.29193500       0.38362500
P        4.70537000       2.43007000      15.66162000      -0.13591000      -1.03727800       0.62352900
P        6.00329000       7.31035000       2.68615000       0.34561500       0.55612600       0.42323700
P        5.65367000       9.45857000       3.28249000       0.24570000      -0.64960300      -0.02666800
P        5.80178000       8.87166000       1.18198000      -0.10302800       0.06548000      -0.54326300
P        7.62584000       8.86331000       2.39779000      -1.00113100      -0.43575200       0.58743600
P        4.12384000       5.69345000       5.02247000      -0.32758100      -0.53964400      -0.26035700
P        2.54302000       4.19741000       5.60064000      -0.18555100       0.68820800      -0.27536700
P        3.89429000       5.02163000       7.08019000       0.46014500      -0.49403600       0.46751100
P        4.63139000       3.59978000       5.52944000       0.04234500       0.15678100       0.26583000
P        7.16902000       4.87340000      14.62399000       0.10604700      -0.23946400      -0.83990000
P        7.99426000       2.85086000      14.67026000      -0.88936600       0.11364000       0.60235100
P        8.00457000       3.76558000      12.78294000       0.38712400       1.74140700      -0.78192100
P        6.05554000       3.22750000      13.59782000       0.37843900       0.45072100      -0.00081400
P        5.93879000       7.92982000      16.15797000       0.80798400       0.17416700       0.28948200
P        7.04761000       9.53081000      17.26331000       0.41581900      -0.96737300      -1.72375800
P        7.50927000       9.02606000      14.99429000       0.08284100      -0.91682500       2.69306600
P        8.04625000       7.56964000      16.84954000      -0.74725300       1.34538700      -1.38883600
P        4.94900000       8.97033000       8.68462000       0.10800200       2.59637400       2.76196900
P        4.30612000       8.13572000       6.96665000      -1.63977000      -1.70573800      -2.62682700
P        6.42211000       8.21559000       7.41553000       1.11801400      -0.12659500      -1.49712300
P        5.27188000      10.02001000       6.64058000       0.44658700      -0.24928000       1.30465600
P       12.80679000      14.04805000      13.05353000       0.52819200      -1.36657400      -1.41974600
P       10.75922000      14.57376000      12.07256000       0.70500900      -1.14121400      -0.42032700
P       12.40551000      15.95804000      12.13510000       0.63917900       1.25175600      -0.45771000
P       11.41981000      15.30227000      13.95082000      -1.17983700       1.71013900       1.95932000
P        8.03025000      13.40002000      12.30374000      -1.83174200      -1.07941900       0.03913400
P        6.64961000      11.78925000      13.22450000       0.81061000       0.48470700      -1.43766900
P        7.13134000      11.85532000      10.93656000       0.57235700      -0.88852700       1.05423000
P        5.78934000      13.24394000      11.81660000       0.10884700       1.07638700       0.58767100
P        4.09323000      13.02198000      18.91425000       1.33395300      -0.83509600      -1.04853500
P        5.98284000      11.70095000      18.94398000       0.03791100       1.28338200       0.75225800
P        5.46713000      12.80773000      17.08314000       0.00170800       0.62650600       0.60045900
P        4.32896000      11.12687000      17.74827000      -1.62160200      -0.64513000      -0.15172200
P        5.05559000      16.96031000       4.90175000      -1.05102300       1.68819400      -1.52472300
P        5.77822000      17.89196000       2.94540000       0.54557100      -0.40693300       0.45416600
P        4.94873000      19.19351000       4.50598000      -0.31707600      -0.35965700      -0.19034200
P        3.61741000      17.96637000       3.18682000       0.99104900      -0.78377900       1.46645500
P        0.99805000       0.25706000       8.63286000       0.24302400       0.37110500      -0.53319800
P        1.84415000       2.32447000       8.51112000       0.01840600      -1.00518800      -0.50859000
P        2.82366000       0.61126000       7.39644000      -0.46528400       0.41127700       0.54819000
P        0.88468000       1.38543000       6.71146000       0.00811500       0.13994100       0.56266100
P        5.76379000      16.61532000      12.49207000       1.72602600       0.55433900      -0.40596500
P        6.89284000      18.36218000      13.30051000       0.08623800       0.04775200      -0.57677400
P        8.05816000      17.05147000      11.85371000      -2.14545100      -0.02972900       1.05756600
P        7.45823000      16.35327000      13.88960000       0.12055100      -0.05708000      -0.45333500
P        5.17089000      18.70417000      18.39844000      -0.00917400      -0.27156600      -0.04963000
P        4.29921000      17.60734000      16.68145000      -0.86917900       0.60480400      -0.32672000
P        3.66363000      17.11822000      18.77146000       0.71940600       0.05399700      -0.65239500
P        5.69981000      16.61851000      17.92467000       0.28388000      -0.45662700       1.05137800
P       11.22598000       4.75562000       0.52796000      -0.76448000      -0.27044800       1.02187100
P        9.93014000       6.37344000      19.08786000       0.45677400       0.60610200       0.64749000
P       11.47311000       6.67458000       1.53461000       0.02603300       0.66857900      -0.66147500
P        9.59330000       5.70135000       1.96221000       0.38943900      -0.93146300      -0.75743000
P       13.37881000       1.11059000       9.08733000       0.27046700      -0.11193900       0.23824300
P       11.75761000       0.80025000       7.67933000      -0.39549600      -0.99211100      -0.71205000
P       12.14276000       2.75668000       8.37330000       0.07171200       1.01197100       0.86667000
P       11.29240000       1.22808000       9.80404000       0.29852100       0.65294100      -1.20445300
P       12.24635000       1.09512000      12.66199000      -0.52069500      -0.79220400      -0.12644100
P       11.42555000      18.95326000      14.18471000      -0.50757300      -0.21734300      -0.52701600
P       10.49367000      18.88655000      12.07665000       0.94024400       0.67980200       1.66811200
P       10.20658000       1.44516000      13.47368000       0.42476300      -1.01398100      -0.73584600
P        8.86675000       2.64612000      17.78822000       0.91269700      -1.74270700       0.23472000
P        8.52097000       0.89704000      16.51900000      -0.80140000      -0.93874900      -0.52847000
P        9.08289000       0.40184000      18.52637000       0.76700300       1.47768900       0.09589400
P       10.58322000       1.28693000      17.01063000      -0.83906100       0.39628300       1.09308700
P       11.96338000       8.97750000       5.44827000      -0.56045000       1.00736000       1.11664600
P       11.69152000       9.50398000       3.42885000      -0.61176200       0.31425000      -1.27610800
P       11.37769000      11.17190000       4.84640000      -0.07323800      -1.77021600       0.33814400
P        9.87307000       9.44157000       4.74175000       1.39794100       0.55412000      -0.17863900
P        7.55811000       3.09112000       7.15441000       0.27806400      -0.09358900      -0.90268800
P        9.65009000       3.68199000       6.76873000      -0.10107100       0.01323200      -0.09134200
P        8.06466000       5.18320000       6.92929000      -0.05487400       0.50475700      -0.17782200
P        8.19354000       3.92545000       5.11067000      -0.18745900      -0.20104400       0.97976800
P       10.81156000       6.90340000      10.11828000      -0.44552100       0.20128000      -1.29529500
P        9.33618000       7.97780000      11.22671000      -0.68891400       0.68045300       1.32477600
P        8.63184000       6.58352000       9.72151000      -0.26740700      -1.40318300       0.45042300
P        9.40589000       8.45430000       9.11547000       1.37919400       0.54558300      -0.31323400
P       13.15428000      10.56645000      14.22044000      -0.53949900       0.79878900       0.62904700
P       11.21571000      10.51292000      13.24626000      -0.53828300       0.12464000       0.39253800
P       11.48807000      12.07750000      14.81499000       0.70461000      -0.95218600      -0.31387400
P       11.39912000       9.96333000      15.40614000      -0.18686400      -0.26188000      -0.21239100
P        9.55008000       9.70564000       0.50564000      -0.17722200       0.38107300      -0.75746800
P       11.43249000      10.57081000      19.07062000       0.45009500       0.24063900      -0.49194700
P       10.21666000      11.61198000       1.32834000       0.28688700       0.19682300       1.65208000
P        9.55110000      11.64830000      18.54070000      -0.02190200      -1.01226300      -1.03357200
P       12.88308000      10.26326000       8.96941000      -1.81442900      -1.09882400      -0.47118000
P       13.99480000      12.01897000       9.03791000       0.68414400       1.32026500       0.71536700
P       13.95881000      10.62830000      10.80361000      -1.09231900       1.36504300      -0.42560000
P       12.06924000      11.99888000      10.20258000       1.79427500      -1.45694600      -0.18990900
P       16.11458000      17.37923000      12.66646000       0.42133900      -0.25093200       0.02737900
P       16.28637000      15.86478000      14.30823000       1.01381700       0.75344800      -0.21889900
P       16.92145000      18.09185000      14.61581000      -0.75711200      -1.33580100      -0.51953700
P       14.82067000      17.41593000      14.39838000      -0.81649100       0.72182900       0.44920100
P       15.10673000      12.38953000      16.69332000       0.93547800       0.91670500      -0.64553700
P       15.92314000      13.81202000      18.29684000      -1.43207200      -0.56091000      -1.10445700
P       13.82737000      12.92986000      18.28495000      -0.24590500       0.90024900       0.70748200
P       14.33578000      14.52693000      16.79253000       0.60554800      -1.14138400       0.77299800
P        8.85910000      14.38026000       2.94845000      -0.52779400      -0.09270100       0.64851500
P       10.02418000      16.07734000       3.91173000      -0.26811900      -1.17946200      -2.43706300
P        9.32493000      16.02121000       1.59164000      -0.08188300       0.86185000       1.30962200
P       10.85001000      14.66000000       2.24194000       1.20417200       0.34591000       0.54534000
P        7.35910000      17.10546000       8.34280000       0.98358100       0.21193600      -0.42905400
P        8.86465000      17.63154000       6.71042000      -0.02018200      -1.09991000       0.03683200
P        8.81610000      18.82140000       8.52222000      -1.43377300      -0.01467000      -0.56973600
P        7.05385000      18.75987000       6.95397000       0.35426500       0.83794000       0.83167600
P       15.89359000      10.95022000      12.93066000       1.30655500       0.70588100       0.18778400
P       17.86874000      10.90178000      11.83193000      -1.23865800      -0.60329900      -1.05121900
P       17.90694000      11.16431000      13.90770000      -0.27418700       0.22016200       1.41116900
P       17.15663000      12.81163000      12.64841000      -0.32275400      -0.53125500       0.18125900
P        9.02317000      16.54675000      17.69035000      -0.87342100      -1.21840400      -0.47902600
P       10.10480000      14.82033000      16.90386000       0.46822700      -0.40054500       0.70370800
P        8.02054000      14.93310000      16.35162000       0.11478500       0.34899300       1.09827600
P        8.52372000      14.43449000      18.50218000       0.41118700       1.08605700      -1.15415400
P        9.98052000       0.91229000       4.78868000      -0.48647600      -0.17717200      -1.20809100
P        9.76943000      19.03733000       2.71946000       1.48317000       0.80024000       1.44934700
P       11.78431000       0.93543000       3.55416000      -1.34580600      -0.81699800      -0.89199300
P        9.91124000       1.98745000       2.78328000       1.76724300      -0.01479900       0.92226800
P       16.41151000       3.71180000      11.35452000       0.33634700      -1.14743400      -0.13615400
P       16.02521000       1.47939000      11.39098000      -1.93306800      -0.36970400       1.54498400
P       17.96472000       2.11518000      11.00496000       0.85088800       1.36636800      -0.91967700
P       16.29290000       2.44114000       9.51842000       0.90802100       0.64858200      -0.50841000
P       17.78877000       1.72056000      14.44572000       0.34384500       0.31316900       0.07417100
P       18.37134000       1.89136000      16.57890000      -1.39809300       0.19991800      -0.23322700
P       16.38994000       2.88979000      15.70916000       2.04342300      -0.49628400       0.13580100
P       18.50470000       3.63685000      15.30711000      -0.71337700       0.21338100      -0.46523600
P       12.32407000       5.95145000      14.41021000       0.46394600       2.05831600      -1.53188100
P       11.59373000       4.69360000      15.89847000       0.28665100      -1.86357600      -0.01253300
P       13.66084000       4.34281000      14.92716000      -0.35269500      -0.14200100       0.98713800
P       11.89696000       3.91373000      13.74073000      -0.62136600       0.56846600       0.82499900
P        0.22156000       6.28063000       3.02048000      -0.75411200       0.76968500       1.24112400
P       17.67966000       6.87054000       4.55448000       1.25831500      -0.02960600      -1.06636500
P       17.40846000       5.51499000       2.84815000      -0.42154700       0.49608600      -0.53036500
P       17.81947000       7.75472000       2.49021000       0.00859700      -1.40079900       0.46288900
P       14.09780000       3.98284000       6.20048000      -0.04840700       0.08886500       0.35425600
P       12.36285000       4.29617000       4.90383000       1.05274400       1.40033000       0.45652300
P       14.42100000       5.29084000       4.47173000      -1.87982800       0.35887600       1.47201100
P       13.09669000       5.99980000       6.41213000       0.67559400      -1.90821000      -2.28325200
P       15.72891000       8.22235000      14.34060000      -0.38951300       1.51855000      -0.71102900
P       15.03467000       6.77304000      12.76465000       0.71996700       1.11051600      -0.31837900
P       16.11610000       6.19548000      14.51760000       1.81301000      -1.52861800      -0.10608300
P       17.25029000       7.45975000      12.87041000      -1.83989600      -1.02658000       1.23669500
P       15.87546000       1.93586000       0.19323000       0.70163300      -1.28574000      -0.14021700
P       16.16498000       4.02419000      18.94146000       0.07691800       0.54206900      -0.20926500
P       14.52177000       3.36155000       1.02344000      -0.66293500       0.67709000       0.47282900
P       14.46105000       2.92363000      18.07343000      -0.09602000       0.36694100       0.12742300
P       14.24185000      15.90057000       2.23156000      -0.06808500      -1.44736500       0.45800100
P       15.75255000      15.02278000       3.57084000       1.51243200       0.08080000      -0.54275600
P       14.53652000      13.62016000       2.34641000       0.83639100       0.24352600      -1.17021700
P       13.74989000      14.61396000       4.00151000      -2.29847900       0.99109600       1.45176300
P       17.36657000      12.14807000       5.20848000       0.20575100       0.11204000       0.03918700
P       16.67008000      11.03775000       7.02773000       0.12770400       2.09103600       0.31602900
P       15.71051000      10.68473000       5.17485000      -0.74468700       0.95469700      -0.91310900
P       15.44099000      12.86230000       5.95187000       0.26781100      -1.99220800       0.77855900
P       16.63801000      14.76949000       9.99372000       0.58804200      -0.36782500      -1.01828500
P       17.62311000      16.67805000       9.67581000      -0.13801300       1.05407900      -0.58230800
P       18.22682000      15.03718000       8.30414000      -1.63033100      -0.06728500      -0.79146800
P       18.79349000      15.01723000      10.30507000       1.03549300      -0.76545200       2.38269100
P       14.25793000       8.24436000       0.29885000       0.73844400      -0.30386100       0.15809100
P       15.29435000       9.56155000      18.04078000      -0.89915000      -1.20231400      -0.14092700
P       13.39339000       8.37584000      17.54196000       0.51715100       0.49213100      -0.52455100
P       15.31600000       7.31613000      17.73457000      -0.30195700       0.64151500       0.60429100
P       12.09672000      17.65250000      19.19712000       0.61823700      -2.04865900      -0.67271000
P       13.07278000       0.20349000      18.74188000       0.78077700       1.32685000      -1.28677300
P       13.11498000      17.77546000      17.07300000      -0.60899500       0.76619300       2.02612500
P       14.42997000      17.70393000      18.86940000      -1.22587600      -0.15983000       0.10824700
P       14.12663000      16.08888000       7.23556000       1.09550600      -0.44772900       0.75296100
P       12.52932000      15.00409000       8.35433000      -0.06910000       0.36123800      -0.86151300
P       12.14626000      16.78241000       6.97946000      -0.89866100      -0.08368000       0.92035900
P       13.10301000      16.99928000       9.01336000       0.12250000       0.14438000      -0.80415900
248
Lattice="19.577111 0.0 0.0 0.0 19.577111 0.0 0.0 0.0 19.577111" Properties=species:S:1:pos:R:3:forces:R:3 energy=-1307.028317948878 hash=4bc068354c7e0ac46aabe6d5394a67ac virial="-22.3820422846 4.77856345205 -10.971851059 4.77856345205 -12.0118786678 -7.89218357075 -10.971851059 -7.89218357075 5.6096770135" config_type=liq_12_03_01_liqP4 pressure=-0.0012787562287043448 uploaded="2020-04-10 10:56:37.921000" hash_structure=43c6885f842ce4cccfd1f4be8a6457e1 filename=liq_12_03_01_liqP4/liq_12_03_01_liqP4_mbd2.xyz username=gabor stress="0.0056999000731132 -0.0011823614681601624 0.0017233835208768098 -0.0011823614681601624 0.00426620142925062 0.0005228551074352611 0.0017233835208768098 0.0005228551074352611 0.0017431111361695306" volume=7503.187678979971 n_atoms=248 free_energy=-1310.13427812 modified="2020-04-10 10:56:37.921000" formula=P248 miguel_caro=T pbc="T T T"
P        1.20759000       0.46672000      19.22911000       2.21530200       0.37553500      -1.93245600
P        2.95215000       1.02081000       1.16347000      -0.59321300       0.01491600      -1.27203000
P        1.70616000      18.83212000       1.32034000      -0.52810700      -0.12961400       0.95144400
P        0.80677000       1.36470000       1.46699000      -0.39964400      -0.07599300       1.90930500
P       16.32430000       1.25370000       5.41599000      -0.83542000      -0.34244300      -0.29162300
P       16.26024000      19.27944000       3.74432000      -0.41003100       0.89174400      -0.10036500
P       17.64350000      19.10984000       5.35356000       0.67648000      -1.20424400       1.59165000
P       17.94761000       1.12911000       3.99258000       0.34894500       0.58702000      -1.07750500
P        2.99970000       6.46959000      11.85654000      -1.01037300       0.71142400      -0.67008900
P        1.08490000       5.55594000      12.88266000       0.37277700       1.31365800      -1.73084300
P        3.07441000       5.04087000      13.39948000       1.03379000      -1.71344300       0.56082500
P        2.32829000       4.44737000      11.32495000      -0.36429200       0.12484200       1.25524200
P       19.31787000      19.27645000      11.73511000       1.61826400      -0.16087200       1.86044900
P        1.66981000       0.54017000      12.95568000      -2.02211700      -1.84141400      -0.54665600
P        1.44876000      17.98549000      12.15416000       0.23755600       0.42450200       0.90000500
P        0.11887000      18.61419000      13.89930000       1.32292200       0.54703000      -1.55688200
P        1.21946000       8.18785000       4.88441000      -0.29399900       0.50147400       0.00120200
P        2.56106000       9.74793000       4.12576000       0.70663600      -0.25342200      -0.50147400
P        0.56623000      10.34333000       4.65324000      -0.60000600      -0.60432100       0.18388300
P        0.86116000       9.03789000       2.87500000       0.23196400       0.06052100       0.29923700
P       18.49144000       8.11203000       9.91675000       0.53126800      -0.42395400      -0.17661200