104
Lattice="14.752975 0.0 0.0 0.0 12.828814 0.0 0.0 0.0 12.8717" Properties=species:S:1:pos:R:3:forces:R:3 energy=-566.047127421745 hash=65caec19db865b84795faa891699f15e virial="26.5960839552 0.0 0.0 0.0 -8.69836786862 0.0 0.0 0.0 9.45073549841" config_type=rss_3c pressure=0.0037420489448516097 uploaded="2020-04-10 10:56:53.323000" hash_structure=f5bb3ec5005e822dba26f0166ed6c15a filename=rss_3c/rss_3c_mbd2.xyz username=gabor stress="0.0009255835604158652 0.0 -0.0 0.0 0.007243667802986185 1.1493598107033383e-07 -0.0 1.1493598107033383e-07 0.003136348422308469" volume=2436.138773885412 n_atoms=104 free_energy=-570.88456 modified="2020-04-10 10:56:53.323000" formula=P104 miguel_caro=T pbc="T T T"
P        5.55284000       1.54336000       4.79899000       0.01494200       0.13993000      -0.03771100
P        3.40593000       1.92310000       4.54218000      -0.05468300       0.35199500      -0.05825000
P        2.83521000      12.72241000       5.14557000      -0.39549000       0.08797800       0.04011200
P        0.61386000       0.19271000       4.91270000       0.08754500      -0.31122400       0.06658000
P        6.32144000       3.56955000       4.26074000      -0.09907800      -0.22706000      -0.22791600
P        4.67563000       3.69629000       7.41183000       0.05604500       0.23841100      -0.16484300
P        2.84625000       3.29862000       6.23727000      -0.09273200      -0.44297800      -0.07733800
P        1.91349000       1.94200000       7.76613000      -0.03981000       0.33305300      -0.19525800
P        0.02843000       1.52844000       6.62131000      -0.01468400       0.34569000       0.33787300
P        5.98915000       4.94149000       6.02491000      -0.12979000      -0.06875900      -0.07005800
P        5.84247000       1.90315000       6.94732000       0.12299900      -0.47631100       0.42384300
P        2.80712000      12.81238000       7.35081000       0.19304000      -0.26674100       0.11706000
P        4.90134000       0.16568000       7.93271000       0.21534900      -0.03844300       0.05684400
P        9.20015000       4.87104000       4.79899000      -0.01499600      -0.13996500      -0.03773700
P       11.34706000       4.49130000       4.54218000       0.05465900      -0.35194500      -0.05827800
P       11.91778000       6.52081000       5.14557000       0.39540100      -0.08800700       0.04009900
P       14.13912000       6.22169000       4.91270000      -0.08746900       0.31126800       0.06658400
P        8.43153000       2.84485000       4.26074000       0.09913600       0.22710900      -0.22790200
P       10.07734000       2.71812000       7.41183000      -0.05589700      -0.23854000      -0.16482800
P       11.90673000       3.11579000       6.23727000       0.09271700       0.44290800      -0.07727800
P       12.83948000       4.47241000       7.76613000       0.03994500      -0.33305500      -0.19527800
P       14.72456000       4.88597000       6.62131000       0.01453200      -0.34574400       0.33793600
P        8.76383000       1.47291000       6.02491000       0.12975700       0.06879600      -0.07005500
P        8.91052000       4.51125000       6.94732000      -0.12312600       0.47641900       0.42377300
P       11.94585000       6.43084000       7.35081000      -0.19292500       0.26675800       0.11703600
P        9.85164000       6.24872000       7.93271000      -0.21541600       0.03849600       0.05687000
P        5.55284000      11.28544000       1.63686000       0.01493400      -0.13983900       0.03771000
P        3.40593000      10.90571000       1.89367000      -0.05470000      -0.35200600       0.05825100
P        2.83521000       0.10640000       1.29028000      -0.39548200      -0.08797200      -0.04011400
P        0.61386000      12.63610000       1.52315000       0.08754400       0.31128700      -0.06657500
P        6.32144000       9.25926000       2.17511000      -0.09905800       0.22700000       0.22792900
P        4.67563000       9.13252000      11.89572000       0.05604600      -0.23841300       0.16483800
P        2.84625000       9.53019000       0.19858000      -0.09274000       0.44297900       0.07733800
P        1.91349000      10.88681000      11.54142000      -0.03981500      -0.33304500       0.19526200
P        0.02843000      11.30038000      12.68624000      -0.01467700      -0.34576500      -0.33788000
P        5.98915000       7.88732000       0.41094000      -0.12979300       0.06875000       0.07005500
P        5.84247000      10.92566000      12.36023000       0.12300000       0.47630100      -0.42386000
P        2.80712000       0.01643000      11.95674000       0.19304300       0.26674300      -0.11706000
P        4.90134000      12.66313000      11.37484000       0.21534900       0.03844700      -0.05683800
P        9.20015000       7.95776000       1.63686000      -0.01499700       0.14006000       0.03773000
P       11.34706000       8.33751000       1.89367000       0.05464300       0.35195600       0.05825600
P       11.91778000       6.30800000       1.29028000       0.39540700       0.08801600      -0.04010700
P       14.13912000       6.60712000       1.52315000      -0.08747400      -0.31126300      -0.06658600
P        8.43153000       9.98396000       2.17511000       0.09915800      -0.22717200       0.22789000
P       10.07734000      10.11070000      11.89572000      -0.05592000       0.23845500       0.16483800
P       11.90673000       9.71303000       0.19858000       0.09270700      -0.44296300       0.07730500
P       12.83948000       8.35641000      11.54142000       0.03993100       0.33297400       0.19530100
P       14.72456000       7.94284000      12.68624000       0.01452100       0.34575500      -0.33794000
P        8.76383000      11.35590000       0.41094000       0.12974100      -0.06878400       0.07007100
P        8.91052000       8.31756000      12.36023000      -0.12308900      -0.47637400      -0.42376900
P       11.94585000       6.39797000      11.95674000      -0.19289700      -0.26668000      -0.11705200
P        9.85164000       6.58009000      11.37484000      -0.21541300      -0.03848900      -0.05687100
P        9.20015000      11.28544000       8.07271000      -0.01498400      -0.13987800       0.03772800
P       11.34706000      10.90571000       8.32952000       0.05466700      -0.35202300       0.05827200
P       11.91778000       0.10640000       7.72613000       0.39540200      -0.08795400      -0.04011900
P       14.13912000      12.63610000       7.95900000      -0.08746200       0.31127500      -0.06659500
P        8.43153000       9.25926000       8.61096000       0.09911900       0.22704900       0.22791500
P       10.07734000       9.13252000       5.45987000      -0.05592300      -0.23845900       0.16483100
P       11.90673000       9.53019000       6.63443000       0.09271400       0.44294800       0.07730400
P       12.83948000      10.88681000       5.10557000       0.03994000      -0.33301800       0.19529100
P       14.72456000      11.30038000       6.25039000       0.01452300      -0.34577000      -0.33792200
P        8.76383000       7.88732000       6.84679000       0.12975500       0.06874700       0.07007700
P        8.91052000      10.92566000       5.92438000      -0.12309200       0.47634900      -0.42380400
P       11.94585000       0.01643000       5.52089000      -0.19290700       0.26673700      -0.11704200
P        9.85164000      12.66313000       4.93899000      -0.21540500       0.03846300      -0.05687400
P        5.55284000       7.95776000       8.07271000       0.01494700       0.14002100       0.03771200
P        3.40593000       8.33751000       8.32952000      -0.05467600       0.35193900       0.05823600
P        2.83521000       6.30800000       7.72613000      -0.39548700       0.08803400      -0.04010200
P        0.61386000       6.60712000       7.95900000       0.08755700      -0.31127400      -0.06656600
P        6.32144000       9.98396000       8.61096000      -0.09909700      -0.22712300       0.22790400
P        4.67563000      10.11070000       5.45987000       0.05604400       0.23841000       0.16484500
P        2.84625000       9.71303000       6.63443000      -0.09273200      -0.44299300       0.07733900
P        1.91349000       8.35641000       5.10557000      -0.03980500       0.33300100       0.19527300
P        0.02843000       7.94284000       6.25039000      -0.01467500       0.34575000      -0.33789900
P        5.98915000      11.35590000       6.84679000      -0.12977800      -0.06878700       0.07004900
P        5.84247000       8.31756000       5.92438000       0.12299600      -0.47632600      -0.42382500
P        2.80712000       6.39797000       5.52089000       0.19303400      -0.26668600      -0.11707000
P        4.90134000       6.58009000       4.93899000       0.21535700      -0.03847400      -0.05683500
P        9.20015000       1.54336000      11.23484000      -0.01499200       0.13996900      -0.03772900
P       11.34706000       1.92310000      10.97803000       0.05465000       0.35201200      -0.05827000
P       11.91778000      12.72241000      11.58142000       0.39540900       0.08796000       0.04011600
P       14.13912000       0.19271000      11.34855000      -0.08746300      -0.31121200       0.06660000
P        8.43153000       3.56955000      10.69659000       0.09914000      -0.22710900      -0.22790200
P       10.07734000       3.69629000       0.97598000      -0.05592100       0.23845700      -0.16483600
P       11.90673000       3.29862000      12.67312000       0.09270600      -0.44294800      -0.07730300
P       12.83948000       1.94200000       1.33028000       0.03993500       0.33302600      -0.19528700
P       14.72456000       1.52844000       0.18546000       0.01453000       0.34569500       0.33791500
P        8.76383000       4.94149000      12.46076000       0.12975300      -0.06875600      -0.07008100
P        8.91052000       1.90315000       0.51147000      -0.12309100      -0.47635800       0.42378700
P       11.94585000      12.81238000       0.91496000      -0.19290300      -0.26673500       0.11704100
P        9.85164000       0.16568000       1.49686000      -0.21540500      -0.03845900       0.05688000
P        5.55284000       4.87104000      11.23484000       0.01494600      -0.13992600      -0.03771800
P        3.40593000       4.49130000      10.97803000      -0.05469200      -0.35192800      -0.05825800
P        2.83521000       6.52081000      11.58142000      -0.39548100      -0.08802500       0.04009400
P        0.61386000       6.22169000      11.34855000       0.08755100       0.31128000       0.06656400
P        6.32144000       2.84485000      10.69659000      -0.09907500       0.22706000      -0.22791600
P        4.67563000       2.71812000       0.97598000       0.05602000      -0.23849400      -0.16483500
P        2.84625000       3.11579000      12.67312000      -0.09274300       0.44293800      -0.07731300
P        1.91349000       4.47241000       1.33028000      -0.03982000      -0.33308200      -0.19524900
P        0.02843000       4.88597000       0.18546000      -0.01468600      -0.34573900       0.33789400
P        5.98915000       1.47291000      12.46076000      -0.12979400       0.06879900      -0.07003300
P        5.84247000       4.51125000       0.51147000       0.12303400       0.47637100       0.42382900
P        2.80712000       6.43084000       0.91496000       0.19306200       0.26676400       0.11705400
P        4.90134000       6.24872000       1.49686000       0.21536000       0.03848100       0.05683400
104
Lattice="14.889483 0.0 0.0 0.0 12.391801 -1e-06 0.0 -2e-06 13.347013" Properties=species:S:1:pos:R:3:forces:R:3 energy=-565.643197740189 hash=2a03cfe65dbe78e74669f4a756e0817d virial="26.3757318784 0.0 0.0 0.0 11.6352465281 -0.0 0.0 -0.0 5.35105200861" config_type=rss_3c pressure=0.005869352902749718 uploaded="2020-04-10 10:56:53.293000" hash_structure=389247ae759652655bed27dccf1a710e filename=rss_3c/rss_3c_mbd2.xyz username=gabor stress="-0.00022712763639068666 1.218212699429782e-08 -1.218212699429782e-08 1.218212699429782e-08 0.00161302325318798 -7.309276196578692e-08 -1.218212699429782e-08 -7.309276196578692e-08 0.005422666735352771" volume=2462.6241389572056 n_atoms=104 free_energy=-569.77517532 modified="2020-04-10 10:56:53.293000" formula=P104 miguel_caro=T pbc="T T T"
P       13.33855000       1.06165000      11.95313000      -0.29716000       0.24693900       0.20244300
P       11.16165000       1.34697000      11.59177000      -0.09168500       0.24321700       0.20714100
P       10.27593000      11.89413000      12.35433000      -0.19401300       0.42127100      -0.11264100
P        8.16584000       0.09854000      11.85261000       0.02258600      -0.18478500       0.11762500
P       13.77690000       3.12620000      11.20159000       0.10927800       0.14669000      -0.22976400
P       12.15737000       3.40535000       0.98354000       0.27408500      -0.09494200      -0.05882700
P       10.45252000       2.90202000      13.05469000      -0.09232400      -0.30437200      -0.31330600
P        9.40458000       1.86157000       1.37042000      -0.01696300       0.01522200      -0.23400200
P        7.55619000       1.51609000       0.15572000       0.12921900       0.27686000       0.20043400
P       13.37872000       4.56250000      12.87660000       0.12220500      -0.05362700      -0.28802600
P       13.41294000       1.59319000       0.76070000       0.12767700      -0.13217300       0.22562000
P       10.24094000      12.20672000       1.19632000      -0.11240500      -0.14956900      -0.03547600
P       12.35360000      12.32120000       1.74348000       0.20718100      -0.04798500      -0.14754500
P        1.55096000       5.13427000      11.95313000       0.29734500      -0.24694500       0.20242500
P        3.72788000       4.84895000      11.59177000       0.09156400      -0.24314100       0.20718300
P        4.61360000       6.69360000      12.35433000       0.19399300      -0.42136600      -0.11267500
P        6.72369000       6.09738000      11.85261000      -0.02259500       0.18483000       0.11763300
P        1.11262000       3.06972000      11.20159000      -0.10927500      -0.14670100      -0.22975700
P        2.73215000       2.79057000       0.98354000      -0.27400300       0.09500800      -0.05884400
P        4.43701000       3.29390000      13.05469000       0.09223300       0.30437500      -0.31330000
P        5.48494000       4.33435000       1.37042000       0.01703400      -0.01506900      -0.23401300
P        7.33334000       4.67984000       0.15572000      -0.12927800      -0.27689100       0.20048000
P        1.51081000       1.63342000      12.87660000      -0.12227700       0.05363700      -0.28804800
P        1.47659000       4.60274000       0.76070000      -0.12768800       0.13213100       0.22562700
P        4.64859000       6.38102000       1.19632000       0.11243100       0.14942700      -0.03545900
P        2.53593000       6.26653000       1.74348000      -0.20717100       0.04800000      -0.14755700
P        5.89381000       5.13427000       8.06739000      -0.29717900      -0.24691900      -0.20241600
P        3.71691000       4.84895000       8.42875000      -0.09171500      -0.24315600      -0.20716500
P        2.83119000       6.69360000       7.66619000      -0.19399100      -0.42134800       0.11269000
P        0.72110000       6.09738000       8.16790000       0.02259700       0.18485200      -0.11751300
P        6.33215000       3.06972000       8.81893000       0.10936100      -0.14669000       0.22977100
P        4.71263000       2.79057000       5.68996000       0.27411700       0.09500600       0.05889500
P        3.00778000       3.29390000       6.96583000      -0.09228800       0.30438300       0.31328900
P        1.95984000       4.33435000       5.30309000      -0.01694700      -0.01507400       0.23399700
P        0.11145000       4.67984000       6.51779000       0.12920700      -0.27693000      -0.20050400
P        5.93398000       1.63342000       7.14392000       0.12217800       0.05366000       0.28799100
P        5.96820000       4.60274000       5.91281000       0.12762100       0.13210000      -0.22568400
P        2.79620000       6.38102000       5.47719000      -0.11252000       0.14941200       0.03545300
P        4.90885000       6.26653000       4.93003000       0.20726000       0.04793700       0.14751800
P        8.99570000       1.06165000       8.06739000       0.29735500       0.24696900      -0.20241100
P       11.17262000       1.34698000       8.42875000       0.09155800       0.24309800      -0.20715600
P       12.05834000      11.89413000       7.66619000       0.19396300       0.42133600       0.11267500
P       14.16843000       0.09854000       8.16790000      -0.02259000      -0.18477700      -0.11750800
P        8.55736000       3.12620000       8.81893000      -0.10932200       0.14671000       0.22976400
P       10.17689000       3.40535000       5.68996000      -0.27397300      -0.09495100       0.05890400
P       11.88175000       2.90202000       6.96583000       0.09221100      -0.30429100       0.31326200
P       12.92968000       1.86157000       5.30309000       0.01707000       0.01520400       0.23397500
P       14.77808000       1.51609000       6.51779000      -0.12924600       0.27689500      -0.20049700
P        8.95555000       4.56250000       7.14392000      -0.12223500      -0.05362700       0.28804400
P        8.92133000       1.59319000       5.91281000      -0.12771800      -0.13219500      -0.22565300
P       12.09333000      12.20672000       5.47719000       0.11238800      -0.14959400       0.03544800
P        9.98067000      12.32120000       4.93003000      -0.20717300      -0.04797900       0.14751900
P        1.55096000      11.33017000       1.39388000       0.29734200      -0.24695000      -0.20243300
P        3.72788000      11.04485000       1.75524000       0.09155900      -0.24310500      -0.20715600
P        4.61360000       0.49770000       0.99268000       0.19397300      -0.42136000       0.11268500
P        6.72369000      12.29329000       1.49440000      -0.02259800       0.18477400      -0.11762900
P        1.11262000       9.26562000       2.14542000      -0.10926900      -0.14666800       0.22978800
P        2.73215000       8.98647000      12.36347000      -0.27393200       0.09498100       0.05886000
P        4.43701000       9.48980000       0.29233000       0.09225200       0.30438800       0.31319200
P        5.48494000      10.53025000      11.97659000       0.01700800      -0.01509500       0.23406700
P        7.33334000      10.87574000      13.19129000      -0.12928200      -0.27687700      -0.20047300
P        1.51081000       7.82933000       0.47041000      -0.12226700       0.05354600       0.28805100
P        1.47659000      10.79863000      12.58631000      -0.12768900       0.13225700      -0.22564800
P        4.64859000       0.18512000      12.15069000       0.11243600       0.14941000       0.03546100
P        2.53593000       0.07063000      11.60353000      -0.20718400       0.04791700       0.14756700
P       13.33855000       7.25756000       1.39388000      -0.29716700       0.24686300      -0.20244900
P       11.16165000       7.54288000       1.75524000      -0.09169600       0.24310000      -0.20711000
P       10.27593000       5.69823000       0.99268000      -0.19398600       0.42133100       0.11267100
P        8.16584000       6.29444000       1.49440000       0.02258800      -0.18476400      -0.11763100
P       13.77690000       9.32210000       2.14542000       0.10928600       0.14675100       0.22978500
P       12.15737000       9.60125000      12.36347000       0.27403500      -0.09496100       0.05885900
P       10.45252000       9.09792000       0.29233000      -0.09232400      -0.30430900       0.31317800
P        9.40458000       8.05747000      11.97659000      -0.01693300       0.01516800       0.23405000
P        7.55619000       7.71199000      13.19129000       0.12921600       0.27681200      -0.20045100
P       13.37872000      10.75840000       0.47041000       0.12220800      -0.05360900       0.28802800
P       13.41294000       7.78909000      12.58631000       0.12767900      -0.13215600      -0.22563200
P       10.24094000       6.01081000      12.15069000      -0.11242700      -0.14948300       0.03546500
P       12.35360000       6.12530000      11.60353000       0.20717400      -0.04800400       0.14755100
P        8.99570000       7.25755000       5.27962000       0.29734500       0.24698300       0.20250000
P       11.17262000       7.54288000       4.91827000       0.09154100       0.24309800       0.20708300
P       12.05834000       5.69823000       5.68082000       0.19398200       0.42131900      -0.11257800
P       14.16843000       6.29444000       5.17911000      -0.02257700      -0.18477100       0.11757900
P        8.55736000       9.32210000       4.52808000      -0.10931700       0.14670600      -0.22976100
P       10.17689000       9.60125000       7.65705000      -0.27397000      -0.09494000      -0.05888500
P       11.88175000       9.09792000       6.38118000       0.09222100      -0.30427500      -0.31324100
P       12.92968000       8.05747000       8.04392000       0.01705200       0.01522400      -0.23393000
P       14.77808000       7.71199000       6.82923000      -0.12923300       0.27685600       0.20043700
P        8.95555000      10.75840000       6.20309000      -0.12225000      -0.05364800      -0.28802000
P        8.92133000       7.78909000       7.43421000      -0.12772300      -0.13220100       0.22556100
P       12.09333000       6.01082000       7.86983000       0.11238800      -0.14961600      -0.03554000
P        9.98067000       6.12530000       8.41699000      -0.20718000      -0.04799400      -0.14755200
P        5.89381000      11.33017000       5.27962000      -0.29716900      -0.24693400       0.20250500
P        3.71691000      11.04485000       4.91827000      -0.09170500      -0.24315000       0.20709100
P        2.83119000       0.49770000       5.68082000      -0.19399300      -0.42133700      -0.11258800
P        0.72110000      12.29329000       5.17911000       0.02258100       0.18478100       0.11757700
P        6.33215000       9.26562000       4.52808000       0.10935500      -0.14668700      -0.22976900
P        4.71263000       8.98647000       7.65705000       0.27411200       0.09499500      -0.05887500
P        3.00778000       9.48980000       6.38118000      -0.09229800       0.30437000      -0.31326700
P        1.95984000      10.53025000       8.04392000      -0.01692300      -0.01507700      -0.23395700
P        0.11145000      10.87574000       6.82923000       0.12921700      -0.27689600       0.20038900
P        5.93398000       7.82932000       6.20309000       0.12219400       0.05368400      -0.28796800
P        5.96820000      10.79864000       7.43421000       0.12762500       0.13211400       0.22559300
P        2.79620000       0.18512000       7.86983000      -0.11252400       0.14942100      -0.03554100
P        4.90885000       0.07063000       8.41699000       0.20726600       0.04794800      -0.14755200
104
Lattice="12.943911 0.24864 -0.016578 0.24758 13.078507 -0.10008 -0.023239 -0.133746 16.279084" Properties=species:S:1:pos:R:3:forces:R:3 energy=-563.190964041556 hash=e4724269cb8291177014383e86479694 virial="9.43688046502 -2.29643045408 -1.48755793306 -2.29643045408 17.2412984863 -0.689551531013 -1.48755793306 -0.689551531013 -1.39997563866" config_type=rss_3c pressure=0.0030588429534144515 uploaded="2020-04-10 10:56:53.299000" hash_structure=2f85a93544bd858272d2942ccbbe2898 filename=rss_3c/rss_3c_mbd2.xyz username=gabor stress="0.0015812631529307948 0.00017566968766867953 0.0003882405010663608 0.00017566968766867953 -1.9316368913331896e-05 0.0002320287606586208 0.0003882405010663608 0.0002320287606586208 -0.0013960568929758303" volume=2754.658509512892 n_atoms=104 free_energy=-568.50559371 modified="2020-04-10 10:56:53.299000" formula=P104 miguel_caro=T pbc="T T T"
P       11.56466000      11.71978000       2.43582000      -0.33940100       0.00539100      -0.41498300
P       11.51399000      10.28244000       4.11301000      -0.18016700      -0.17031400      -0.15089000
P       11.50866000      11.84246000       5.67230000      -0.37428000      -0.10393400       0.52618100
P       11.32961000      10.55544000       7.56835000       0.29611100       0.20961800      -0.12561400
P       11.36653000      10.43519000       0.54418000       0.38039600       0.18307100       0.12568500
P        8.41953000      10.30399000       2.34860000       0.31460900      -0.23755200       0.03310200
P        9.47892000       9.35829000       4.07124000      -0.04550100       0.13882800       0.01518600
P        8.37528000      10.36833000       5.72777000       0.40619100      -0.27525200       0.06697900
P        9.52161000       9.27819000       7.32820000      -0.44995900      -0.36141500      -0.24869600
P        9.55102000       9.18788000       0.76564000      -0.46169600      -0.63679600       0.28543800
P        9.42757000      12.27072000       2.11207000      -0.09202200       0.19145500       0.12222600
P        9.36073000      12.35953000       5.93696000      -0.14821600       0.12375400      -0.14848700
P        8.55582000      12.90350000       3.99024000      -0.25777900       0.72340300       0.06696500
P        1.67220000       1.41810000       2.34905000       0.37426700       0.10759400      -0.53021400
P        1.66806000       2.97743000       3.90906000       0.17343500       0.16622900       0.15631500
P        1.61706000       1.53883000       5.58569000       0.34087100       0.00070100       0.41893700
P        1.81424000       2.82386000       7.47870000      -0.39774300      -0.19016400      -0.13756600
P        1.84999000       2.70680000       0.45327000      -0.29709700      -0.20417000       0.12964100
P        4.80419000       2.89448000       2.29303000      -0.40123000       0.27205200      -0.06255600
P        3.70225000       3.90173000       3.95210000       0.04890100      -0.13683300      -0.01848000
P        4.76254000       2.95520000       5.67444000      -0.31844700       0.23800300      -0.03991600
P        3.62796000       4.07029000       7.25545000       0.47488200       0.65172900      -0.27541900
P        3.65850000       3.98484000       0.69258000       0.44530900       0.35388400       0.24978600
P        3.81996000       0.90254000       2.08223000       0.15021100      -0.12446700       0.15114400
P        3.75452000       0.98849000       5.90958000       0.08812800      -0.19225400      -0.12479100
P        4.62487000       0.35887000       4.02936000       0.26025900      -0.72974900      -0.06078800
P       11.41600000       1.89460000      13.69041000      -0.11115100       0.45009600       0.44564900
P        9.95914000       2.00931000      12.04039000      -0.36200200       0.18652000       0.11944700
P       11.45166000       2.02195000      10.44108000      -0.19767200       0.41038800      -0.52501000
P       10.03836000       2.21202000       8.63452000       0.38687100      -0.26911100       0.03518700
P       10.04498000       2.01667000      15.52042000       0.19850500      -0.24853000       0.09879700
P        9.97948000       5.06385000      13.83963000      -0.24900900      -0.40802100       0.12551500
P        9.02188000       4.06409000      12.10844000       0.11509100      -0.21755000       0.02865600
P        9.95475000       5.17064000      10.43283000      -0.22432500      -0.35410900      -0.10850400
P        8.74879000       4.00422000       8.89693000      -0.13686700       0.50634300       0.31052400
P        8.76321000       3.83317000      15.32729000      -0.07534900       0.50712700      -0.31806800
P       11.95476000       4.03374000      14.03792000       0.09850400       0.13584800      -0.15821500
P       11.94706000       4.18053000      10.21152000       0.13258900       0.14178800       0.12017100
P       12.64760000       4.88573000      12.15138000       0.73200400       0.16222100       0.01696500
P        1.70872000      11.10480000      13.86087000       0.19656000      -0.40883300       0.53403600
P        3.20044000      11.11226000      12.26045000       0.35835200      -0.19633400      -0.11131200
P        1.74096000      11.23315000      10.61258000       0.10778700      -0.45535200      -0.44800600
P        3.10908000      11.10916000       8.78138000      -0.19378800       0.24882600      -0.09789300
P        3.12012000      10.91159000      15.66957000      -0.38531000       0.28155200      -0.04571300
P        3.19611000       7.95153000      13.87593000       0.22582500       0.35347200       0.09428300
P        4.12529000       9.05142000      12.19393000      -0.09925300       0.22306500      -0.03570700
P        3.16668000       8.05938000      10.45833000       0.25695500       0.40963100      -0.11397500
P        4.39014000       9.29231000       8.97700000       0.07068000      -0.50655900       0.31665600
P        4.40873000       9.11986000      15.40567000       0.13552900      -0.51168500      -0.30830700
P        1.20749000       8.94784000      14.09532000      -0.14081400      -0.13565700      -0.12012200
P        1.19460000       9.09534000      10.26306000      -0.09634100      -0.12730600       0.15989000
P        0.50942000       8.24536000      12.15346000      -0.73541200      -0.16711200      -0.02175600
P       10.84316000       2.22637000       2.48414000      -0.25756900       0.11620400       0.27555000
P       11.28758000       3.80122000       3.98025000       0.12388900      -0.14120800       0.09414600
P       10.81080000       2.29253000       5.54161000      -0.20579100       0.16164600      -0.53284500