42
Lattice="8.570069999999994 9.424173051329562e-18 0.0 -4.285034999999997 7.4218983322109 0.0 0.0 0.0 14.711659999999997" Properties=species:S:1:pos:R:3:initial_magmoms:R:1:castep_labels:S:1 n_minim_iter=1 pbc="T T T"
P        4.80509941       5.47339471       5.34710730       0.00000000 NULL
P        1.42742143       1.42464081      10.25099397       0.00000000 NULL
P        6.62258415       0.52386282       0.44322063       0.00000000 NULL
P       -1.14907456       3.44268985      11.63880174       0.00000000 NULL
P        1.87811541       4.70542566       1.83102841       0.00000000 NULL
P       -0.72904086       6.69568117       6.73491507       0.00000000 NULL
P        4.44054149       1.15718676       6.56335848       0.00000000 NULL
P        5.34764612       3.26702837      11.46724515       0.00000000 NULL
P        3.06691738       2.99768322       1.65947181       0.00000000 NULL
P       -1.08023333       3.77250342       4.33464056       0.00000000 NULL
P        1.55806787       4.60013712       9.23852723       0.00000000 NULL
P       -0.47783455       6.47115613      14.14241389       0.00000000 NULL
P       -0.78209773       1.51269124      13.33351583       0.00000000 NULL
P        3.36605482       5.98823622       3.52574250       0.00000000 NULL
P       -2.58395710       7.34286922       8.42962916       0.00000000 NULL
P        1.10554674       6.71498033       3.78194409       0.00000000 NULL
P       -2.08308192       5.02183974       8.68583076       0.00000000 NULL
P        0.97753517       3.10697661      13.58971742       0.00000000 NULL
P        4.32882334       5.06065329      12.34666797       0.00000000 NULL
P        2.02300402       1.21854434       2.53889464       0.00000000 NULL
P        6.50327763       1.14270071       7.44278130       0.00000000 NULL
P        4.58562164       5.47857964      14.29306620       0.00000000 NULL
P        1.53267003       1.23197502       4.48529287       0.00000000 NULL
P        6.73681332       0.71134368       9.38917953       0.00000000 NULL
P       -0.54500975       4.16981916       1.17485993       0.00000000 NULL
P        0.94637055       4.86499647       6.07874660       0.00000000 NULL
P       -0.40136081       5.80898104      10.98263326       0.00000000 NULL
P        0.55421871       6.99420996       8.33148522       0.00000000 NULL
P       -2.04923786       4.40476084      13.23537189       0.00000000 NULL
P        1.49501914       3.44482587       3.42759855       0.00000000 NULL
P        5.83463435       2.91326654       0.07389961       0.00000000 NULL
P        3.12978999       3.59630831       4.97778628       0.00000000 NULL
P        3.89068065       0.91232350       9.88167294       0.00000000 NULL
P        4.34300295       0.92088243       4.46477843       0.00000000 NULL
P        5.60106095       3.30070968       9.36866510       0.00000000 NULL
P        2.91104110       3.20030624      14.27255176       0.00000000 NULL
P        6.11623999       1.49796842      12.22350490       0.00000000 NULL
P        4.21467130       4.54783501       2.41573157       0.00000000 NULL
P        2.52419370       1.37609492       7.31961823       0.00000000 NULL
P        1.19406057       2.97933034       5.41683468       0.00000000 NULL
P        1.10782895       6.96631996      10.32072135       0.00000000 NULL
P       -2.30188953       4.89814638       0.51294801       0.00000000 NULL
42
Lattice="8.60771923211564 9.361351806451247e-16 0.0 -4.303859616057821 7.454503523656026 0.0 0.0 0.0 14.805430511671199" Properties=species:S:1:pos:R:3:initial_magmoms:R:1:castep_labels:S:1 n_minim_iter=2 pbc="T T T"
P        4.82606375       5.49742647       5.38111503       0.00000000 NULL
P        1.43377638       1.43078058      10.31625853       0.00000000 NULL
P        6.65173871       0.52629648       0.44597152       0.00000000 NULL
P       -1.15379064       3.45770721      11.71286432       0.00000000 NULL
P        1.88629265       4.72643793       1.84257731       0.00000000 NULL
P       -0.73250202       6.72486193       6.77772081       0.00000000 NULL
P        4.46029139       1.16242718       6.60510840       0.00000000 NULL
P        5.37088207       3.28151207      11.54025191       0.00000000 NULL
P        3.08040538       3.01056428       1.66996490       0.00000000 NULL
P       -1.08481703       3.78907584       4.36229984       0.00000000 NULL
P        1.56483219       4.62048651       9.29744334       0.00000000 NULL
P       -0.48001517       6.49944471      14.23258685       0.00000000 NULL
P       -0.78530757       1.51919750      13.41877632       0.00000000 NULL
P        3.38084978       6.01480847       3.54848931       0.00000000 NULL
P       -2.59554221       7.37500109       8.48363281       0.00000000 NULL
P        1.11043118       6.74428387       3.80605609       0.00000000 NULL
P       -2.09207713       5.04402321       8.74119959       0.00000000 NULL
P        0.98164594       3.12069998      13.67634309       0.00000000 NULL
P        4.34773774       5.08293120      12.42506850       0.00000000 NULL
P        2.03190281       1.22378574       2.55478150       0.00000000 NULL
P        6.53193828       1.14778659       7.48992500       0.00000000 NULL
P        4.60539006       5.50284788      14.38430771       0.00000000 NULL
P        1.53941814       1.23696086       4.51402070       0.00000000 NULL
P        6.76677063       0.71469480       9.44916420       0.00000000 NULL
P       -0.54711159       4.18800316       1.18235359       0.00000000 NULL
P        0.95049828       4.88668941       6.11749710       0.00000000 NULL
P       -0.40338670       5.83431448      11.05264060       0.00000000 NULL
P        0.55683202       7.02477437       8.38454603       0.00000000 NULL
P       -2.05818946       4.42434702      13.31968954       0.00000000 NULL
P        1.50135743       3.45988566       3.44940253       0.00000000 NULL
P        5.86024734       2.92577608       0.07441843       0.00000000 NULL
P        3.14379915       3.61223504       5.00956193       0.00000000 NULL
P        3.90753235       0.91649242       9.94470544       0.00000000 NULL
P        4.36200696       0.92510141       4.49309654       0.00000000 NULL
P        5.62555443       3.31505814       9.42824004       0.00000000 NULL
P        2.92401745       3.21434399      14.36338355       0.00000000 NULL
P        6.14292651       1.50426809      12.30131239       0.00000000 NULL
P        4.23352159       4.56779637       2.43102538       0.00000000 NULL
P        2.53513074       1.38243907       7.36616888       0.00000000 NULL
P        1.19900118       2.99237669       5.45172059       0.00000000 NULL
P        1.11288479       6.99668067      10.38686409       0.00000000 NULL
P       -2.31188598       4.91994970       0.51657709       0.00000000 NULL
42
Lattice="8.881076007805582 -1.5115174837893142e-16 0.0 -4.440538003902791 7.691237435700119 0.0 0.0 0.0 15.509928204479378" Properties=species:S:1:pos:R:3:initial_magmoms:R:1:castep_labels:S:1 n_minim_iter=3 pbc="T T T"
P        4.97804770       5.67189859       5.63649968       0.00000000 NULL
P        1.48004390       1.47516648      10.80647574       0.00000000 NULL
P        6.86352241       0.54417238       0.46652361       0.00000000 NULL
P       -1.18781494       3.56664842      12.26925860       0.00000000 NULL
P        1.94563733       4.87923532       1.92930646       0.00000000 NULL
P       -0.75782240       6.93659114       7.09928253       0.00000000 NULL
P        4.60385071       1.20054538       6.91864353       0.00000000 NULL
P        5.53944786       3.38677899      12.08861960       0.00000000 NULL
P        3.17831544       3.10391308       1.74866746       0.00000000 NULL
P       -1.11790754       3.90937184       4.57015255       0.00000000 NULL
P        1.61387644       4.76841520       9.74012862       0.00000000 NULL
P       -0.49596892       6.70468784      14.91010469       0.00000000 NULL
P       -0.80853991       1.56629872      14.05955392       0.00000000 NULL
P        3.48835348       6.20787198       3.71960178       0.00000000 NULL
P       -2.67981358       7.60830419       8.88957785       0.00000000 NULL
P        1.14588611       6.95692079       3.98726715       0.00000000 NULL
P       -2.15727519       5.20514353       9.15724322       0.00000000 NULL
P        1.01138907       3.22041056      14.32721929       0.00000000 NULL
P        4.48504308       5.24471286      13.01398545       0.00000000 NULL
P        2.09649989       1.26180482       2.67403332       0.00000000 NULL
P        6.74007103       1.18471976       7.84400939       0.00000000 NULL
P        4.74858263       5.67917563      15.06983035       0.00000000 NULL
P        1.58847433       1.27280538       4.72987822       0.00000000 NULL
P        6.98455705       0.73925644       9.89985429       0.00000000 NULL
P       -0.56217277       4.31991533       1.23859226       0.00000000 NULL
P        0.98046797       5.04442388       6.40856833       0.00000000 NULL
P       -0.41829521       6.01813567      11.57854439       0.00000000 NULL
P        0.57596418       7.24654811       8.78323021       0.00000000 NULL
P       -2.12313884       4.56676300      13.95320628       0.00000000 NULL
P        1.54717465       3.56916377       3.61325414       0.00000000 NULL
P        6.04626123       3.01641835       0.07831558       0.00000000 NULL
P        3.24565047       3.72800666       5.24829165       0.00000000 NULL
P        4.02970230       0.94681244      10.41826772       0.00000000 NULL
P        4.49995015       0.95585506       4.70579335       0.00000000 NULL
P        5.80330617       3.41914363       9.87576942       0.00000000 NULL
P        3.01835768       3.31623876      15.04574548       0.00000000 NULL
P        6.33659377       1.54980509      12.88581142       0.00000000 NULL
P        4.37060854       4.71274864       2.54585928       0.00000000 NULL
P        2.61441169       1.42868372       7.71583535       0.00000000 NULL
P        1.23464268       3.08712177       5.71401140       0.00000000 NULL
P        1.14969078       7.21690849      10.88398747       0.00000000 NULL
P       -2.38433348       5.07844463       0.54403533       0.00000000 NULL
42
Lattice="8.906413887248881 8.215415335251924e-17 0.0 -4.453206943624441 7.713180682976044 0.0 0.0 0.0 15.729244232081317" Properties=species:S:1:pos:R:3:initial_magmoms:R:1:castep_labels:S:1 n_minim_iter=4 pbc="T T T"
P        4.99042928       5.68793498       5.71509106       0.00000000 NULL
P        1.48530306       1.47787105      10.95817247       0.00000000 NULL
P        6.88388848       0.54737466       0.47200965       0.00000000 NULL
P       -1.18960326       3.57599654      12.44232650       0.00000000 NULL
P        1.95110472       4.89495577       1.95616368       0.00000000 NULL
P       -0.76150147       6.95540906       7.19924509       0.00000000 NULL
P        4.61821650       1.20439869       7.01546939       0.00000000 NULL
P        5.55426577       3.39729347      12.25855080       0.00000000 NULL
P        3.18713855       3.11148853       1.77238798       0.00000000 NULL
P       -1.11957496       3.92041204       4.63514118       0.00000000 NULL
P        1.61781800       4.78339431       9.87822259       0.00000000 NULL
P       -0.49824305       6.72255502      15.12130400       0.00000000 NULL
P       -0.81033493       1.56970816      14.26041462       0.00000000 NULL
P        3.49896726       6.22655598       3.77425180       0.00000000 NULL
P       -2.68863235       7.63009724       9.01733321       0.00000000 NULL
P        1.14902836       6.97573157       4.04410651       0.00000000 NULL
P       -2.16246799       5.22040265       9.28718792       0.00000000 NULL
P        1.01343962       3.23022715      14.53026933       0.00000000 NULL
P        4.49790408       5.25983552      13.19696542       0.00000000 NULL
P        2.10231066       1.26538145       2.71080260       0.00000000 NULL
P        6.75940607       1.18796372       7.95388401       0.00000000 NULL
P        4.75957360       5.69632777      15.28310336       0.00000000 NULL
P        1.59346253       1.27374777       4.79694054       0.00000000 NULL
P        7.00658469       0.74310515      10.04002195       0.00000000 NULL
P       -0.56215107       4.33125784       1.25570917       0.00000000 NULL
P        0.98330315       5.06071467       6.49879058       0.00000000 NULL
P       -0.42115210       6.03438887      11.74187199       0.00000000 NULL
P        0.57894761       7.26634691       8.90766345       0.00000000 NULL
P       -2.12910788       4.58139057      14.15074486       0.00000000 NULL
P        1.55016026       3.57862390       3.66458204       0.00000000 NULL
P        6.06394332       3.02358596       0.07936958       0.00000000 NULL
P        3.25593997       3.73973599       5.32245099       0.00000000 NULL
P        4.03973753       0.94985874      10.56553240       0.00000000 NULL
P        4.51246664       0.95949688       4.77174984       0.00000000 NULL
P        5.81923190       3.42816231      10.01483125       0.00000000 NULL
P        3.02792229       3.32552150      15.25791266       0.00000000 NULL
P        6.35398877       1.55271816      13.06739183       0.00000000 NULL
P        4.38472613       4.72635662       2.58122901       0.00000000 NULL
P        2.62090592       1.43410592       7.82431042       0.00000000 NULL
P        1.23641602       3.09611610       5.79676676       0.00000000 NULL
P        1.15368374       7.23589032      11.03984817       0.00000000 NULL
P       -2.39009976       5.09435496       0.55368535       0.00000000 NULL
42
Lattice="8.877359920302608 -7.210252873790703e-16 0.0 -4.438679960151303 7.688019209519858 0.0 0.0 0.0 15.845304406858405" Properties=species:S:1:pos:R:3:initial_magmoms:R:1:castep_labels:S:1 n_minim_iter=5 pbc="T T T"
P        4.97189345       5.66917526       5.75581992       0.00000000 NULL
P        1.48176340       1.47119841      11.03758806       0.00000000 NULL
P        6.86238302       0.54764555       0.47405179       0.00000000 NULL
P       -1.18408855       3.56338307      12.53377698       0.00000000 NULL
P        1.94474397       4.88087692       1.97024071       0.00000000 NULL
P       -0.76065543       6.93177844       7.25200885       0.00000000 NULL
P        4.60446674       1.20079931       7.06591728       0.00000000 NULL
P        5.53520384       3.38718552      12.34768541       0.00000000 NULL
P        3.17636929       3.10003439       1.78414914       0.00000000 NULL
P       -1.11411904       3.90746987       4.66978748       0.00000000 NULL
P        1.61177131       4.76942889       9.95155562       0.00000000 NULL
P       -0.49765228       6.69913967      15.23332375       0.00000000 NULL
P       -0.80734912       1.56336063      14.36806475       0.00000000 NULL
P        3.48844450       6.20715405       3.80452848       0.00000000 NULL
P       -2.68109538       7.60552375       9.08629661       0.00000000 NULL
P        1.14507283       6.95186108       4.07452466       0.00000000 NULL
P       -2.15434475       5.20375084       9.35629279       0.00000000 NULL
P        1.00927191       3.22042651      14.63806093       0.00000000 NULL
P        4.48356088       5.24280631      13.29355356       0.00000000 NULL
P        2.09517603       1.26147448       2.73001729       0.00000000 NULL
P        6.73730296       1.18373843       8.01178542       0.00000000 NULL
P        4.74117121       5.67865351      15.39572101       0.00000000 NULL
P        1.58891612       1.26664796       4.83218474       0.00000000 NULL
P        6.98595255       0.74271775      10.11395288       0.00000000 NULL
P       -0.55850988       4.31597002       1.26448668       0.00000000 NULL
P        0.98019522       5.04635046       6.54625482       0.00000000 NULL
P       -0.42168535       6.01371795      11.82802295       0.00000000 NULL
P        0.57863672       7.24177765       8.97383266       0.00000000 NULL
P       -2.12220181       4.56824449      14.25560080       0.00000000 NULL
P        1.54356509       3.56601629       3.69206453       0.00000000 NULL
P        6.04477210       3.01219110       0.07977468       0.00000000 NULL
P        3.24633985       3.72883066       5.36154282       0.00000000 NULL
P        4.02492792       0.94699746      10.64331095       0.00000000 NULL
P        4.49740708       0.95738194       4.80645642       0.00000000 NULL
P        5.79953930       3.41617782      10.08822456       0.00000000 NULL
P        3.01909350       3.31445946      15.36999270       0.00000000 NULL
P        6.33264134       1.54605235      13.16310326       0.00000000 NULL
P        4.37211864       4.71120210       2.59956699       0.00000000 NULL
P        2.61127990       1.43076477       7.88133512       0.00000000 NULL
P        1.23046464       3.08627571       5.84157524       0.00000000 NULL
P        1.15065447       7.21049500      11.12334337       0.00000000 NULL
P       -2.38111912       5.07926772       0.55980710       0.00000000 NULL
42
Lattice="8.812901007780216 6.533070177891902e-16 0.0 -4.406450503890108 7.632196153775147 0.0 0.0 0.0 15.977781787272306" Properties=species:S:1:pos:R:3:initial_magmoms:R:1:castep_labels:S:1 n_minim_iter=6 pbc="T T T"
P        4.93148624       5.62758838       5.80113057       0.00000000 NULL
P        1.47352339       1.45699818      11.12705783       0.00000000 NULL
P        6.81434187       0.54760961       0.47520330       0.00000000 NULL
P       -1.17242916       3.53578993      12.63797041       0.00000000 NULL
P        1.93058118       4.84894776       1.98611589       0.00000000 NULL
P       -0.75815203       6.87965463       7.31204315       0.00000000 NULL
P        4.57354978       1.19273888       7.12226369       0.00000000 NULL
P        5.49318394       3.36444086      12.44819095       0.00000000 NULL
P        3.15261778       3.07501642       1.79633643       0.00000000 NULL
P       -1.10262537       3.87877354       4.70971786       0.00000000 NULL
P        1.59864676       4.73790781      10.03564513       0.00000000 NULL
P       -0.49602140       6.64771097      15.36157239       0.00000000 NULL
P       -0.80087316       1.54967378      14.49291679       0.00000000 NULL
P        3.46483022       6.16378277       3.84106227       0.00000000 NULL
P       -2.66395707       7.55093577       9.16698953       0.00000000 NULL
P        1.13637265       6.89924692       4.10962301       0.00000000 NULL
P       -2.13665892       5.16670028       9.43555027       0.00000000 NULL
P        1.00028626       3.19844512      14.76147754       0.00000000 NULL
P        4.45174421       5.20500594      13.40355625       0.00000000 NULL
P        2.07936153       1.25282061       2.75170172       0.00000000 NULL
P        6.68824576       1.17436961       8.07762899       0.00000000 NULL
P        4.70134333       5.63896261      15.52381729       0.00000000 NULL
P        1.57874447       1.25200146       4.87196277       0.00000000 NULL
P        6.93926370       0.74123209      10.19789003       0.00000000 NULL
P       -0.55102583       4.28236593       1.27418319       0.00000000 NULL
P        0.97332573       5.01381084       6.60011045       0.00000000 NULL
P       -0.42229992       5.96821556      11.92603771       0.00000000 NULL
P        0.57743239       7.18760011       9.04982633       0.00000000 NULL
P       -2.10690997       4.53846723      14.37575359       0.00000000 NULL
P        1.52947758       3.53832499       3.72389907       0.00000000 NULL
P        6.00200468       2.98739119       0.08005723       0.00000000 NULL
P        3.22474200       3.70419294       5.40598450       0.00000000 NULL
P        3.99260482       0.94061203      10.73191176       0.00000000 NULL
P        4.46406699       0.95244092       4.84587231       0.00000000 NULL
P        5.75602948       3.38977497      10.17179957       0.00000000 NULL
P        2.99925503       3.28998028      15.49772683       0.00000000 NULL
P        6.28557235       1.53181290      13.27179164       0.00000000 NULL
P        4.34352595       4.67755889       2.61993711       0.00000000 NULL
P        2.59025321       1.42282437       7.94586438       0.00000000 NULL
P        1.21786992       3.06421632       5.89409697       0.00000000 NULL
P        1.14382637       7.15479429      11.22002423       0.00000000 NULL
P       -2.36169630       5.04538171       0.56816971       0.00000000 NULL
42
Lattice="8.730153582906022 9.213523641240617e-16 0.0 -4.365076791453011 7.56053478173635 0.0 0.0 0.0 16.131143066069217" Properties=species:S:1:pos:R:3:initial_magmoms:R:1:castep_labels:S:1 n_minim_iter=7 pbc="T T T"
P        4.87692158       5.57385976       5.85129942       0.00000000 NULL
P        1.46458864       1.43660810      11.22834711       0.00000000 NULL
P        6.75372015       0.55006693       0.47425173       0.00000000 NULL
P       -1.15528170       3.49951662      12.75822703       0.00000000 NULL
P        1.91204735       4.81027318       2.00413165       0.00000000 NULL
P       -0.75676565       6.81127977       7.38117934       0.00000000 NULL
P        4.53570416       1.18318394       7.18474881       0.00000000 NULL
P        5.43763415       3.33644306      12.56179650       0.00000000 NULL
P        3.12189205       3.04090779       1.80770112       0.00000000 NULL
P       -1.08571940       3.84166301       4.75681083       0.00000000 NULL
P        1.58095873       4.69944270      10.13385852       0.00000000 NULL
P       -0.49523934       6.57996387      15.51090621       0.00000000 NULL
P       -0.79200456       1.53053932      14.64152483       0.00000000 NULL
P        3.43559314       6.10936906       3.88742946       0.00000000 NULL
P       -2.64358859       7.48116119       9.26447715       0.00000000 NULL
P        1.12505519       6.83010708       4.15080681       0.00000000 NULL
P       -2.11249705       5.11980763       9.52785449       0.00000000 NULL
P        0.98744185       3.17115487      14.90490218       0.00000000 NULL
P        4.41142026       5.15683909      13.53060743       0.00000000 NULL
P        2.05848979       1.24198248       2.77651205       0.00000000 NULL
P        6.62532031       1.16171322       8.15355974       0.00000000 NULL
P        4.64677148       5.58864266      15.67098984       0.00000000 NULL
P        1.56686133       1.22990083       4.91689446       0.00000000 NULL
P        6.88159756       0.74199131      10.29394215       0.00000000 NULL
P       -0.53903574       4.23754129       1.28493265       0.00000000 NULL
P        0.96477625       4.97494550       6.66198034       0.00000000 NULL
P       -0.42574052       5.90858279      12.03902802       0.00000000 NULL
P        0.57778905       7.11694433       9.13870500       0.00000000 NULL
P       -2.08727232       4.50244262      14.51575269       0.00000000 NULL
P        1.50948327       3.50168262       3.76165731       0.00000000 NULL
P        5.94756040       2.95339357       0.08004521       0.00000000 NULL
P        3.19865952       3.67404162       5.45709290       0.00000000 NULL
P        3.94901044       0.93309960      10.83414059       0.00000000 NULL
P        4.42062744       0.94774860       4.89129302       0.00000000 NULL
P        5.69906550       3.35450137      10.26834071       0.00000000 NULL
P        2.97553743       3.25828482      15.64538840       0.00000000 NULL
P        6.22454850       1.51146608      13.39645579       0.00000000 NULL
P        4.30891131       4.63488409       2.64236042       0.00000000 NULL
P        2.56177055       1.41418462       8.01940810       0.00000000 NULL
P        1.19909540       3.03551636       5.95747981       0.00000000 NULL
P        1.13669481       7.08122368      11.33452750       0.00000000 NULL
P       -2.33579021       5.00432953       0.58043212       0.00000000 NULL
42
Lattice="8.674027599870636 1.1640697820493246e-15 0.0 -4.337013799935318 7.511928254615331 0.0 0.0 0.0 16.227405008000126" Properties=species:S:1:pos:R:3:initial_magmoms:R:1:castep_labels:S:1 n_minim_iter=8 pbc="T T T"
P        4.83605432       5.53686953       5.87979632       0.00000000 NULL
P        1.46093076       1.41971114      11.28893132       0.00000000 NULL
P        6.71405631       0.55534760       0.47066132       0.00000000 NULL
P       -1.14052104       3.47383635      12.83334234       0.00000000 NULL
P        1.89884379       4.78728990       2.01507233       0.00000000 NULL
P       -0.75832276       6.76273028       7.42420734       0.00000000 NULL
P        4.51256118       1.17794088       7.22012184       0.00000000 NULL
P        5.39762029       3.31902219      12.62925684       0.00000000 NULL
P        3.10085993       3.01496520       1.81098683       0.00000000 NULL
P       -1.07100590       3.81605633       4.78754398       0.00000000 NULL
P        1.56771502       4.67638178      10.19667898       0.00000000 NULL
P       -0.49670913       6.53141841      15.60581398       0.00000000 NULL
P       -0.78527444       1.51527110      14.74023560       0.00000000 NULL
P        3.41738775       6.07422510       3.92196559       0.00000000 NULL
P       -2.63211332       7.43436032       9.33110060       0.00000000 NULL
P        1.11723564       6.78081163       4.17739691       0.00000000 NULL
P       -2.09395916       5.08907689       9.58653191       0.00000000 NULL
P        0.97672350       3.15396799      14.99566691       0.00000000 NULL
P        4.38477206       5.12479853      13.61018989       0.00000000 NULL
P        2.04343585       1.23492473       2.79191988       0.00000000 NULL
P        6.58283348       1.15220500       8.20105489       0.00000000 NULL
P        4.60492452       5.55521658      15.76180892       0.00000000 NULL
P        1.56060666       1.21037333       4.94353892       0.00000000 NULL
P        6.84551022       0.74633835      10.35267392       0.00000000 NULL
P       -0.52728074       4.20461743       1.29117839       0.00000000 NULL
P        0.95934866       4.95298103       6.70031339       0.00000000 NULL
P       -0.43206793       5.86625806      12.10944839       0.00000000 NULL
P        0.58066258       7.06733468       9.19561481       0.00000000 NULL
P       -2.07380886       4.48112946      14.60474981       0.00000000 NULL
P        1.49314628       3.47539237       3.78647980       0.00000000 NULL
P        5.91118609       2.92722592       0.07949870       0.00000000 NULL
P        3.18338255       3.65562437       5.48863371       0.00000000 NULL
P        3.91647275       0.92907798      10.89776871       0.00000000 NULL
P        4.39019566       0.94707119       4.91968673       0.00000000 NULL
P        5.65874206       3.32848538      10.32882173       0.00000000 NULL
P        2.96210367       3.23637170      15.73795674       0.00000000 NULL
P        6.18243229       1.49477093      13.47322254       0.00000000 NULL
P        4.28830185       4.60675797       2.65495253       0.00000000 NULL
P        2.54030724       1.41039937       8.06408753       0.00000000 NULL
P        1.18258561       3.01508310       6.00036642       0.00000000 NULL
P        1.13458243       7.02853590      11.40950142       0.00000000 NULL
P       -2.31716805       4.98023753       0.59123142       0.00000000 NULL
42
Lattice="8.62610020580377 -1.3399464741830318e-15 0.0 -4.313050102901883 7.470421913816239 0.0 0.0 0.0 16.24896746451419" Properties=species:S:1:pos:R:3:initial_magmoms:R:1:castep_labels:S:1 n_minim_iter=9 pbc="T T T"
P        4.80343269       5.50552597       5.88359563       0.00000000 NULL
P        1.45645851       1.40713175      11.29991812       0.00000000 NULL
P        6.67925911       0.55776420       0.46727314       0.00000000 NULL
P       -1.12974829       3.45285849      12.84987916       0.00000000 NULL
P        1.88766108       4.76560196       2.01723419       0.00000000 NULL
P       -0.75791280       6.72238339       7.43355667       0.00000000 NULL
P        4.49118100       1.17295804       7.22486659       0.00000000 NULL
P        5.36469825       3.30299783      12.64118908       0.00000000 NULL
P        3.08327106       2.99446606       1.80854410       0.00000000 NULL
P       -1.06011711       3.79433833       4.79545022       0.00000000 NULL
P        1.55711527       4.65516441      10.21177270       0.00000000 NULL
P       -0.49699817       6.49134110      15.62809519       0.00000000 NULL
P       -0.78001647       1.50347911      14.76689461       0.00000000 NULL
P        3.40100724       6.04316829       3.93424963       0.00000000 NULL
P       -2.62099078       7.39419644       9.35057212       0.00000000 NULL
P        1.11073274       6.73988319       4.18406342       0.00000000 NULL
P       -2.07922633       5.06240310       9.60038591       0.00000000 NULL
P        0.96849358       3.13855755      15.01670840       0.00000000 NULL
P        4.36160989       5.09731907      13.62776301       0.00000000 NULL
P        2.03088745       1.22860544       2.79511803       0.00000000 NULL
P        6.54665295       1.14449741       8.21144052       0.00000000 NULL
P        4.57216902       5.52577691      15.78101594       0.00000000 NULL
P        1.55455251       1.19672607       4.94837096       0.00000000 NULL
P        6.81242877       0.74791894      10.36469345       0.00000000 NULL
P       -0.51903627       4.17772550       1.29205766       0.00000000 NULL
P        0.95455182       4.93206057       6.70838015       0.00000000 NULL
P       -0.43551556       5.83105776      12.12470264       0.00000000 NULL
P        0.58145771       7.02578503       9.20927811       0.00000000 NULL
P       -2.06218707       4.46108656      14.62560059       0.00000000 NULL
P        1.48072935       3.45397225       3.79295562       0.00000000 NULL
P        5.87959081       2.90662783       0.07892557       0.00000000 NULL
P        3.16909126       3.63856110       5.49524806       0.00000000 NULL