27
Lattice="8.724751303879756 7.677859812564639e-16 7.372643710016828e-16 4.362375651939879 7.555856270861275 6.134325761582215e-16 4.36237565193988 2.518618756953759 9.952236974850374" Properties=species:S:1:pos:R:3:initial_magmoms:R:1:castep_labels:S:1:forces:R:3 n_minim_iter=1 energy=-135.913509817377 stress="-0.004255328595906282 0.0 -0.0 0.0 -0.004255328595906282 0.0 -0.0 0.0 -0.006661617051164881" free_energy=-135.913509817377 pbc="T T T"
P        7.53829827       3.58327916       5.66613091       0.00000000 NULL      -0.02597000      -0.46674600       0.20908000
P        8.05881252       6.79171440       5.66613091       0.00000000 NULL      -0.39123000       0.25586400       0.20908000
P       10.57714182       4.73671822       5.66613091       0.00000000 NULL       0.41719900       0.21088300       0.20908000
P       12.59624991       6.37377707       4.24642920       0.00000000 NULL       0.34180700      -0.03750300       0.02881500
P       12.30885443       8.57200711       4.24642920       0.00000000 NULL      -0.20338200      -0.27726200       0.02881500
P       14.35627522       7.72178388       4.24642920       0.00000000 NULL      -0.13842500       0.31476500       0.02881500
P        6.90348961       3.97773501       7.72401544       0.00000000 NULL       0.53901400      -0.51299600       1.19347700
P        8.71782563       7.14424690       7.72401544       0.00000000 NULL      -0.71377500      -0.21030200       1.19347600
P       10.55293736       3.98972987       7.72401544       0.00000000 NULL       0.17476100       0.72329800       1.19347600
P       16.10431479       9.98101681       9.61588138       0.00000000 NULL       0.12389500      -0.16908200      -0.23255800
P       13.67878324       3.73031393       9.61588138       0.00000000 NULL      -0.20837700      -0.02275500      -0.23255800
P        9.47828152       8.95623732       9.61588138       0.00000000 NULL       0.08448300       0.19183700      -0.23255700
P        2.81010571       4.20403579       1.51603107       0.00000000 NULL       0.10891400       0.16764500       0.11148700
P        6.59812415       3.02021468       1.51603107       0.00000000 NULL       0.09072800      -0.17814400       0.11148600
P        3.67889578       0.33160504       1.51603107       0.00000000 NULL      -0.19964100       0.01050000       0.11148600
P       10.23618460       7.00568482       6.30648107       0.00000000 NULL       0.50857300      -0.32302900      -1.11694200
P        9.67375959       2.74407347       6.30648107       0.00000000 NULL      -0.53403700      -0.27892300      -1.11694200
P        6.26430841       5.36195350       6.30648107       0.00000000 NULL       0.02546400       0.60195100      -1.11694200
P       11.85172210       6.33949560       2.02386105       0.00000000 NULL      -0.04120500       0.22226500       0.18873300
P        8.28905405       1.67807157       2.02386105       0.00000000 NULL       0.21309000      -0.07544800       0.18873300
P        6.03347645       7.09414462       2.02386105       0.00000000 NULL      -0.17188400      -0.14681800       0.18873200
P        8.08188216       3.66224419       3.12759063       0.00000000 NULL      -0.13664400       0.17621800      -0.43777200
P        7.85540629       6.28147443       3.12759063       0.00000000 NULL       0.22093100       0.03022800      -0.43777200
P       10.23696415       5.16799317       3.12759063       0.00000000 NULL      -0.08428700      -0.20644600      -0.43777200
P        7.36637708       6.10732062       0.29720523       0.00000000 NULL       0.08856600       0.22645300       0.05568000
P       10.33065713       5.67858179       0.29720523       0.00000000 NULL       0.15183000      -0.18992700       0.05568000
P        8.47721839       3.32580938       0.29720523       0.00000000 NULL      -0.24039700      -0.03652600       0.05568000
27
Lattice="8.772857568722165 1.852862028398401e-15 7.866039073039301e-16 4.386428784361081 7.597517518295982 4.2405218593724693e-16 4.386428784361084 2.532505839431995 10.038275276763533" Properties=species:S:1:pos:R:3:initial_magmoms:R:1:castep_labels:S:1:forces:R:3 n_minim_iter=2 energy=-135.960601942065 stress="0.002026258608549824 -0.0 -0.0 -0.0 0.002026258608549824 0.0 -0.0 0.0 0.0013048100462857706" free_energy=-135.960601942065 pbc="T T T"
P        7.57981127       3.60211220       5.71553065       0.00000000 NULL      -0.03345200      -0.34923300       0.38216300
P        8.10247216       6.82966906       5.71553065       0.00000000 NULL      -0.28571800       0.20358600       0.38216300
P       10.63628795       4.76325302       5.71553065       0.00000000 NULL       0.31917000       0.14564600       0.38216400
P       12.66637963       6.40884634       4.28319734       0.00000000 NULL       0.35495700       0.11265000      -0.04918700
P       12.37631983       8.61872209       4.28319734       0.00000000 NULL      -0.07992000      -0.36372600      -0.04918700
P       14.43515827       7.76498337       4.28319734       0.00000000 NULL      -0.27503600       0.25107600      -0.04918700
P        6.94262132       3.99865139       7.79316141       0.00000000 NULL       0.50489600      -0.35422600       0.81402800
P        8.76448015       7.18322215       7.79316141       0.00000000 NULL      -0.55921600      -0.26014000       0.81402800
P       10.61146992       4.01316074       7.79316141       0.00000000 NULL       0.05432000       0.61436600       0.81402800
P       16.19335563      10.03571499       9.69854985       0.00000000 NULL       0.20086300      -0.20402700      -0.16755900
P       13.75379222       3.75083695       9.69854985       0.00000000 NULL      -0.27712400      -0.07193900      -0.16755800
P        9.53070989       9.00599986       9.69854985       0.00000000 NULL       0.07626200       0.27596600      -0.16755800
P        2.82581568       4.22754787       1.52935882       0.00000000 NULL      -0.00599700       0.39864900       0.14007500
P        6.63468436       3.03651466       1.52935882       0.00000000 NULL       0.34823900      -0.19413100       0.14007500
P        3.69878500       0.33345423       1.52935882       0.00000000 NULL      -0.34224200      -0.20451800       0.14007500
P       10.29363174       7.04367282       6.35878250       0.00000000 NULL       0.25107100      -0.34346000      -0.96735100
P        9.72604086       2.75865128       6.35878250       0.00000000 NULL      -0.42298100      -0.04570500      -0.96735100
P        6.29889879       5.39271017       6.35878250       0.00000000 NULL       0.17190900       0.38916400      -0.96735100
P       11.91698816       6.37489028       2.04173250       0.00000000 NULL      -0.12198600       0.10831200       0.17763600
P        8.33517998       1.68717465       2.04173250       0.00000000 NULL       0.15479400       0.05148600       0.17763600
P        6.06640325       7.13296934       2.04173250       0.00000000 NULL      -0.03280900      -0.15979900       0.17763600
P        8.12617319       3.68278594       3.15375937       0.00000000 NULL      -0.17190000       0.09759700      -0.50973900
P        7.89915671       6.31616889       3.15375937       0.00000000 NULL       0.17047100       0.10007100      -0.50973900
P       10.29324148       5.19607945       3.15375937       0.00000000 NULL       0.00142800      -0.19766800      -0.50973900
P        7.40716898       6.14144344       0.29988522       0.00000000 NULL       0.02262600       0.33202000       0.17993200
P       10.38791867       5.70951605       0.29988522       0.00000000 NULL       0.27622400      -0.18560600       0.17993200
P        8.52348374       3.34407479       0.29988522       0.00000000 NULL      -0.29885100      -0.14641500       0.17993200
27
Lattice="8.653790912524133 3.205259365792554e-15 8.099966612246016e-16 4.326895456262064 7.494402769284822 4.2058388699296085e-16 4.3268954562620685 2.498134256428276 10.16828611375854" Properties=species:S:1:pos:R:3:initial_magmoms:R:1:castep_labels:S:1:forces:R:3 n_minim_iter=3 energy=-136.146984044701 stress="-0.004993766451376218 -0.0 0.0 -0.0 -0.004993766451376218 -0.0 0.0 -0.0 0.005984404061798744" free_energy=-136.146984044701 pbc="T T T"
P        7.47580497       3.53977307       5.80215486       0.00000000 NULL      -0.20143700      -0.31503900       0.52541600
P        7.98142139       6.74468123       5.80215486       0.00000000 NULL      -0.17211300       0.33196900       0.52541600
P       10.50414507       4.70435049       5.80215486       0.00000000 NULL       0.37355000      -0.01693100       0.52541600
P       12.50703299       6.32463217       4.33752909       0.00000000 NULL       0.12319200      -0.43972800      -0.13953600
P       12.20446157       8.48948318       4.33752909       0.00000000 NULL      -0.44241100       0.11317700      -0.13953600
P       14.23056325       7.66909221       4.33752909       0.00000000 NULL       0.31921900       0.32655100      -0.13953600
P        6.86670676       3.93040745       7.92736970       0.00000000 NULL       0.33215900       0.06861800      -0.02054600
P        8.62426980       7.07685857       7.92736970       0.00000000 NULL      -0.10665400      -0.32196700      -0.02054500
P       10.47039488       3.98153877       7.92736970       0.00000000 NULL      -0.22550400       0.25334900      -0.02054500
P       15.98010541       9.89251594       9.81742422       0.00000000 NULL      -0.01493600      -0.12560200      -0.21594400
P       13.55780334       3.69777234       9.81742422       0.00000000 NULL      -0.10130600       0.07573400      -0.21594300
P        9.40414905       8.89291927       9.81742422       0.00000000 NULL       0.11624000       0.04986700      -0.21594400
P        2.78820905       4.18247456       1.55408432       0.00000000 NULL       0.15399200      -0.13506200       0.09647700
P        6.55491972       2.98850487       1.55408432       0.00000000 NULL      -0.19396300      -0.06583000       0.09647700
P        3.63755630       0.32342259       1.55408432       0.00000000 NULL       0.03997100       0.20089200       0.09647700
P       10.16504022       6.93598272       6.40418878       0.00000000 NULL      -0.22165800      -0.17355700      -0.30751500
P        9.57800761       2.71763037       6.40418878       0.00000000 NULL      -0.03947600       0.27874000      -0.30751500
P        6.21832361       5.33519170       6.40418878       0.00000000 NULL       0.26113400      -0.10518300      -0.30751500
P       11.75156828       6.29318834       2.07482023       0.00000000 NULL      -0.09622500       0.37892700       0.23043900
P        8.22806731       1.66505396       2.07482023       0.00000000 NULL       0.37627300      -0.10613100       0.23044000
P        5.98173585       7.03056250       2.07482023       0.00000000 NULL      -0.28004800      -0.27279600       0.23044000
P        8.01004044       3.63694394       3.17643256       0.00000000 NULL      -0.19842700       0.18336500      -0.20189900
P        7.79845610       6.23343431       3.17643256       0.00000000 NULL       0.25801300       0.08016000      -0.20189900
P       10.15287489       5.11842654       3.17643256       0.00000000 NULL      -0.05958500      -0.26352600      -0.20189900
P        7.30799636       6.06906335       0.30933337       0.00000000 NULL       0.01529600       0.12890500       0.03310600
P       10.25575533       5.62536261       0.30933337       0.00000000 NULL       0.10398900      -0.07769800       0.03310700
P        8.39761974       3.29437883       0.30933337       0.00000000 NULL      -0.11928200      -0.05120600       0.03310600
27
Lattice="8.781412904086487 2.3497494273181503e-15 7.870135605219814e-16 4.390706452043241 7.604926656059383 4.0517126463362943e-16 4.390706452043246 2.534975552019796 9.854970805568177" Properties=species:S:1:pos:R:3:initial_magmoms:R:1:castep_labels:S:1:forces:R:3 n_minim_iter=4 energy=-136.37450371306 stress="-0.0023178233144275405 -0.0 -0.0 -0.0 -0.0023178081199701096 0.0 -0.0 0.0 -0.0013569258264608053" free_energy=-136.37450371306 pbc="T T T"
P        7.58302890       3.57623058       5.64015621       0.00000000 NULL      -0.06829700      -0.29377600       0.17794500
P        8.08700454       6.85464159       5.64015621       0.00000000 NULL      -0.22026900       0.20603400       0.17794500
P       10.67420394       4.77898038       5.64015621       0.00000000 NULL       0.28856500       0.08774100       0.17794500
P       12.70466876       6.41647080       4.20139616       0.00000000 NULL       0.31292500      -0.11679500       0.14888400
P       12.37661125       8.60397791       4.20139616       0.00000000 NULL      -0.25761000      -0.21260300       0.14888400
P       14.43507674       7.79433050       4.20139616       0.00000000 NULL      -0.05531500       0.32939900       0.14888400
P        6.98860878       3.97586019       7.71284943       0.00000000 NULL       0.11850400       0.45601300       0.10127700
P        8.73030400       7.16960972       7.71284943       0.00000000 NULL       0.33566700      -0.33063400       0.10127700
P       10.62532461       4.06438265       7.71284943       0.00000000 NULL      -0.45417100      -0.12537900       0.10127700
P       16.22193840      10.03048864       9.50674016       0.00000000 NULL       0.14835500      -0.11276100      -0.25979500
P       13.74780769       3.75092413       9.50674016       0.00000000 NULL      -0.17183200      -0.07209800      -0.25979300
P        9.54661066       9.03336644       9.50674016       0.00000000 NULL       0.02347600       0.18486100      -0.25979500
P        2.83140281       4.25483606       1.51165089       0.00000000 NULL       0.42167400      -0.15150800       0.03190900
P        6.65980073       3.02544110       1.51165089       0.00000000 NULL      -0.34204600      -0.28942600       0.03190900
P        3.68091450       0.32464873       1.51165089       0.00000000 NULL      -0.07962700       0.44093500       0.03190900
P       10.32315871       7.02504103       6.17032961       0.00000000 NULL      -0.64796000      -0.20063600      -0.04980900
P        9.70369710       2.75721435       6.17032961       0.00000000 NULL       0.15022400       0.66146800      -0.04980900
P        6.31738158       5.42759718       6.17032961       0.00000000 NULL       0.49773600      -0.46083200      -0.04980900
P       11.92035344       6.39412387       2.01918061       0.00000000 NULL      -0.03360300       0.23241500       0.14899600
P        8.35870945       1.68946171       2.01918061       0.00000000 NULL       0.21807900      -0.08710700       0.14899600
P        6.06517450       7.12626697       2.01918061       0.00000000 NULL      -0.18447600      -0.14530700       0.14899700
P        8.12064751       3.69621483       3.05995059       0.00000000 NULL       0.03908600       0.06635400      -0.28269800
P        7.92210465       6.32905810       3.05995059       0.00000000 NULL       0.03792100      -0.06702600      -0.28269800
P       10.30148523       5.18457962       3.05995059       0.00000000 NULL      -0.07700700       0.00067200      -0.28269800
P        7.41714693       6.17038708       0.30532281       0.00000000 NULL       0.13588700      -0.04564400      -0.01671000
P       10.41655096       5.70122134       0.30532281       0.00000000 NULL      -0.10747200      -0.09486000      -0.01671000
P        8.51053950       3.33824412       0.30532281       0.00000000 NULL      -0.02841500       0.14050100      -0.01671000
27
Lattice="9.107012831392026 2.3894322105277348e-15 6.856784016299663e-16 4.5535064156960114 7.886904464576345 3.295901453931423e-16 4.553506415696015 2.628968154858784 9.334115604588312" Properties=species:S:1:pos:R:3:initial_magmoms:R:1:castep_labels:S:1:forces:R:3 n_minim_iter=5 energy=-137.628363663351 stress="0.002956773503834163 -1.491572250612496e-08 0.0 -1.491572250612496e-08 0.002956743672389151 -0.0 0.0 -0.0 0.00237201751870404" free_energy=-137.628363663351 pbc="T T T"
P        7.83679934       3.55849461       5.45472460       0.00000000 NULL       0.21336200      -0.08498700      -0.42965700
P        8.27035943       7.20769352       5.45472460       0.00000000 NULL      -0.18028200      -0.14228300      -0.42965700
P       11.21387835       5.00762001       5.45472460       0.00000000 NULL      -0.03308000       0.22727000      -0.42965700
P       13.34574808       6.64565750       4.01954755       0.00000000 NULL       0.05103900      -0.28061200       0.50832000
P       12.74295297       8.78012698       4.01954755       0.00000000 NULL      -0.26853700       0.09610300       0.50832100
P       14.89285532       8.23492812       4.01954755       0.00000000 NULL       0.21749700       0.18450700       0.50832000
P        7.36166131       4.24717384       7.43114207       0.00000000 NULL       0.00546300       0.46670600       0.40740400
P        9.10434215       7.27483551       7.43114207       0.00000000 NULL       0.40144800      -0.23808400       0.40740400
P       10.85503366       4.25179880       7.43114207       0.00000000 NULL      -0.40691100      -0.22862200       0.40740400
P       16.91480237      10.32899145       8.90263886       0.00000000 NULL       0.19261300       0.12778900      -0.27442300
P       14.14828659       3.84756833       8.90263886       0.00000000 NULL       0.01436400      -0.23070200      -0.27442200
P        9.91846741       9.48415283       8.90263886       0.00000000 NULL      -0.20697800       0.10291200      -0.27442200
P        3.08265072       4.43455148       1.46175513       0.00000000 NULL       0.15280900       0.78306700      -0.29171200
P        6.85261483       2.99997410       1.46175513       0.00000000 NULL       0.60174900      -0.52387000      -0.29171200
P        3.72525233       0.45237810       1.46175513       0.00000000 NULL      -0.75455700      -0.25918700      -0.29171300
P       10.49121152       7.15960419       5.70657724       0.00000000 NULL      -0.24086900      -0.01145500       0.14623700
P       10.06180572       3.10835035       5.70657724       0.00000000 NULL       0.11051400       0.21432600       0.14623700
P        6.76801988       5.50585360       5.70657724       0.00000000 NULL       0.13035500      -0.20287100       0.14623700
P       12.32771062       6.72051875       1.98178135       0.00000000 NULL      -0.23548500      -0.57178400      -0.32259400
P        8.76329702       1.73743820       1.98178135       0.00000000 NULL      -0.37743600       0.48982900      -0.32259400
P        6.23002948       7.31585120       1.98178135       0.00000000 NULL       0.61291900       0.08195400      -0.32259300
P        8.41121112       3.86481058       2.73343862       0.00000000 NULL       0.16223300      -0.88952800      -0.55907000
P        8.24843096       6.55708034       2.73343862       0.00000000 NULL      -0.85147000       0.30426300      -0.55906700
P       10.66139504       5.35191721       2.73343862       0.00000000 NULL       0.68923800       0.58526100      -0.55907100
P        7.74191812       6.43764685       0.31514709       0.00000000 NULL       0.52322600       0.49114100       0.81549200
P       10.81121902       5.85028695       0.31514709       0.00000000 NULL       0.16373100      -0.69870000       0.81549500
P        8.76789998       3.48587434       0.31514709       0.00000000 NULL      -0.68695700       0.20755600       0.81549400
27
Lattice="9.32483058186659 1.0834646431838501e-15 5.6047031146859e-16 4.662415290933295 8.075540169882496 3.036505104774556e-16 4.662415290933298 2.691846723294167 9.026066045816064" Properties=species:S:1:pos:R:3:initial_magmoms:R:1:castep_labels:S:1:forces:R:3 n_minim_iter=6 energy=-138.245373707666 stress="0.008600285066867774 -1.471258391774189e-08 0.0 -1.471258391774189e-08 0.008600270354283856 -0.0 0.0 -0.0 0.00042441390827510026" free_energy=-138.245373707666 pbc="T T T"
P        8.02022845       3.57287981       5.30692911       0.00000000 NULL       0.32287500       0.15189000      -0.10445900
P        8.40892057       7.41891805       5.30692911       0.00000000 NULL      -0.02989800      -0.35556300      -0.10445900
P       11.54534132       5.15928167       5.30692911       0.00000000 NULL      -0.29297800       0.20367300      -0.10445900
P       13.73901472       6.78379822       3.91888748       0.00000000 NULL       0.13516600       0.32164200       0.46704400
P       12.99267964       8.93638482       3.91888748       0.00000000 NULL       0.21096600      -0.27787800       0.46704400
P       15.23004186       8.50643666       3.91888748       0.00000000 NULL      -0.34613300      -0.04376400       0.46704400
P        7.58892267       4.41757673       7.25378774       0.00000000 NULL      -0.07259600       0.38274700       0.24916200
P        9.35610245       7.37009135       7.25378774       0.00000000 NULL       0.36776700      -0.12850400       0.24916300
P       11.02946522       4.36341145       7.25378774       0.00000000 NULL      -0.29517100      -0.25424400       0.24916300
P       17.36433646      10.55013618       8.55771526       0.00000000 NULL       0.41475800       0.31176200      -0.30130600
P       14.44176312       3.91359512       8.55771526       0.00000000 NULL       0.06261700      -0.51507100      -0.30130500
P       10.15563664       9.76288840       8.55771526       0.00000000 NULL      -0.47737500       0.20330900      -0.30130500
P        3.22669199       4.57794707       1.41646111       0.00000000 NULL      -0.01225100       0.91491600      -0.24615600
P        7.01368729       2.99216859       1.41646111       0.00000000 NULL       0.79846100      -0.44685100      -0.24615700
P        3.74686519       0.50542370       1.41646111       0.00000000 NULL      -0.78621300      -0.46805800      -0.24615700
P       10.64507954       7.27656682       5.46402368       0.00000000 NULL      -0.20654300      -0.09190100       0.11556400
P       10.30398206       3.29388682       5.46402368       0.00000000 NULL       0.02368300       0.22482100       0.11556400
P        7.02542874       5.58062590       5.46402368       0.00000000 NULL       0.18286000      -0.13292100       0.11556400
P       12.59878552       6.89952537       1.93527098       0.00000000 NULL      -0.10944400      -0.59039800      -0.44133500
P        9.00060159       1.79044853       1.93527098       0.00000000 NULL      -0.45657700       0.38998100      -0.44133500
P        6.37510322       7.46110564       1.93527098       0.00000000 NULL       0.56602000       0.20041600      -0.44133500
P        8.61364114       3.93621605       2.55991563       0.00000000 NULL       0.10260800      -0.85756500      -0.20386500
P        8.42687264       6.72333946       2.55991563       0.00000000 NULL      -0.79397700       0.33992000      -0.20386300
P       10.93397656       5.49152402       2.55991563       0.00000000 NULL       0.69137200       0.51764200      -0.20386600
P        7.97069527       6.62761883       0.33944197       0.00000000 NULL       0.51600800       0.56375100       0.46534800
P       11.07916876       5.93444553       0.33944197       0.00000000 NULL       0.23022100      -0.72875400       0.46535000
P        8.92462632       3.58901517       0.33944197       0.00000000 NULL      -0.74622800       0.16500000       0.46535000
27
Lattice="9.458931718656121 -1.3504519439261893e-15 4.936915761320728e-16 4.729465859328061 8.1916751610186 2.4420321466648974e-16 4.729465859328064 2.730558387006201 8.950731439497101" Properties=species:S:1:pos:R:3:initial_magmoms:R:1:castep_labels:S:1:forces:R:3 n_minim_iter=7 energy=-138.588819227621 stress="0.00839137723900392 -0.0 -0.0 -0.0 0.008391348401565944 0.0 -0.0 0.0 -0.0010839271998977962" free_energy=-138.588819227621 pbc="T T T"
P        8.14369791       3.59626276       5.32743691       0.00000000 NULL       0.34187200       0.06408900      -0.23467500
P        8.50153720       7.53256885       5.32743691       0.00000000 NULL      -0.11543400      -0.32811400      -0.23467500
P       11.73155862       5.25451789       5.32743691       0.00000000 NULL      -0.22643900       0.26402500      -0.23467500
P       13.98360199       6.88717866       3.90565087       0.00000000 NULL       0.03218000       0.40784600       0.29659400
P       13.16106779       9.02128077       3.90565087       0.00000000 NULL       0.33711400      -0.23179200       0.29659400
P       15.42052153       8.66656523       3.90565087       0.00000000 NULL      -0.36929400      -0.17605400       0.29659400
P        7.73200886       4.52961723       7.21684280       0.00000000 NULL      -0.14598900       0.40339300       0.39207700
P        9.51569040       7.42242479       7.21684280       0.00000000 NULL       0.42234300      -0.07526700       0.39207700
P       11.12909447       4.43130749       7.21684280       0.00000000 NULL      -0.27635400      -0.32812700       0.39207700
P       17.66630611      10.72430971       8.43196680       0.00000000 NULL      -0.04407600       0.13143700      -0.28086400
P       14.64276870       3.91339993       8.43196680       0.00000000 NULL       0.13586700      -0.02754500      -0.28086300
P       10.25611651       9.93731502       8.43196680       0.00000000 NULL      -0.09179100      -0.10389300      -0.28086300
P        3.30722667       4.68853367       1.40321765       0.00000000 NULL       0.16213800       0.76211700      -0.12111700
P        7.13624132       2.98326520       1.40321765       0.00000000 NULL       0.57894000      -0.52147500      -0.12111800
P        3.74492817       0.51987548       1.40321765       0.00000000 NULL      -0.74108100      -0.24063700      -0.12111800
P       10.73829390       7.33843539       5.38479101       0.00000000 NULL      -0.17576900      -0.11932300       0.09704100
P       10.44505576       3.41449649       5.38479101       0.00000000 NULL      -0.01545200       0.21188200       0.09704100
P        7.19344407       5.63041762       5.38479101       0.00000000 NULL       0.19122100      -0.09255900       0.09704100
P       12.77356388       7.01358931       1.91802254       0.00000000 NULL      -0.11403500      -0.71699700      -0.49210000
P        9.14609582       1.81432403       1.91802254       0.00000000 NULL      -0.56392000       0.45725500      -0.49209900
P        6.45713404       7.55543616       1.91802254       0.00000000 NULL       0.67795500       0.25974200      -0.49210000
P        8.72242269       3.95526865       2.52156080       0.00000000 NULL       0.22661700      -0.46782000       0.03282100
P        8.52308303       6.85187554       2.52156080       0.00000000 NULL      -0.51845200       0.03765300       0.03282100
P       11.13128801       5.57620531       2.52156080       0.00000000 NULL       0.29183700       0.43016400       0.03281900
P        8.14031223       6.77980249       0.33619521       0.00000000 NULL       0.12907900       0.41319700       0.31022300
P       11.26025631       5.94373107       0.33619521       0.00000000 NULL       0.29330100      -0.31838600       0.31022500
P        8.97622519       3.65981594       0.33619521       0.00000000 NULL      -0.42238000      -0.09481200       0.31022300
27
Lattice="9.56199235614233 -2.6473424914252883e-15 4.595562432616255e-16 4.780996178071168 8.280928291211874 1.9302702845292232e-16 4.7809961780711685 2.7603094304039586 8.882201273461733" Properties=species:S:1:pos:R:3:initial_magmoms:R:1:castep_labels:S:1:forces:R:3 n_minim_iter=8 energy=-138.892618942163 stress="0.01130359050098028 0.0 0.0 0.0 0.011303576282538023 0.0 0.0 0.0 0.0008552108647890388" free_energy=-138.892618942163 pbc="T T T"
P        8.25444127       3.59664442       5.34811355       0.00000000 NULL       0.19160300       0.16773600      -0.08504800
P        8.54955668       7.61497771       5.34811355       0.00000000 NULL       0.04946300      -0.24980100      -0.08504800
P       11.88197769       5.35023362       5.34811355       0.00000000 NULL      -0.24106500       0.08206500      -0.08504800
P       14.15998768       6.97195479       3.88213016       0.00000000 NULL      -0.01048600       0.48614900       0.26177100
P       13.30088417       9.09389760       3.88213016       0.00000000 NULL       0.42626100      -0.23399400       0.26177200
P       15.56809231       8.77693166       3.88213016       0.00000000 NULL      -0.41577500      -0.25215500       0.26177100
P        7.84012992       4.64674991       7.19871872       0.00000000 NULL      -0.19656000       0.26433600       0.27612200
P        9.66613038       7.44872912       7.19871872       0.00000000 NULL       0.32720100       0.03805800       0.27612200
P       11.17971533       4.46637673       7.19871872       0.00000000 NULL      -0.13064100      -0.30239400       0.27612200
P       17.84090555      10.85459682       8.29979561       0.00000000 NULL       0.66330000       0.21839200      -0.26511600
P       14.82289187       3.96480820       8.29979561       0.00000000 NULL      -0.14251700      -0.68363100      -0.26511600
P       10.36516674      10.02337903       8.29979561       0.00000000 NULL      -0.52078400       0.46523900      -0.26511600
P        3.40522374       4.79599245       1.39774317       0.00000000 NULL      -0.02384500       0.57479600       0.19323100
P        7.23183513       2.93392098       1.39774317       0.00000000 NULL       0.50971500      -0.26674500       0.19323100
P        3.70592823       0.55101404       1.39774317       0.00000000 NULL      -0.48586400      -0.30804700       0.19323100
P       10.79896868       7.36852020       5.31192359       0.00000000 NULL      -0.22562200      -0.08661300       0.09909500
P       10.54383322       3.52541445       5.31192359       0.00000000 NULL       0.03780200       0.23870100       0.09909500
P        7.34317374       5.66792111       5.31192359       0.00000000 NULL       0.18782000      -0.15208800       0.09909500