22
Lattice="4.924885671115082 -0.1029024926325365 -0.15778466558545048 -1.171747982638116 10.81892603903016 -0.35499198838856766 -1.1717479826381165 -4.6869150955583025 9.757459035878789" Properties=species:S:1:pos:R:3:initial_magmoms:R:1:castep_labels:S:1:forces:R:3 n_minim_iter=1 energy=-109.936630228278 stress="0.0017431072459980455 0.0006406214135213594 0.00098225727419627 0.0006406214135213594 3.2347254251424466e-05 -0.0006233839911888402 0.00098225727419627 -0.0006233839911888402 -0.0005169650706856765" free_energy=-109.936630228278 pbc="T T T"
P       -0.35368353       7.46009708       3.41405897       0.00000000 NULL       0.25806900       0.82232100       0.53364000
P        2.93507324       5.91266162       1.04131191       0.00000000 NULL      -0.25806800      -0.15679300      -0.96767700
P        2.76638762       1.49857759       0.52182802       0.00000000 NULL       0.54104600       0.10850700      -0.10343500
P       -0.18499791       6.15578231       7.66291344       0.00000000 NULL      -0.54104700       0.13840300      -0.05759300
P        0.20897095       4.12603733       6.94579422       0.00000000 NULL      -0.26582200      -0.47223500       0.01389000
P        2.37241876       1.33645805       2.66841645       0.00000000 NULL       0.26582200      -0.20311100       0.42655000
P        2.59011068       6.00437878       3.27701710       0.00000000 NULL       0.06148200      -0.17559800      -0.17278600
P       -0.00872097       5.45114359       2.42871860       0.00000000 NULL      -0.06148300       0.08732100       0.23035700
P        0.75552799      -0.36417664       2.16355954       0.00000000 NULL      -0.32117300      -0.32789800       0.18864400
P        1.82586172       3.90236602       8.70562660       0.00000000 NULL       0.32117300      -0.30483500       0.22400700
P        1.52601155       5.59229271       5.77913370       0.00000000 NULL       0.05382200       0.06725700       0.19410500
P        1.05537815       2.99526522       1.79700360       0.00000000 NULL      -0.05382200      -0.15051000      -0.13980800
P        2.70075243       8.71078502       1.22290616       0.00000000 NULL      -0.21717900       0.23180300      -0.58940200
P       -0.11936272       8.42208540       0.78023105       0.00000000 NULL       0.21718000       0.63283200       0.02551300
P        3.94069601       3.90294573       0.94386086       0.00000000 NULL      -0.57333700      -0.50068700      -0.34225600
P       -1.35930630       6.73898390       5.29247597       0.00000000 NULL       0.57333700       0.11133500       0.59618100
P        0.05088643       1.26457127       8.65746752       0.00000000 NULL       0.72540300      -0.23867700       0.40252300
P        2.53050328      -1.38363130       4.59686853       0.00000000 NULL      -0.72540300      -0.46458700       0.05612500
P        0.89971415      -0.65126619       5.81740965       0.00000000 NULL      -0.34501300      -0.16900700      -0.24677300
P        1.68167556       0.44291333       7.49516054       0.00000000 NULL       0.34501300       0.15768500       0.25415700
P        2.52687517       5.87294054       8.04767161       0.00000000 NULL       0.22454100       0.14136400      -0.66452300
P        0.05451453       1.03244043       0.62553176       0.00000000 NULL      -0.22454100       0.66510900       0.13856200
22
Lattice="4.76950159122928 -0.1643667394285298 -0.25203034786254797 -1.2581540070310309 10.82374474531407 -0.20659957372480237 -1.2581540070310309 -4.553061458375083 9.821698684638854" Properties=species:S:1:pos:R:3:initial_magmoms:R:1:castep_labels:S:1:forces:R:3 n_minim_iter=2 energy=-110.089920182514 stress="-0.01700190676179679 -0.0015911890128760878 -0.002439840640370164 -0.0015911890128760878 -0.0003528666792271906 0.002963268964125457 -0.002439840640370164 0.002963268964125457 0.0022582821785857255" free_energy=-110.089920182514 pbc="T T T"
P       -0.48727013       7.53292066       3.56545136       0.00000000 NULL       0.36105900       0.70237300       0.52592000
P        2.74046371       5.88068946       1.03201664       0.00000000 NULL      -0.36105900      -0.19809200      -0.85479900
P        2.66859533       1.47444433       0.48956690       0.00000000 NULL       0.10581700       0.09495700      -0.02863500
P       -0.41540175       6.25278289       7.81639186       0.00000000 NULL      -0.10581600       0.06449000      -0.07535100
P        0.01389831       4.18760546       7.06249685       0.00000000 NULL      -0.68482600      -0.27810400       0.01279900
P        2.23929527       1.33169304       2.68340773       0.00000000 NULL       0.68482600      -0.12383900       0.24933800
P        2.37512442       6.00296235       3.32777889       0.00000000 NULL       0.32320900      -0.35434500      -0.33256100
P       -0.12193084       5.48132760       2.52793467       0.00000000 NULL      -0.32320900       0.16146500       0.45835200
P        0.68366320      -0.35916670       2.17430829       0.00000000 NULL      -0.19166200      -0.34062500       0.24432100
P        1.56953037       3.97175770       8.81509454       0.00000000 NULL       0.19166200      -0.36091700       0.21320700
P        1.30340470       5.64334604       5.88406532       0.00000000 NULL       0.18472200       0.12903200      -0.04458600
P        0.94978888       2.99703263       1.82636307       0.00000000 NULL      -0.18472200       0.09282400      -0.10010300
P        2.47753844       8.69723947       1.26796514       0.00000000 NULL      -0.49925900       0.18573800      -0.46236200
P       -0.22434486       8.45259785       0.89284598       0.00000000 NULL       0.49925900       0.49800100       0.01644500
P        3.72791997       3.84610640       0.91447953       0.00000000 NULL      -0.55450100      -0.46914400      -0.29814700
P       -1.47472639       6.82016246       5.47472320       0.00000000 NULL       0.55450200       0.08368600       0.54953000
P       -0.10059928       1.35848703       8.77414852       0.00000000 NULL       0.68998500      -0.20878700       0.25531400
P        2.35379285      -1.37533436       4.58226665       0.00000000 NULL      -0.68998400      -0.31782300       0.08812600
P        0.75820223      -0.59810863       5.84265764       0.00000000 NULL      -0.40143100      -0.04547400      -0.05764400
P        1.49499135       0.51844901       7.55472185       0.00000000 NULL       0.40143100       0.03441600       0.06485500
P        2.23310012       5.94136962       8.12778514       0.00000000 NULL      -0.12118500       0.31888600      -0.22151500
P        0.02009345       1.06392499       0.64899672       0.00000000 NULL       0.12118400       0.33128400      -0.20250600
22
Lattice="4.913814052841216 -0.23724599236744534 -0.3637791331339393 -1.4408424930816977 10.8501302942566 -0.10856651351554951 -1.4408424930816977 -4.47398802364118 9.885370263906008" Properties=species:S:1:pos:R:3:initial_magmoms:R:1:castep_labels:S:1:forces:R:3 n_minim_iter=3 energy=-110.46627896413 stress="0.0023064310109269025 -0.002912461503136355 -0.0044658067802389656 -0.002912461503136355 0.013363438050883017 0.00511417873793524 -0.0044658067802389656 0.00511417873793524 0.01786991056442663" free_energy=-110.46627896413 pbc="T T T"
P       -0.66486754       7.63428115       3.69282298       0.00000000 NULL       0.08171100       0.19028500       0.48498900
P        2.69699660       5.83757649       0.93786111       0.00000000 NULL      -0.08171100      -0.36710200      -0.36967500
P        2.75239126       1.44640918       0.43240477       0.00000000 NULL       0.10950300       0.04526900       0.44274900
P       -0.72026219       6.32636926       7.91505022       0.00000000 NULL      -0.10950300      -0.38691500      -0.21993700
P       -0.21964820       4.20213380       7.13755952       0.00000000 NULL      -0.48959200       0.45974600       0.13115800
P        2.25177727       1.30143926       2.68980412       0.00000000 NULL       0.48959200       0.06533900      -0.47360300
P        2.29685802       5.97777339       3.31806820       0.00000000 NULL       0.55354500      -0.26463000      -0.34146500
P       -0.26472895       5.51263788       2.60485661       0.00000000 NULL      -0.55354500       0.20578500       0.37984200
P        0.63771232      -0.38075974       2.18705504       0.00000000 NULL      -0.06376000       0.05603700       0.02593400
P        1.39441675       3.98396661       8.87967122       0.00000000 NULL       0.06376000      -0.00113900      -0.06173500
P        1.14094216       5.67308016       5.94285158       0.00000000 NULL       0.22002600      -0.05558600       0.21824300
P        0.89118690       2.98780446       1.82540683       0.00000000 NULL      -0.22002600      -0.22212900      -0.03712500
P        2.38139132       8.69347679       1.23123595       0.00000000 NULL      -0.07387200       0.00938000      -0.62539500
P       -0.34926226       8.51727204       0.96105388       0.00000000 NULL       0.07387200       0.57609100       0.24356700
P        3.71859278       3.76082060       0.83422079       0.00000000 NULL      -0.31132600       0.02532400      -0.00253100
P       -1.68646371       6.89180219       5.63508490       0.00000000 NULL       0.31132600       0.01252600      -0.02215400
P       -0.25400150       1.39864511       8.87127776       0.00000000 NULL       0.98488000      -0.44414600      -0.03835300
P        2.28613057      -1.41544805       4.55631185       0.00000000 NULL      -0.98488000      -0.14397700       0.42191000
P        0.63644085      -0.58349733       5.84287045       0.00000000 NULL       0.13798500       0.06384900       0.10134900
P        1.39568821       0.55672509       7.59122084       0.00000000 NULL      -0.13798500      -0.06700400      -0.09929200
P        2.05605226       5.97789702       8.11957377       0.00000000 NULL      -0.15789900       0.03571000      -0.21078200
P       -0.02392319       1.11874648       0.66883645       0.00000000 NULL       0.15789900       0.20728800       0.05230500
22
Lattice="4.993532401716562 -0.2755703008835161 -0.42254338702422733 -1.5458666625948887 10.570010132829722 -0.11636277326405461 -1.545866662594889 -4.368181568650132 9.625884078173296" Properties=species:S:1:pos:R:3:initial_magmoms:R:1:castep_labels:S:1:forces:R:3 n_minim_iter=4 energy=-110.861480535752 stress="-0.0032687550957763317 -0.00452951413962455 -0.006945280779013946 -0.00452951413962455 0.002248870960728259 0.0001930741964474732 -0.006945280779013946 0.0001930741964474732 0.00241900081524645" free_energy=-110.861480535752 pbc="T T T"
P       -0.76201843       7.48494579       3.61349146       0.00000000 NULL      -0.07127900      -0.19157000       0.31602500
P        2.66381751       5.63732598       0.78045927       0.00000000 NULL       0.07127900      -0.36643900       0.04789200
P        2.81585075       1.38717046       0.36863473       0.00000000 NULL      -0.24467000       0.11355200       0.38765000
P       -0.91405168       6.14820401       7.66892519       0.00000000 NULL       0.24467000      -0.30896300      -0.26020900
P       -0.36702158       4.03849228       6.91952299       0.00000000 NULL      -0.43211700       0.39902100      -0.07508000
P        2.26882066       1.22235205       2.60141822       0.00000000 NULL       0.43211700       0.22958800      -0.33488000
P        2.25596368       5.76801160       3.15222349       0.00000000 NULL       0.18061100      -0.54425500      -0.42799400
P       -0.35416461       5.36719392       2.53763308       0.00000000 NULL      -0.18061100       0.17222800       0.67061900
P        0.59981902      -0.40637753       2.13025896       0.00000000 NULL       0.21223300       0.69001000       0.43506300
P        1.30198006       3.81297490       8.59996728       0.00000000 NULL      -0.21223300      -0.11993000      -0.80685200
P        1.04786685       5.49689142       5.74707394       0.00000000 NULL       0.09331500      -0.19804800      -0.14440100
P        0.85393223       2.88328887       1.73952861       0.00000000 NULL      -0.09331500       0.05229400       0.23945800
P        2.31646781       8.44932357       1.09005953       0.00000000 NULL      -0.58191300      -0.01388900      -0.10004100
P       -0.41466873       8.33538749       0.91535660       0.00000000 NULL       0.58191300       0.08594800       0.05304500
P        3.69162218       3.58553681       0.72135694       0.00000000 NULL      -0.07501700       0.14557400      -0.07686200
P       -1.78982311       6.71177561       5.51494873       0.00000000 NULL       0.07501700       0.12903200      -0.10222800
P       -0.31520933       1.31590114       8.63334051       0.00000000 NULL       0.57992700      -0.44620700      -0.39539800
P        2.21700841      -1.44370688       4.40191892       0.00000000 NULL      -0.57992700       0.18193100       0.56775200
P        0.55481397      -0.60136728       5.64672699       0.00000000 NULL       0.04795200       0.07632100       0.11515300
P        1.34698510       0.51637643       7.36060983       0.00000000 NULL      -0.04795200      -0.07460700      -0.11627000
P        1.95877305       5.78441234       7.78372203       0.00000000 NULL      -0.17940200       0.06278900       0.10894300
P       -0.05697397       1.13544163       0.65526216       0.00000000 NULL       0.17940200      -0.07437900      -0.10138300
22
Lattice="4.965129301360934 -0.1947506006374169 -0.2986191841228974 -1.3698648626554117 10.460498120677634 -0.02518619549864749 -1.3698648626554129 -4.2405904221884345 9.562428987887332" Properties=species:S:1:pos:R:3:initial_magmoms:R:1:castep_labels:S:1:forces:R:3 n_minim_iter=5 energy=-110.957812366043 stress="-0.007122546559021312 0.0011160725811644498 0.0017113564147943213 0.0011160725811644498 0.00191664862754977 0.0027357458916509626 0.0017113564147943213 0.0027357458916509626 0.00432731945875902" free_energy=-110.957812366043 pbc="T T T"
P       -0.53665286       7.48793824       3.72330107       0.00000000 NULL      -0.09346800      -0.29926300       0.09855000
P        2.76205243       5.63694264       0.88509265       0.00000000 NULL       0.09346700      -0.21084400       0.23412600
P        2.85778898       1.43368633       0.46017121       0.00000000 NULL      -0.71116200       0.35624800       0.40946000
P       -0.63238940       6.18209083       7.74109703       0.00000000 NULL       0.71116400      -0.23106900      -0.49109800
P       -0.13980090       4.07430071       6.98220195       0.00000000 NULL      -0.05988700       0.39080900       0.15241800
P        2.36520048       1.27832980       2.69502362       0.00000000 NULL       0.05988700       0.01809000      -0.41909000
P        2.43116234       5.78632146       3.27925480       0.00000000 NULL       0.61551900      -0.41169400      -0.29920100
P       -0.20576276       5.35722649       2.62130567       0.00000000 NULL      -0.61551900       0.10781400       0.49738200
P        0.63503983      -0.36989355       2.16068529       0.00000000 NULL       0.05871400       0.76285300       0.45586300
P        1.59035974       3.89873996       8.70595833       0.00000000 NULL      -0.05871400      -0.10959500      -0.88189800
P        1.28521573       5.54341685       5.86571294       0.00000000 NULL       0.17760700      -0.16656000      -0.06670600
P        0.94018385       2.89237757       1.80076430       0.00000000 NULL      -0.17760700      -0.00611200       0.17931700
P        2.46167943       8.44467860       1.23599843       0.00000000 NULL      -0.48764200       0.10266100       0.11228700
P       -0.23627985       8.29886231       1.01241224       0.00000000 NULL       0.48764100      -0.06136400      -0.13922100
P        3.73698382       3.61164179       0.84937052       0.00000000 NULL       0.01782800       0.25247000       0.17239200
P       -1.51158425       6.70405220       5.59109182       0.00000000 NULL      -0.01782700      -0.05596700      -0.30054600
P       -0.03762902       1.39279695       8.67753958       0.00000000 NULL       0.08614700      -0.27163400      -0.10207400
P        2.26302859      -1.35425196       4.46537540       0.00000000 NULL      -0.08614600      -0.01610900       0.28973200
P        0.67373234      -0.52253906       5.66376852       0.00000000 NULL      -0.10916100       0.53914000       0.81291100
P        1.55166723       0.63146282       7.43324752       0.00000000 NULL       0.10916100      -0.52653500      -0.82113200
P        2.25350547       5.87478635       7.90734292       0.00000000 NULL      -0.98811500       0.12437900       0.36920800
P       -0.02810589       1.15765051       0.67436262       0.00000000 NULL       0.98811300      -0.28771900      -0.26268000
22
Lattice="4.969788484976593 -0.20881495100307326 -0.32018463664353053 -1.3976062198857182 10.300016607858232 0.16403325357493156 -1.3976062198857206 -4.002728273542282 9.491860481413497" Properties=species:S:1:pos:R:3:initial_magmoms:R:1:castep_labels:S:1:forces:R:3 n_minim_iter=6 energy=-111.20881321292 stress="-0.00683011420993892 -0.0006768074912080707 -0.0010377728753549016 -0.0006768074912080707 -0.004392353122808448 0.0068862578995721934 -0.0010377728753549016 0.0068862578995721934 0.0016755818556191929" free_energy=-111.20881321292 pbc="T T T"
P       -0.56742742       7.46830091       3.90360425       0.00000000 NULL      -0.21526700      -0.57427900      -0.37482300
P        2.74200346       5.52734283       0.92745262       0.00000000 NULL       0.21526900       0.11146500       0.67666000
P        2.84448848       1.44447594       0.50279761       0.00000000 NULL      -0.22924900       0.19838900       0.06077500
P       -0.66991244       6.21074920       7.81112234       0.00000000 NULL       0.22924800       0.02437200      -0.20605300
P       -0.20254172       4.13165341       7.06011156       0.00000000 NULL      -0.05294800       0.04815900       0.12899000
P        2.37711776       1.29347353       2.70821247       0.00000000 NULL       0.05294700      -0.09862500      -0.09607800
P        2.44214786       5.69897571       3.33047110       0.00000000 NULL       0.71293100      -0.44178500      -0.30077700
P       -0.26757181       5.33845714       2.77767300       0.00000000 NULL      -0.71293100       0.09712400       0.52555600
P        0.61076921      -0.27976816       2.20778599       0.00000000 NULL       0.22363700      -0.27936800       0.12665400
P        1.56380684       3.95529100       8.70157810       0.00000000 NULL      -0.22363600      -0.22854000       0.20458500
P        1.26120213       5.54401652       5.96192268       0.00000000 NULL       0.13340300      -0.08919000      -0.33841600
P        0.91337391       2.86789242       1.85851046       0.00000000 NULL      -0.13340300       0.27373100       0.21806500
P        2.37756015       8.34989940       1.35001490       0.00000000 NULL      -0.27165700      -0.04571800      -0.54393600
P       -0.20298411       8.21962635       1.15026181       0.00000000 NULL       0.27165700       0.47933600       0.26114900
P        3.69032074       3.54822483       0.88358604       0.00000000 NULL       0.31142600       0.12431000       0.20610100
P       -1.51574469       6.71048834       5.73241601       0.00000000 NULL      -0.31142600      -0.13848600      -0.19685600
P       -0.00779904       1.48116692       8.70390768       0.00000000 NULL      -0.34688700      -0.32009900      -0.53210300
P        2.18237509      -1.27943591       4.47096071       0.00000000 NULL       0.34688300       0.35787400       0.50746300
P        0.62247408      -0.39689159       5.68122311       0.00000000 NULL      -0.15088700       0.49687400       0.71366000
P        1.55210197       0.72946558       7.40831335       0.00000000 NULL       0.15088700      -0.45275000      -0.74243700
P        2.16950893       5.93154018       7.98030974       0.00000000 NULL      -0.32757800       0.43949200       0.17427400
P        0.00506712       1.17707602       0.69009239       0.00000000 NULL       0.32757800       0.01771400      -0.47245200
22
Lattice="4.91342506648797 -0.20111144115819637 -0.3083725250647692 -1.3700567369678516 10.459272056218488 -0.00013953863865715055 -1.3700567369678522 -4.2171754570480156 9.571405493966711" Properties=species:S:1:pos:R:3:initial_magmoms:R:1:castep_labels:S:1:forces:R:3 n_minim_iter=7 energy=-111.329834478794 stress="-0.01194559119447924 -0.00048776316004090896 -0.0007479269744899605 -0.00048776316004090896 -0.0004556748404422752 0.000922031985989644 -0.0007479269744899605 0.000922031985989644 0.0003567807096534538" free_energy=-111.329834478794 pbc="T T T"
P       -0.54563241       7.53571091       3.81163899       0.00000000 NULL      -0.43522300      -0.68016700      -0.46023400
P        2.71894400       5.59119249       0.83002813       0.00000000 NULL       0.43522500       0.14693400       0.80799500
P        2.81293395       1.47911957       0.49858546       0.00000000 NULL      -0.22936700       0.11133600      -0.01478000
P       -0.63962236       6.18108346       7.70830197       0.00000000 NULL       0.22936500       0.05841400      -0.09592600
P       -0.19450592       4.08309126       7.01282153       0.00000000 NULL       0.04450200       0.09274100       0.01852300
P        2.36781752       1.26968158       2.69890362       0.00000000 NULL      -0.04450200       0.02044000      -0.09233700
P        2.44971799       5.71340518       3.23012053       0.00000000 NULL       0.66809600      -0.36816600      -0.18927400
P       -0.27640640       5.38861924       2.73211276       0.00000000 NULL      -0.66809600       0.02476900       0.41322800
P        0.60107780      -0.30073796       2.24377116       0.00000000 NULL       0.19572600      -0.09438800      -0.24251900
P        1.57223379       3.86641736       8.63344348       0.00000000 NULL      -0.19572600       0.18387800       0.18415700
P        1.27042222       5.53265410       5.88877183       0.00000000 NULL      -0.01180300      -0.21720100      -0.45291000
P        0.90288938       2.88276463       1.82558625       0.00000000 NULL       0.01180300       0.32689500       0.38137200
P        2.33458427       8.47373616       1.20605282       0.00000000 NULL      -0.29460200      -0.02223500      -0.62685800
P       -0.16127268       8.35380976       1.02216469       0.00000000 NULL       0.29460300       0.56468400       0.27309100
P        3.63969280       3.58860623       0.82979110       0.00000000 NULL       0.30503200       0.18481900       0.24632200
P       -1.46638121       6.72851008       5.64433606       0.00000000 NULL      -0.30503200      -0.15089600      -0.26844500
P        0.03903918       1.34397192       8.69541210       0.00000000 NULL      -0.73237300      -0.16335800      -0.51158300
P        2.13427241      -1.37446499       4.52711989       0.00000000 NULL       0.73237100       0.40229300       0.35575500
P        0.60864622      -0.47970848       5.71817420       0.00000000 NULL      -0.48977300       0.49171800       0.64391700
P        1.56466538       0.61477204       7.39638664       0.00000000 NULL       0.48977200      -0.39100500      -0.70959900
P        2.14867340       5.91353047       7.89522158       0.00000000 NULL      -0.34427500      -0.03035900       0.52332400
P        0.02463819       1.20019216       0.66806420       0.00000000 NULL       0.34427600      -0.49114700      -0.18321800
22
Lattice="4.891678451299798 -0.1961376096897888 -0.30074594270661853 -1.3524777183282553 10.409508622028884 0.095622281732495 -1.3524777183282573 -4.109478155174635 9.564476078960114" Properties=species:S:1:pos:R:3:initial_magmoms:R:1:castep_labels:S:1:forces:R:3 n_minim_iter=8 energy=-111.629823291716 stress="-0.015236545624263305 0.0002545535609472119 0.00039034182003653146 0.0002545535609472119 -0.0033526485352223367 0.0005839415402369821 0.00039034182003653146 0.0005839415402369821 -0.00283810988296434" free_energy=-111.629823291716 pbc="T T T"
P       -0.55129832       7.53433640       3.91047624       0.00000000 NULL      -0.21259200      -0.29527800      -0.58378600
P        2.73802133       5.56309831       0.88789501       0.00000000 NULL       0.21259300       0.41518000       0.50559100
P        2.81751041       1.51524222       0.53668091       0.00000000 NULL      -0.24259500      -0.14599500      -0.15191900
P       -0.63078740       6.22369355       7.75634489       0.00000000 NULL       0.24259600       0.08016100       0.19485400
P       -0.18942022       4.11612076       7.08328826       0.00000000 NULL       0.16489500       0.01102500       0.13310800
P        2.37614323       1.28142104       2.73672544       0.00000000 NULL      -0.16489600      -0.11736500      -0.06375700
P        2.52691347       5.65226587       3.24778841       0.00000000 NULL      -0.39957900      -0.07096900       0.24177700
P       -0.34019045       5.41070816       2.87739794       0.00000000 NULL       0.39957900      -0.24986900      -0.03253600
P        0.59520510      -0.26523965       2.27653195       0.00000000 NULL       0.28713700      -0.00829400      -0.10084700
P        1.59151792       3.91365757       8.68420861       0.00000000 NULL      -0.28713700       0.08894300       0.04824900
P        1.29059274       5.53679678       5.94688039       0.00000000 NULL       0.00800500      -0.17765900      -0.45562600
P        0.89613028       2.89416645       1.89482556       0.00000000 NULL      -0.00800500       0.34532100       0.34628200
P        2.27797546       8.46598038       1.19732351       0.00000000 NULL      -0.61062000       0.05136600      -0.26672900
P       -0.09125244       8.42157877       1.12924068       0.00000000 NULL       0.61062000       0.26480000       0.06053700
P        3.60853376       3.57343923       0.86877130       0.00000000 NULL       0.51225100       0.05223100       0.22297900
P       -1.42181074       6.74963117       5.73895831       0.00000000 NULL      -0.51225100      -0.18299300      -0.13770000
P        0.08385227       1.36044181       8.71373925       0.00000000 NULL      -0.32232500      -0.18511200      -0.53660200
P        2.10287074      -1.32168834       4.60111771       0.00000000 NULL       0.32232400       0.41641800       0.38575000
P        0.54831118      -0.37951206       5.79552520       0.00000000 NULL      -0.12444300       0.13452000       0.10255000
P        1.63841184       0.64729244       7.36996719       0.00000000 NULL       0.12444300      -0.03960800      -0.16444800
P        2.13196608       5.97733490       7.96678463       0.00000000 NULL      -0.33025000      -0.00165800       0.42016100
P        0.05475694       1.22333642       0.67728132       0.00000000 NULL       0.33024900      -0.38516500      -0.16788600
22
Lattice="4.929217037115981 -0.2235098318831691 -0.3427169077884457 -1.4182738838938225 10.35779222662586 0.13686587312251278 -1.4182738838938254 -4.050884023208617 9.533778406680645" Properties=species:S:1:pos:R:3:initial_magmoms:R:1:castep_labels:S:1:forces:R:3 n_minim_iter=9 energy=-111.886752381396 stress="-0.013014561144867058 -0.0007775723490499528 -0.0011922706502664824 -0.0007775723490499528 -0.004988600545174815 -0.0014045936779097056 -0.0011922706502664824 -0.0014045936779097056 -0.006226293015911481" free_energy=-111.886752381396 pbc="T T T"
P       -0.64841484       7.50246093       3.90710530       0.00000000 NULL      -0.20735800      -0.19841900      -0.36840800
P        2.74108411       5.53283684       0.88699889       0.00000000 NULL       0.20735900       0.25713700       0.33011500
P        2.84074554       1.49998856       0.52076021       0.00000000 NULL      -0.17044100      -0.34330100      -0.23947000
P       -0.74807627       6.21161829       7.74529775       0.00000000 NULL       0.17044100       0.08072900       0.41071300
P       -0.26311374       4.10819883       7.09118495       0.00000000 NULL       0.00592500      -0.10699400       0.02954500
P        2.35578301       1.25050612       2.70936605       0.00000000 NULL      -0.00592600      -0.07017600       0.08599900
P        2.47824993       5.57686976       3.22406744       0.00000000 NULL      -0.18988600      -0.08559900       0.14916200
P       -0.38558066       5.38152238       2.92453318       0.00000000 NULL       0.18988600      -0.17101300       0.01819300
P        0.59311196      -0.24553813       2.28113226       0.00000000 NULL       0.34097100       0.05694600       0.06577300
P        1.49955731       3.89689667       8.63289957       0.00000000 NULL      -0.34097000      -0.03723100      -0.07863400
P        1.23051116       5.48126612       5.90569711       0.00000000 NULL       0.00308100      -0.10713500      -0.57451000
P        0.86215811       2.88897023       1.93082216       0.00000000 NULL      -0.00308100       0.48254800       0.32967600
P        2.16234608       8.42459517       1.11438803       0.00000000 NULL      -0.54488900       0.12830900       0.22506200
P       -0.06967681       8.46029398       1.16912650       0.00000000 NULL       0.54488800      -0.15422400      -0.20815800
P        3.62300526       3.52721519       0.84910831       0.00000000 NULL       0.62507300       0.32340400       0.23010800
P       -1.53033599       6.72849367       5.75776156       0.00000000 NULL      -0.62507300      -0.08018400      -0.38872900
P        0.05306030       1.30844894       8.63409136       0.00000000 NULL      -0.36052500      -0.04350200      -0.18232600
P        2.03960897      -1.29025853       4.64938528       0.00000000 NULL       0.36052400       0.14930900       0.11332000
P        0.47761565      -0.34525561       5.79029250       0.00000000 NULL      -0.31639500      -0.00344500      -0.08540200
P        1.61505362       0.64539827       7.30930323       0.00000000 NULL       0.31639500       0.07676300       0.03758500