27
Lattice="8.316119999999994 -1.3517433479513718e-15 0.0 -4.158059999999997 7.201971180919844 0.0 0.0 0.0 10.16928" Properties=species:S:1:pos:R:3:initial_magmoms:R:1:castep_labels:S:1 n_minim_iter=1 pbc="T T T"
P        7.18438048       1.69114743       1.21887160       0.00000000 NULL
P        3.25935313       5.37628229       1.21887160       0.00000000 NULL
P        2.03044640       0.13454146       1.21887160       0.00000000 NULL
P       -0.03821590       2.65606393       9.10577670       0.00000000 NULL
P        1.87694912       5.84084327       9.10577670       0.00000000 NULL
P       -1.83873321       5.90703516       9.10577670       0.00000000 NULL
P        2.09602274       5.13153914       3.34775138       0.00000000 NULL
P       -1.33399462       6.45141055       3.34775138       0.00000000 NULL
P       -0.76202811       2.82099268       3.34775138       0.00000000 NULL
P        0.78239013       7.00818846       6.48834131       0.00000000 NULL
P       -2.30240430       4.37544668       6.48834131       0.00000000 NULL
P        1.52001418       3.02030723       6.48834131       0.00000000 NULL
P        5.53999873       2.62785380       7.36835318       0.00000000 NULL
P        3.27033249       3.48385274       7.36835318       0.00000000 NULL
P        3.66384879       1.09026465       7.36835318       0.00000000 NULL
P        2.60980761       6.83482261       7.36669355       0.00000000 NULL
P       -3.06597381       6.04471956       7.36669355       0.00000000 NULL
P        0.45616621       1.52440019       7.36669355       0.00000000 NULL
P       -1.95471274       3.97636889       4.53885271       0.00000000 NULL
P        1.69177990       3.52095584       4.53885271       0.00000000 NULL
P        0.26293285       6.90661763       4.53885271       0.00000000 NULL
P       -0.37466158       3.13463995       5.72753680       0.00000000 NULL
P        1.63071297       5.31018476       5.72753680       0.00000000 NULL
P       -1.25605138       5.95911766       5.72753680       0.00000000 NULL
P       -3.45868055       6.21118520       0.14435598       0.00000000 NULL
P        0.50835611       1.10107336       0.14435598       0.00000000 NULL
P        2.95032445       7.09168381       0.14435598       0.00000000 NULL
27
Lattice="8.356145991728727 1.3227295766852063e-15 0.0 -4.178072995864366 7.236634706568591 0.0 0.0 0.0 10.218336201297548" Properties=species:S:1:pos:R:3:initial_magmoms:R:1:castep_labels:S:1 n_minim_iter=2 pbc="T T T"
P        7.21873241       1.69956934       1.22489196       0.00000000 NULL
P        3.27490956       5.40182098       1.22489196       0.00000000 NULL
P        2.04057702       0.13524439       1.22489196       0.00000000 NULL
P       -0.03844470       2.66903346       9.14959814       0.00000000 NULL
P        1.88584457       5.86882389       9.14959814       0.00000000 NULL
P       -1.84739986       5.93541207       9.14959814       0.00000000 NULL
P        2.10608231       5.15648157       3.36390251       0.00000000 NULL
P       -1.34061219       6.48231470       3.36390251       0.00000000 NULL
P       -0.76547011       2.83447314       3.36390251       0.00000000 NULL
P        0.78607009       7.04201653       6.51974405       0.00000000 NULL
P       -2.31352725       4.39638311       6.51974405       0.00000000 NULL
P        1.52745717       3.03486978       6.51974405       0.00000000 NULL
P        5.56647810       2.64017158       7.40409946       0.00000000 NULL
P        3.28645129       3.50062565       7.40409946       0.00000000 NULL
P        3.68128961       1.09583748       7.40409946       0.00000000 NULL
P        2.62257217       6.86767387       7.40231541       0.00000000 NULL
P       -3.08079312       6.07401189       7.40231541       0.00000000 NULL
P        0.45822096       1.53158366       7.40231541       0.00000000 NULL
P       -1.96428029       3.99568075       4.56042475       0.00000000 NULL
P        1.69985211       3.53767769       4.56042475       0.00000000 NULL
P        0.26442819       6.93991097       4.56042475       0.00000000 NULL
P       -0.37665886       3.14957071       5.75510197       0.00000000 NULL
P        1.63879419       5.33565321       5.75510197       0.00000000 NULL
P       -1.26213532       5.98804550       5.75510197       0.00000000 NULL
P       -3.47522265       6.24087543       0.14501187       0.00000000 NULL
P        0.51092767       1.10656590       0.14501187       0.00000000 NULL
P        2.96429499       7.12582810       0.14501187       0.00000000 NULL
27
Lattice="8.763346047726166 -8.468820981970616e-16 -1.2347835193502102e-58 -4.381673023863084 7.589280299484818 2.5124175384540446e-42 -5.4396922313468595e-58 2.7082418167513398e-42 10.714366641747077" Properties=species:S:1:pos:R:3:initial_magmoms:R:1:castep_labels:S:1 n_minim_iter=3 pbc="T T T"
P        7.56812086       1.78535847       1.28578275       0.00000000 NULL
P        3.43311983       5.66150569       1.28578275       0.00000000 NULL
P        2.14377838       0.14241614       1.28578275       0.00000000 NULL
P       -0.04073168       2.80095986       9.59257773       0.00000000 NULL
P        1.97633647       6.15352570       9.59257773       0.00000000 NULL
P       -1.93560478       6.22407504       9.59257773       0.00000000 NULL
P        2.20833064       5.41039019       3.52733349       0.00000000 NULL
P       -1.40802764       6.79655563       3.52733349       0.00000000 NULL
P       -0.80030299       2.97161478       3.52733349       0.00000000 NULL
P        0.82346336       7.38626058       6.83735117       0.00000000 NULL
P       -2.42674795       4.60929020       6.83735117       0.00000000 NULL
P        1.60328460       3.18300983       6.83735117       0.00000000 NULL
P        5.83564483       2.76524660       7.76568962       0.00000000 NULL
P        3.45074983       3.67119336       7.76568962       0.00000000 NULL
P        3.85862442       1.15284033       7.76568962       0.00000000 NULL
P        2.75248897       7.20181900       7.76263321       0.00000000 NULL
P       -3.23152966       6.37209617       7.76263321       0.00000000 NULL
P        0.47904070       1.60464543       7.76263321       0.00000000 NULL
P       -2.06168924       4.19229927       4.77828592       0.00000000 NULL
P        1.78187998       3.70765541       4.77828592       0.00000000 NULL
P        0.27980927       7.27860593       4.77828592       0.00000000 NULL
P       -0.39710507       3.30127971       6.03372235       0.00000000 NULL
P        1.72123348       5.59473737       6.03372235       0.00000000 NULL
P       -1.32412839       6.28254353       6.03372235       0.00000000 NULL
P       -3.64336273       6.54291211       0.15164611       0.00000000 NULL
P        0.53702629       1.16257956       0.15164611       0.00000000 NULL
P        3.10633645       7.47306893       0.15164611       0.00000000 NULL
27
Lattice="8.908485832737448 5.164286628279401e-16 5.013726259568033e-44 -4.454242916368726 7.714975040404398 4.157222342454785e-42 6.129953227204229e-44 -4.04939244733861e-42 10.836026993233745" Properties=species:S:1:pos:R:3:initial_magmoms:R:1:castep_labels:S:1 n_minim_iter=4 pbc="T T T"
P        7.69257301       1.81625898       1.30064178       0.00000000 NULL
P        3.48927292       5.75383416       1.30064178       0.00000000 NULL
P        2.18088283       0.14488191       1.30064178       0.00000000 NULL
P       -0.04107877       2.84748232       9.70009336       0.00000000 NULL
P        2.00879028       6.25565862       9.70009336       0.00000000 NULL
P       -1.96771150       6.32680915       9.70009336       0.00000000 NULL
P        2.24388164       5.50179769       3.56865419       0.00000000 NULL
P       -1.43239447       6.90733470       3.56865419       0.00000000 NULL
P       -0.81148716       3.02081770       3.56865419       0.00000000 NULL
P        0.83634602       7.50992595       6.91605003       0.00000000 NULL
P       -2.46771674       4.68430896       6.91605003       0.00000000 NULL
P        1.63137073       3.23571517       6.91605003       0.00000000 NULL
P        5.92967158       2.80863294       7.85528443       0.00000000 NULL
P        3.51130257       3.73092975       7.85528443       0.00000000 NULL
P        3.92175461       1.17541234       7.85528443       0.00000000 NULL
P        2.79856290       7.32026861       7.85198813       0.00000000 NULL
P       -3.28457710       6.47846730       7.85198813       0.00000000 NULL
P        0.48601421       1.63121418       7.85198813       0.00000000 NULL
P       -2.09667539       4.26350047       4.82982105       0.00000000 NULL
P        1.81028090       3.76745066       4.82982105       0.00000000 NULL
P        0.28639450       7.39899896       4.82982105       0.00000000 NULL
P       -0.40524209       3.35405009       6.10102422       0.00000000 NULL
P        1.75217138       5.68700005       6.10102422       0.00000000 NULL
P       -1.34692928       6.38889994       6.10102422       0.00000000 NULL
P       -3.70189120       6.65055686       0.15349063       0.00000000 NULL
P        0.54563733       1.18376479       0.15349063       0.00000000 NULL
P        3.15625388       7.59562844       0.15349063       0.00000000 NULL
27
Lattice="8.97873283301492 -5.384236457375533e-16 4.965355481202388e-44 -4.489366416507461 7.775810727184342 4.9990695637818437e-42 6.119917158223655e-44 -8.320452554783335e-42 10.835203243500056" Properties=species:S:1:pos:R:3:initial_magmoms:R:1:castep_labels:S:1 n_minim_iter=5 pbc="T T T"
P        7.75277936       1.83158271       1.30047679       0.00000000 NULL
P        3.51614600       5.79831252       1.30047679       0.00000000 NULL
P        2.19917390       0.14591550       1.30047679       0.00000000 NULL
P       -0.04078703       2.86952211       9.69742816       0.00000000 NULL
P        2.02468089       6.30572706       9.69742816       0.00000000 NULL
P       -1.98389385       6.37637228       9.69742816       0.00000000 NULL
P        2.26005569       5.54712381       3.57041530       0.00000000 NULL
P       -1.44461155       6.95951446       3.57041530       0.00000000 NULL
P       -0.81544412       3.04498319       3.57041530       0.00000000 NULL
P        0.84192838       7.57094107       6.91697787       0.00000000 NULL
P       -2.48822507       4.71947155       6.91697787       0.00000000 NULL
P        1.64629670       3.26120883       6.91697787       0.00000000 NULL
P        5.97281640       2.82840921       7.85618285       0.00000000 NULL
P        3.54285041       3.75840613       7.85618285       0.00000000 NULL
P        3.95243245       1.18899539       7.85618285       0.00000000 NULL
P        2.82046378       7.37668978       7.85283196       0.00000000 NULL
P       -3.30926621       6.53005911       7.85283196       0.00000000 NULL
P        0.48880245       1.64487256       7.85283196       0.00000000 NULL
P       -2.11387760       4.29921772       4.82642127       0.00000000 NULL
P        1.82307346       3.79553016       4.82642127       0.00000000 NULL
P        0.29080415       7.45687358       4.82642127       0.00000000 NULL
P       -0.41022652       3.37817239       6.09879799       0.00000000 NULL
P        1.76889658       5.73145794       6.09879799       0.00000000 NULL
P       -1.35867005       6.44199113       6.09879799       0.00000000 NULL
P       -3.72860412       6.70239046       0.15384563       0.00000000 NULL
P        0.54922808       1.19554960       0.15384563       0.00000000 NULL
P        3.17937605       7.65368140       0.15384563       0.00000000 NULL
27
Lattice="9.007812241522927 -6.688103913560492e-16 5.524133602247866e-44 -4.503906120761465 7.800994233679301 1.2480878118864004e-42 6.84656519330585e-44 -1.949883227749717e-42 10.776407757232004" Properties=species:S:1:pos:R:3:initial_magmoms:R:1:castep_labels:S:1 n_minim_iter=6 pbc="T T T"
P        7.77766212       1.83835960       1.29316503       0.00000000 NULL
P        3.52691507       5.81647318       1.29316503       0.00000000 NULL
P        2.20714118       0.14616146       1.29316503       0.00000000 NULL
P       -0.04016907       2.87811494       9.64259396       0.00000000 NULL
P        2.03147001       6.32714933       9.64259396       0.00000000 NULL
P       -1.99130093       6.39672420       9.64259396       0.00000000 NULL
P        2.26553026       5.56723514       3.55359860       0.00000000 NULL
P       -1.45022606       6.97938342       3.55359860       0.00000000 NULL
P       -0.81530419       3.05536991       3.55359860       0.00000000 NULL
P        0.84347082       7.59753077       6.88124934       0.00000000 NULL
P       -2.49748393       4.73269601       6.88124934       0.00000000 NULL
P        1.65401312       3.27176170       6.88124934       0.00000000 NULL
P        5.98782159       2.83511924       7.81512005       0.00000000 NULL
P        3.55861617       3.76804599       7.81512005       0.00000000 NULL
P        3.96528062       1.19782901       7.81512005       0.00000000 NULL
P        2.82905784       7.39897321       7.81170289       0.00000000 NULL
P       -3.31832155       6.55154359       7.81170289       0.00000000 NULL
P        0.48926372       1.65147168       7.81170289       0.00000000 NULL
P       -2.12134370       4.31551116       4.79685692       0.00000000 NULL
P        1.82723568       3.80610112       4.79685692       0.00000000 NULL
P        0.29410803       7.48037619       4.79685692       0.00000000 NULL
P       -0.41352388       3.38646874       6.06356468       0.00000000 NULL
P        1.77790011       5.74963768       6.06356468       0.00000000 NULL
P       -1.36437622       6.46588205       6.06356468       0.00000000 NULL
P       -3.73783568       6.72358974       0.15357864       0.00000000 NULL
P        0.55002445       1.20213871       0.15357864       0.00000000 NULL
P        3.18781124       7.67626002       0.15357864       0.00000000 NULL
27
Lattice="9.086633103123953 -1.2049083913631165e-15 6.034146076083391e-44 -4.5433165515619764 7.869255102173967 -2.7612133030268307e-42 7.648580778376516e-44 5.5364255421131585e-42 10.561233515657085" Properties=species:S:1:pos:R:3:initial_magmoms:R:1:castep_labels:S:1 n_minim_iter=7 pbc="T T T"
P        7.84488900       1.85763598       1.26607718       0.00000000 NULL
P        3.55542866       5.86505517       1.26607718       0.00000000 NULL
P        2.22963201       0.14656396       1.26607718       0.00000000 NULL
P       -0.03763091       2.90060674       9.44167548       0.00000000 NULL
P        2.05013289       6.38636240       9.44167548       0.00000000 NULL
P       -2.01250197       6.45154106       9.44167548       0.00000000 NULL
P        2.27759273       5.62506635       3.49322092       0.00000000 NULL
P       -1.46693017       7.02917509       3.49322092       0.00000000 NULL
P       -0.81066255       3.08426877       3.49322092       0.00000000 NULL
P        0.84608524       7.67245299       6.75163128       0.00000000 NULL
P       -2.52426526       4.76575992       6.75163128       0.00000000 NULL
P        1.67818003       3.30029730       6.75163128       0.00000000 NULL
P        6.02203672       2.84998683       7.66523960       0.00000000 NULL
P        3.60745376       3.79024336       7.66523960       0.00000000 NULL
P        4.00045919       1.22902492       7.66523960       0.00000000 NULL
P        2.85153162       7.45726517       7.66086384       0.00000000 NULL
P       -3.34063033       6.61012134       7.66086384       0.00000000 NULL
P        0.48909872       1.67112370       7.66086384       0.00000000 NULL
P       -2.14256298       4.36310984       4.68713702       0.00000000 NULL
P        1.83603409       3.83218621       4.68713702       0.00000000 NULL
P        0.30652891       7.54321416       4.68713702       0.00000000 NULL
P       -0.42506510       3.40513617       5.93384636       0.00000000 NULL
P        1.80691469       5.79856984       5.93384636       0.00000000 NULL
P       -1.38184957       6.53480420       5.93384636       0.00000000 NULL
P       -3.75933103       6.78082588       0.15308659       0.00000000 NULL
P        0.55061460       1.22316599       0.15308659       0.00000000 NULL
P        3.20871644       7.73451834       0.15308659       0.00000000 NULL
27
Lattice="9.1158971002956 -7.024127460112544e-16 5.917664638728635e-44 -4.5579485501478 7.894598467140891 -1.8843956528963064e-42 7.543855934263305e-44 2.6898877370077294e-42 10.552157935127813" Properties=species:S:1:pos:R:3:initial_magmoms:R:1:castep_labels:S:1 n_minim_iter=8 pbc="T T T"
P        7.86892381       1.86665787       1.26275185       0.00000000 NULL
P        3.56486207       5.88135898       1.26275185       0.00000000 NULL
P        2.24005978       0.14658162       1.26275185       0.00000000 NULL
P       -0.03551123       2.90894760       9.42595237       0.00000000 NULL
P        2.05648165       6.40937104       9.42595237       0.00000000 NULL
P       -2.02097041       6.47087830       9.42595237       0.00000000 NULL
P        2.27518643       5.65539978       3.50370108       0.00000000 NULL
P       -1.47736454       7.03726783       3.50370108       0.00000000 NULL
P       -0.79782189       3.09652933       3.50370108       0.00000000 NULL
P        0.84359171       7.70684662       6.75721811       0.00000000 NULL
P       -2.53817226       4.77174700       6.75721811       0.00000000 NULL
P        1.69458056       3.31060331       6.75721811       0.00000000 NULL
P        6.01865922       2.84737306       7.66570175       0.00000000 NULL
P        3.64067010       3.78862525       7.66570175       0.00000000 NULL
P        4.01451635       1.25860016       7.66570175       0.00000000 NULL
P        2.85879711       7.47497980       7.65683510       0.00000000 NULL
P       -3.34497240       6.63289948       7.65683510       0.00000000 NULL
P        0.48617530       1.68131765       7.65683510       0.00000000 NULL
P       -2.15331513       4.38931200       4.66450742       0.00000000 NULL
P        1.83335042       3.83511686       4.66450742       0.00000000 NULL
P        0.31996472       7.56476808       4.66450742       0.00000000 NULL
P       -0.43540882       3.40305851       5.91857559       0.00000000 NULL
P        1.82851785       5.81599411       5.91857559       0.00000000 NULL
P       -1.39310901       6.57014432       5.91857559       0.00000000 NULL
P       -3.76047266       6.80232598       0.15710116       0.00000000 NULL
P        0.54719778       1.23677063       0.15710116       0.00000000 NULL
P        3.21327489       7.75010033       0.15710116       0.00000000 NULL
27
Lattice="9.054063392739538 1.2738780959649428e-16 5.962784249013673e-44 -4.52703169636977 7.841048905587162 -5.182302340341174e-42 7.618218466565188e-44 1.0228831092614818e-41 10.439235598131239" Properties=species:S:1:pos:R:3:initial_magmoms:R:1:castep_labels:S:1 n_minim_iter=9 pbc="T T T"
P        7.81508681       1.85477753       1.24815958       0.00000000 NULL
P        3.54023553       5.84067494       1.24815958       0.00000000 NULL
P        2.22577276       0.14559644       1.24815958       0.00000000 NULL
P       -0.03450653       2.88902031       9.32219567       0.00000000 NULL
P        2.04231999       6.36665522       9.32219567       0.00000000 NULL
P       -2.00781344       6.42642229       9.32219567       0.00000000 NULL
P        2.25548334       5.62203692       3.47232707       0.00000000 NULL
P       -1.46953676       6.98333631       3.47232707       0.00000000 NULL
P       -0.78594657       3.07672458       3.47232707       0.00000000 NULL
P        0.83541711       7.65797746       6.68845240       0.00000000 NULL
P       -2.52267988       4.73555261       6.68845240       0.00000000 NULL
P        1.68726278       3.28856774       6.68845240       0.00000000 NULL
P        5.96819382       2.82324492       7.58651323       0.00000000 NULL
P        3.62496467       3.75698500       7.58651323       0.00000000 NULL
P        3.98793662       1.26081899       7.58651323       0.00000000 NULL
P        2.83841803       7.42185699       7.57537975       0.00000000 NULL
P       -3.31969401       6.58826253       7.57537975       0.00000000 NULL
P        0.48127599       1.67197830       7.57537975       0.00000000 NULL
P       -2.14019804       4.36481187       4.60813577       0.00000000 NULL
P        1.81709276       3.80517710       4.60813577       0.00000000 NULL
P        0.32310529       7.51210884       4.60813577       0.00000000 NULL
P       -0.43612660       3.37498720       5.85080427       0.00000000 NULL
P        1.82227035       5.77585859       5.85080427       0.00000000 NULL
P       -1.38614374       6.53125203       5.85080427       0.00000000 NULL
P       -3.73093398       6.75602902       0.15728113       0.00000000 NULL
P        0.54160593       1.23195079       0.15728113       0.00000000 NULL
P        3.18932806       7.69411801       0.15728113       0.00000000 NULL
27
Lattice="9.092897178086464 -1.1196028840668461e-15 7.101929002390375e-44 -4.546448589043232 7.8746799502227125 -6.880745934374347e-42 8.926136509386968e-44 9.837385806903707e-42 10.49720714881589" Properties=species:S:1:pos:R:3:initial_magmoms:R:1:castep_labels:S:1 n_minim_iter=10 pbc="T T T"
P        7.84796943       1.86330791       1.25477207       0.00000000 NULL
P        3.55524048       5.86488693       1.25477207       0.00000000 NULL
P        2.23613587       0.14648511       1.25477207       0.00000000 NULL
P       -0.03451722       2.90184994       9.37302633       0.00000000 NULL
P        2.05063144       6.39386219       9.37302633       0.00000000 NULL
P       -2.01611421       6.45364778       9.37302633       0.00000000 NULL
P        2.26344579       5.64843305       3.49380739       0.00000000 NULL
P       -1.47696081       7.01066497       3.49380739       0.00000000 NULL
P       -0.78648496       3.09026188       3.49380739       0.00000000 NULL
P        0.83806883       7.69212759       6.72701804       0.00000000 NULL
P       -2.53416372       4.75440505       6.72701804       0.00000000 NULL
P        1.69609490       3.30282726       6.72701804       0.00000000 NULL
P        5.99012381       2.83309251       7.62988081       0.00000000 NULL
P        3.64430520       3.77105314       7.62988081       0.00000000 NULL
P        4.00491677       1.27053431       7.62988081       0.00000000 NULL
P        2.85074830       7.45301163       7.61746565       0.00000000 NULL
P       -3.33342296       6.61699458       7.61746565       0.00000000 NULL
P        0.48267467       1.67935369       7.61746565       0.00000000 NULL
P       -2.15017924       4.38579695       4.63090486       0.00000000 NULL
P        1.82332664       3.81967163       4.63090486       0.00000000 NULL
P        0.32685261       7.54389133       4.63090486       0.00000000 NULL
P       -0.43946459       3.38741771       5.88179871       0.00000000 NULL
P        1.83259110       5.80038360       5.88179871       0.00000000 NULL
P       -1.39312650       6.56155860       5.88179871       0.00000000 NULL
P       -3.74567471       6.78489971       0.15885189       0.00000000 NULL
P        0.54339044       1.23838064       0.15885189       0.00000000 NULL
P        3.20228428       7.72607955       0.15885189       0.00000000 NULL
27
Lattice="9.089436388998346 7.463420555556614e-16 7.076646038376755e-44 -4.544718194499175 7.871682818955261 -1.2639706942656293e-41 8.901063286729107e-44 5.944249083796913e-42 10.487589515234667" Properties=species:S:1:pos:R:3:initial_magmoms:R:1:castep_labels:S:1 n_minim_iter=11 pbc="T T T"
P        7.84461153       1.86294746       1.25325360       0.00000000 NULL
P        3.55377080       5.86215914       1.25325360       0.00000000 NULL
P        2.23577226       0.14657622       1.25325360       0.00000000 NULL
P       -0.03430927       2.90091024       9.36349658       0.00000000 NULL
P        2.04961088       6.39151500       9.36349658       0.00000000 NULL
P       -2.01530159       6.45094041       9.36349658       0.00000000 NULL
P        2.26096090       5.64824268       3.49282529       0.00000000 NULL
P       -1.47728390       7.00561105       3.49282529       0.00000000 NULL
P       -0.78367699       3.08951191       3.49282529       0.00000000 NULL
P        0.83683653       7.69036198       6.72203662       0.00000000 NULL
P       -2.53374890       4.75122353       6.72203662       0.00000000 NULL
P        1.69691238       3.30178014       6.72203662       0.00000000 NULL
P        5.98437183       2.83009998       7.62398137       0.00000000 NULL
P        3.64631200       3.76756804       7.62398137       0.00000000 NULL
P        4.00347076       1.27401480       7.62398137       0.00000000 NULL
P        2.84951012       7.44943054       7.61052947       0.00000000 NULL
P       -3.33143295       6.61471570       7.61052947       0.00000000 NULL
P        0.48192284       1.67921940       7.61052947       0.00000000 NULL
P       -2.14997540       4.38616532       4.62430462       0.00000000 NULL
P        1.82117531       3.81666684       4.62430462       0.00000000 NULL
P        0.32880010       7.54053348       4.62430462       0.00000000 NULL
P       -0.44065676       3.38431627       5.87487449       0.00000000 NULL
P        1.83414272       5.79790474       5.87487449       0.00000000 NULL
P       -1.39348595       6.56114464       5.87487449       0.00000000 NULL
P       -3.74295581       6.78222805       0.15937491       0.00000000 NULL
P        0.54261432       1.23907397       0.15937491       0.00000000 NULL
P        3.20034150       7.72206362       0.15937491       0.00000000 NULL
27
Lattice="9.085333665844601 -4.751714227014934e-16 8.478144958742123e-44 -4.5426668329223014 7.868129756479424 -1.6711149684559944e-41 1.0529566266783415e-43 -4.490465485477337e-43 10.467757032256163" Properties=species:S:1:pos:R:3:initial_magmoms:R:1:castep_labels:S:1 n_minim_iter=12 pbc="T T T"
P        7.83947440       1.86349093       1.24944629       0.00000000 NULL
P        3.55176599       5.85743851       1.24944629       0.00000000 NULL
P        2.23676013       0.14720031       1.24944629       0.00000000 NULL
P       -0.03359611       2.90041334       9.34219457       0.00000000 NULL
P        2.04763326       6.38882800       9.34219457       0.00000000 NULL
P       -2.01403714       6.44701817       9.34219457       0.00000000 NULL
P        2.25352530       5.65344901       3.49490664       0.00000000 NULL
P       -1.48012627       6.99301541       3.49490664       0.00000000 NULL
P       -0.77339902       3.08979510       3.49490664       0.00000000 NULL
P        0.83285818       7.69135160       6.71381779       0.00000000 NULL
P       -2.53466813       4.74373030       6.71381779       0.00000000 NULL
P        1.70180996       3.30117762       6.71381779       0.00000000 NULL
P        5.96813356       2.82123450       7.61385485       0.00000000 NULL
P        3.65800614       3.75793803       7.61385485       0.00000000 NULL
P        4.00186080       1.28895723       7.61385485       0.00000000 NULL
P        2.84775008       7.44325728       7.59618685       0.00000000 NULL
P       -3.32725809       6.61272502       7.59618685       0.00000000 NULL
P        0.47950803       1.68027721       7.59618685       0.00000000 NULL
P       -2.15144660       4.39224869       4.60639631       0.00000000 NULL
P        1.81459119       3.80879800       4.60639631       0.00000000 NULL
P        0.33685542       7.53521282       4.60639631       0.00000000 NULL
P       -0.44579744       3.37572789       5.85783282       0.00000000 NULL
P        1.84209945       5.79419390       5.85783282       0.00000000 NULL
P       -1.39630200       6.56633773       5.85783282       0.00000000 NULL
P       -3.73635176       6.77878462       0.16168246       0.00000000 NULL
P        0.54024303       1.24296190       0.16168246       0.00000000 NULL
P        3.19610874       7.71451299       0.16168246       0.00000000 NULL
27
Lattice="9.0337975230017 -7.130584919851124e-16 2.203007141946719e-43 -4.516898761500851 7.823498147564408 -1.3502867450594815e-41 2.617031693422751e-43 5.1218444354044724e-42 10.375069501769149" Properties=species:S:1:pos:R:3:initial_magmoms:R:1:castep_labels:S:1 n_minim_iter=13 pbc="T T T"
P        7.77756178       1.86472203       1.22471369       0.00000000 NULL
P        3.53011999       5.80320506       1.22471369       0.00000000 NULL
P        2.24301453       0.15557106       1.22471369       0.00000000 NULL
P       -0.02862837       2.89485809       9.22901103       0.00000000 NULL
P        2.02419230       6.35127621       9.22901103       0.00000000 NULL
P       -1.99556392       6.40086200       9.22901103       0.00000000 NULL
P        2.17997422       5.69350236       3.54465063       0.00000000 NULL
P       -1.50380603       6.86466002       3.54465063       0.00000000 NULL
P       -0.67616819       3.08883391       3.54465063       0.00000000 NULL
P        0.79413156       7.68501217       6.68986670       0.00000000 NULL
P       -2.53558278       4.66873016       6.68986670       0.00000000 NULL
P        1.74145123       3.29325396       6.68986670       0.00000000 NULL
P        5.81288830       2.73453038       7.58575156       0.00000000 NULL
P        3.75918061       3.66684375       7.58575156       0.00000000 NULL
P        3.97862739       1.42212403       7.58575156       0.00000000 NULL
P        2.82883679       7.37784605       7.52567527       0.00000000 NULL
P       -3.28692174       6.58441964       7.52567527       0.00000000 NULL
P        0.45808496       1.68473060       7.52567527       0.00000000 NULL
P       -2.16131082       4.44302088       4.48624528       0.00000000 NULL
P        1.74978523       3.73023763       4.48624528       0.00000000 NULL
P        0.41152560       7.47373779       4.48624528       0.00000000 NULL
P       -0.49264687       3.29415237       5.75348646       0.00000000 NULL