44
Lattice="5.102885488661584 -6.452183352061524e-17 0.0 -2.551442744330792 10.086501386517861 0.0 0.0 0.0 22.276166247672737" Properties=species:S:1:pos:R:3:initial_magmoms:R:1:castep_labels:S:1:forces:R:3 n_minim_iter=1 energy=-236.319552901151 stress="-5.907235882588215e-05 -1.744348407674063e-08 0.0 -1.744348407674063e-08 -7.484999017329404e-05 0.0 0.0 0.0 3.22006716056632e-05" free_energy=-236.319552901151 pbc="T T T"
P        3.94880616       1.14287953       1.73084755       0.00000000 NULL       0.00158000       0.00143700      -0.00018000
P       -1.39736342       8.94362184       1.73084755       0.00000000 NULL      -0.00158000      -0.00143700      -0.00018000
P        1.39736342       8.94362184       1.73084755       0.00000000 NULL       0.00158000      -0.00143700      -0.00018000
P        1.15407932       1.14287953       1.73084755       0.00000000 NULL      -0.00158000       0.00143700      -0.00018000
P        3.71438314       1.12459045      18.90496318       0.00000000 NULL      -0.00056900       0.00079400      -0.00540000
P       -1.16294040       8.96191093      18.90496318       0.00000000 NULL       0.00056900      -0.00079400      -0.00540000
P        1.16294040       8.96191093      18.90496318       0.00000000 NULL      -0.00057000      -0.00079400      -0.00540000
P        1.38850234       1.12459045      18.90496318       0.00000000 NULL       0.00057000       0.00079400      -0.00540000
P       -1.41510406       8.95166254       5.45165065       0.00000000 NULL       0.00270900      -0.00112700      -0.00478100
P        3.96654680       1.13483883       5.45165065       0.00000000 NULL      -0.00271000       0.00112700      -0.00478100
P        1.13633868       1.13483883       5.45165065       0.00000000 NULL       0.00271000       0.00112700      -0.00478100
P        1.41510405       8.95166254       5.45165065       0.00000000 NULL      -0.00271000      -0.00112700      -0.00478100
P       -1.42465868       6.16513220       5.99778797       0.00000000 NULL      -0.00018700       0.00046700       0.00039600
P        3.97610142       3.92136918       5.99778797       0.00000000 NULL       0.00018700      -0.00046700       0.00039600
P        1.12678406       3.92136918       5.99778797       0.00000000 NULL      -0.00018800      -0.00046700       0.00039600
P        1.42465868       6.16513220       5.99778797       0.00000000 NULL       0.00018800       0.00046700       0.00039600
P        1.14575020       3.91040821       3.61878522       0.00000000 NULL      -0.00280900      -0.00380100      -0.00223500
P        1.40569254       6.17609316       3.61878522       0.00000000 NULL       0.00280900       0.00380100      -0.00223500
P       -1.40569254       6.17609316       3.61878522       0.00000000 NULL      -0.00280800       0.00380100      -0.00223500
P        3.95713528       3.91040821       3.61878522       0.00000000 NULL       0.00280800      -0.00380100      -0.00223500
P        1.40217840       1.14279192       7.82150114       0.00000000 NULL      -0.00482900       0.00250000       0.00325700
P        1.14926434       8.94370946       7.82150114       0.00000000 NULL       0.00482900      -0.00250000       0.00325700
P       -1.14926435       8.94370946       7.82150114       0.00000000 NULL      -0.00483000      -0.00250100       0.00325700
P        3.70070708       1.14279192       7.82150114       0.00000000 NULL       0.00483000       0.00250100       0.00325700
P        1.14263220       1.12773738      10.16532889       0.00000000 NULL       0.00478100       0.00700800       0.00313900
P        1.40881053       8.95876399      10.16532889       0.00000000 NULL      -0.00478100      -0.00700800       0.00313900
P       -1.40881054       8.95876399      10.16532889       0.00000000 NULL       0.00478000      -0.00700700       0.00314000
P        3.96025328       1.12773738      10.16532889       0.00000000 NULL      -0.00478000       0.00700700       0.00314000
P       -1.39210727       8.95883520      21.71750420       0.00000000 NULL      -0.00029000       0.00267000      -0.00084800
P        3.94355001       1.12766617      21.71750420       0.00000000 NULL       0.00029000      -0.00267000      -0.00084800
P        1.15933547       1.12766617      21.71750420       0.00000000 NULL      -0.00028900      -0.00266900      -0.00084800
P        1.39210726       8.95883520      21.71750420       0.00000000 NULL       0.00028900       0.00266900      -0.00084800
P        1.45530999       6.11374521      12.05766416       0.00000000 NULL      -0.00238500      -0.00000100      -0.00360800
P        1.09613275       3.97275616      12.05766416       0.00000000 NULL       0.00238500       0.00000100      -0.00360800
P        4.00675274       3.97275616      12.05766416       0.00000000 NULL      -0.00238600       0.00000200      -0.00360800
P       -1.45531000       6.11374521      12.05766416       0.00000000 NULL       0.00238600      -0.00000200      -0.00360800
P        1.14965541       8.95903806      16.62403082       0.00000000 NULL      -0.00322400       0.00260200       0.00329000
P        1.40178733       1.12746331      16.62403082       0.00000000 NULL       0.00322400      -0.00260200       0.00329000
P        3.70109816       1.12746331      16.62403082       0.00000000 NULL      -0.00322400      -0.00260100       0.00329000
P       -1.14965542       8.95903806      16.62403082       0.00000000 NULL       0.00322400       0.00260100       0.00329000
P       -1.11786215       6.16134387       1.27611738       0.00000000 NULL      -0.00296700       0.00707400       0.00696900
P        3.66930489       3.92515751       1.27611738       0.00000000 NULL       0.00296700      -0.00707400       0.00696900
P        1.43358059       3.92515751       1.27611738       0.00000000 NULL      -0.00296700      -0.00707400       0.00696900
P        1.11786215       6.16134387       1.27611738       0.00000000 NULL       0.00296700       0.00707400       0.00696900
44
Lattice="5.103221439961662 -1.1528854598102208e-16 0.0 -2.551610719980831 10.087342805506752 0.0 0.0 0.0 22.275366856253118" Properties=species:S:1:pos:R:3:initial_magmoms:R:1:castep_labels:S:1:forces:R:3 n_minim_iter=2 energy=-236.319560093516 stress="2.144433070105543e-05 -1.7441505246893398e-08 -0.0 -1.7441505246893398e-08 3.453418038884892e-06 -0.0 -0.0 -0.0 1.4642143654767005e-05" free_energy=-236.319560093516 pbc="T T T"
P        3.94906767       1.14297627       1.73078526       0.00000000 NULL       0.00246900       0.00015700       0.00001000
P       -1.39745695       8.94436652       1.73078526       0.00000000 NULL      -0.00246800      -0.00015700       0.00001000
P        1.39745695       8.94436652       1.73078526       0.00000000 NULL       0.00246800      -0.00015800       0.00001000
P        1.15415377       1.14297627       1.73078526       0.00000000 NULL      -0.00246800       0.00015800       0.00001000
P        3.71462713       1.12468503      18.90427952       0.00000000 NULL      -0.00147900      -0.00101100      -0.00523400
P       -1.16301641       8.96265776      18.90427952       0.00000000 NULL       0.00147900       0.00101100      -0.00523400
P        1.16301641       8.96265776      18.90427952       0.00000000 NULL      -0.00148000       0.00101200      -0.00523400
P        1.38859431       1.12468503      18.90427952       0.00000000 NULL       0.00148000      -0.00101200      -0.00523400
P       -1.41519459       8.95240820       5.45145037       0.00000000 NULL       0.00161800       0.00018400      -0.00494500
P        3.96680530       1.13493460       5.45145037       0.00000000 NULL      -0.00161800      -0.00018400      -0.00494500
P        1.13641613       1.13493460       5.45145037       0.00000000 NULL       0.00161800      -0.00018300      -0.00494500
P        1.41519458       8.95240820       5.45145037       0.00000000 NULL      -0.00161800       0.00018300      -0.00494500
P       -1.42475266       6.16564695       5.99757312       0.00000000 NULL      -0.00088900      -0.00076500       0.00070400
P        3.97636337       3.92169585       5.99757312       0.00000000 NULL       0.00088900       0.00076500       0.00070400
P        1.12685806       3.92169585       5.99757312       0.00000000 NULL      -0.00088900       0.00076500       0.00070400
P        1.42475265       6.16564695       5.99757312       0.00000000 NULL       0.00088900      -0.00076500       0.00070400
P        1.14582290       3.91073072       3.61865319       0.00000000 NULL      -0.00367400      -0.00222400      -0.00218700
P        1.40578781       6.17661207       3.61865319       0.00000000 NULL       0.00367400       0.00222400      -0.00218700
P       -1.40578782       6.17661207       3.61865319       0.00000000 NULL      -0.00367300       0.00222400      -0.00218700
P        3.95739853       3.91073072       3.61865319       0.00000000 NULL       0.00367300      -0.00222400      -0.00218700
P        1.40226602       1.14288968       7.82122363       0.00000000 NULL      -0.00368100       0.00093500       0.00315300
P        1.14934470       8.94445311       7.82122363       0.00000000 NULL       0.00368100      -0.00093500       0.00315300
P       -1.14934470       8.94445311       7.82122363       0.00000000 NULL      -0.00368200      -0.00093500       0.00315300
P        3.70095542       1.14288968       7.82122363       0.00000000 NULL       0.00368200       0.00093500       0.00315300
P        1.14271208       1.12783827      10.16496716       0.00000000 NULL       0.00365600       0.00531700       0.00345500
P        1.40889864       8.95950452      10.16496716       0.00000000 NULL      -0.00365600      -0.00531700       0.00345500
P       -1.40889864       8.95950452      10.16496716       0.00000000 NULL       0.00365500      -0.00531700       0.00345500
P        3.96050936       1.12783827      10.16496716       0.00000000 NULL      -0.00365500       0.00531700       0.00345500
P       -1.39219920       8.95958514      21.71672403       0.00000000 NULL      -0.00125400       0.00429500      -0.00089700
P        3.94380992       1.12775765      21.71672403       0.00000000 NULL       0.00125400      -0.00429500      -0.00089700
P        1.15941152       1.12775765      21.71672403       0.00000000 NULL      -0.00125300      -0.00429400      -0.00089700
P        1.39219920       8.95958514      21.71672403       0.00000000 NULL       0.00125300       0.00429400      -0.00089700
P        1.45540348       6.11425522      12.05722796       0.00000000 NULL      -0.00144900      -0.00188000      -0.00359500
P        1.09620723       3.97308757      12.05722796       0.00000000 NULL       0.00144900       0.00188000      -0.00359500
P        4.00701420       3.97308757      12.05722796       0.00000000 NULL      -0.00144900       0.00188000      -0.00359500
P       -1.45540349       6.11425522      12.05722796       0.00000000 NULL       0.00144900      -0.00188000      -0.00359500
P        1.14972797       8.95978796      16.62343745       0.00000000 NULL      -0.00409400       0.00420600       0.00293300
P        1.40188275       1.12755484      16.62343745       0.00000000 NULL       0.00409400      -0.00420600       0.00293300
P        3.70133869       1.12755484      16.62343745       0.00000000 NULL      -0.00409300      -0.00420600       0.00293300
P       -1.14972797       8.95978796      16.62343745       0.00000000 NULL       0.00409300       0.00420600       0.00293300
P       -1.11793863       6.16186473       1.27607836       0.00000000 NULL      -0.00216700       0.00576200       0.00660400
P        3.66954935       3.92547807       1.27607836       0.00000000 NULL       0.00216700      -0.00576200       0.00660400
P        1.43367209       3.92547807       1.27607836       0.00000000 NULL      -0.00216700      -0.00576200       0.00660400
P        1.11793863       6.16186473       1.27607836       0.00000000 NULL       0.00216700       0.00576200       0.00660400
