18
Lattice="6.682529999999998 0.0 -7.388601761787888e-16 0.0 6.70579 0.0 -2.7861111212790566 0.0 8.448339701502606" Properties=species:S:1:pos:R:3:initial_magmoms:R:1:castep_labels:S:1 n_minim_iter=1 pbc="T T T"
P        1.25270134       1.74403315       1.09041707       0.00000000 NULL
P        3.20091078       4.96175685       5.31458692       0.00000000 NULL
P       -0.35117110       0.71332841       2.61094671       0.00000000 NULL
P        1.59703834       5.99246159       6.83511656       0.00000000 NULL
P        4.63408043       0.47447890       5.77689950       0.00000000 NULL
P        2.68587099       6.23131110       1.55272965       0.00000000 NULL
P        5.25814891       6.40354864       3.98451326       0.00000000 NULL
P        0.52382835       0.30224136       8.20868311       0.00000000 NULL
P       -1.22825045       3.81678546       5.31160127       0.00000000 NULL
P        3.50607011       2.88900454       1.08743142       0.00000000 NULL
P        2.58534632       5.98618564       3.59136471       0.00000000 NULL
P       -2.14897424       0.71960436       7.81553456       0.00000000 NULL
P        3.28541748       2.08878452       2.95117487       0.00000000 NULL
P       -1.44890308       4.61700548       7.17534472       0.00000000 NULL
P        1.64411911       0.93680624       2.92447220       0.00000000 NULL
P        3.59232855       5.76898376       7.14864205       0.00000000 NULL
P       -0.42883435       2.15983504       6.22677950       0.00000000 NULL
P        4.30548621       4.54595496       2.00260965       0.00000000 NULL
18
Lattice="6.703942313160762 6.064293882471479e-34 0.0016985509542250692 0.0 6.73057721328575 -5.5038669812267856e-18 -2.7928910606684654 -6.934087994000342e-18 8.490108138826908" Properties=species:S:1:pos:R:3:initial_magmoms:R:1:castep_labels:S:1 n_minim_iter=2 pbc="T T T"
P        1.25689408       1.75080048       1.09609829       0.00000000 NULL
P        3.21241971       4.97977673       5.34200164       0.00000000 NULL
P       -0.35186894       0.71611782       2.62379606       0.00000000 NULL
P        1.60365668       6.01445939       6.86969940       0.00000000 NULL
P        4.65045826       0.47661385       5.80700408       0.00000000 NULL
P        2.69493263       6.25396336       1.56110073       0.00000000 NULL
P        5.27605330       6.42695476       4.00583893       0.00000000 NULL
P        0.52763661       0.30362245       8.25004372       0.00000000 NULL
P       -1.23085308       3.83092295       5.33774383       0.00000000 NULL
P        3.51756360       2.89965427       1.09353903       0.00000000 NULL
P        2.59464603       6.00806066       3.61027443       0.00000000 NULL
P       -2.15377065       0.72251656       7.85447922       0.00000000 NULL
P        3.29702243       2.09674104       2.96710439       0.00000000 NULL
P       -1.45139425       4.63383617       7.21130919       0.00000000 NULL
P        1.64993755       0.94026875       2.93984637       0.00000000 NULL
P        3.60546317       5.79030846       7.18574971       0.00000000 NULL
P       -0.42861560       2.16761485       6.25799440       0.00000000 NULL
P        4.31980109       4.56296236       2.01378961       0.00000000 NULL
18
Lattice="6.9708497423101505 6.344344451417289e-34 0.024858862368034192 -1.8924456514768937e-20 7.0413969087762 -5.8501319313700934e-18 -2.8748910783696453 -7.254305866925837e-18 9.014642403277177" Properties=species:S:1:pos:R:3:initial_magmoms:R:1:castep_labels:S:1 n_minim_iter=3 pbc="T T T"
P        1.30944317       1.83582921       1.16782181       0.00000000 NULL
P        3.35742250       5.20556770       5.68757244       0.00000000 NULL
P       -0.36001325       0.75122100       2.78513940       0.00000000 NULL
P        1.68796608       6.29017591       7.30489003       0.00000000 NULL
P        4.85644822       0.50371059       6.18678081       0.00000000 NULL
P        2.80846889       6.53768632       1.66703018       0.00000000 NULL
P        5.50041721       6.72023493       4.27546419       0.00000000 NULL
P        0.57754680       0.32116198       8.77035596       0.00000000 NULL
P       -1.26173846       4.00821604       5.66614063       0.00000000 NULL
P        3.66113195       3.03318087       1.17124886       0.00000000 NULL
P        2.71176997       6.28218379       3.84890774       0.00000000 NULL
P       -2.21110044       0.75921312       8.34379952       0.00000000 NULL
P        3.44278887       2.19675214       3.16844709       0.00000000 NULL
P       -1.48008154       4.84464477       7.66333886       0.00000000 NULL
P        1.72323686       0.98369527       3.13375076       0.00000000 NULL
P        3.77121619       6.05770164       7.65350140       0.00000000 NULL
P       -0.42413768       2.26503511       6.65038918       0.00000000 NULL
P        4.49873273       4.77636180       2.15549741       0.00000000 NULL
18
Lattice="7.030972043377713 -9.964912868486529e-23 0.048477729149857346 -3.8367881999491105e-20 7.139577793217135 -5.937718328248975e-18 -2.8700975647907803 -7.355472316539896e-18 9.139854062873349" Properties=species:S:1:pos:R:3:initial_magmoms:R:1:castep_labels:S:1 n_minim_iter=4 pbc="T T T"
P        1.32418685       1.86374513       1.18930892       0.00000000 NULL
P        3.40462409       5.27583266       5.78347482       0.00000000 NULL
P       -0.35647974       0.76331157       2.82408767       0.00000000 NULL
P        1.72395750       6.37626622       7.41825357       0.00000000 NULL
P        4.92018895       0.51508995       6.29448803       0.00000000 NULL
P        2.83975171       6.62448784       1.70032213       0.00000000 NULL
P        5.56201261       6.81121303       4.35786093       0.00000000 NULL
P        0.61147780       0.32836476       8.90354909       0.00000000 NULL
P       -1.25450482       4.06432328       5.74663709       0.00000000 NULL
P        3.69602999       3.07525452       1.20094893       0.00000000 NULL
P        2.74926153       6.36762016       3.91688778       0.00000000 NULL
P       -2.20127327       0.77195763       8.46257595       0.00000000 NULL
P        3.48554277       2.23034531       3.22812122       0.00000000 NULL
P       -1.46499203       4.90923248       7.77380939       0.00000000 NULL
P        1.74703305       0.99759454       3.18765067       0.00000000 NULL
P        3.82747029       6.14198325       7.78181657       0.00000000 NULL
P       -0.40738829       2.29466067       6.74767650       0.00000000 NULL
P        4.54314651       4.84491712       2.20198833       0.00000000 NULL
18
Lattice="7.0321514777391965 7.458246945776168e-20 0.07982998110785114 -6.43486724958023e-20 7.189300724658783 5.076666471443897e-18 -2.83095244464065 6.727480909396952e-18 9.167539413868065" Properties=species:S:1:pos:R:3:initial_magmoms:R:1:castep_labels:S:1 n_minim_iter=5 pbc="T T T"
P        1.32929212       1.87917690       1.20041253       0.00000000 NULL
P        3.42989164       5.31012383       5.82409723       0.00000000 NULL
P       -0.34719498       0.77053503       2.83338247       0.00000000 NULL
P        1.75340454       6.41876570       7.45706717       0.00000000 NULL
P        4.95034282       0.52405800       6.34297975       0.00000000 NULL
P        2.84974330       6.66524272       1.71929505       0.00000000 NULL
P        5.58183937       6.85551743       4.40199996       0.00000000 NULL
P        0.65028741       0.33378329       8.94585467       0.00000000 NULL
P       -1.23045809       4.09276635       5.76746810       0.00000000 NULL
P        3.70109387       3.09653438       1.22361338       0.00000000 NULL
P        2.76840784       6.40974524       3.94774090       0.00000000 NULL
P       -2.16314412       0.77955549       8.49159562       0.00000000 NULL
P        3.50286954       2.24950480       3.25817321       0.00000000 NULL
P       -1.42868242       4.93979592       7.80202793       0.00000000 NULL
P        1.75995164       1.00476595       3.21059368       0.00000000 NULL
P        3.86055116       6.18453477       7.83427838       0.00000000 NULL
P       -0.38054503       2.30840799       6.77437485       0.00000000 NULL
P        4.55100693       4.88089273       2.23052014       0.00000000 NULL
18
Lattice="7.004060350051556 7.431544996702742e-20 0.11486071550310203 -4.000773181718994e-20 7.218243726429192 5.0758627263875844e-18 -2.774953212699453 6.755144544684648e-18 9.15204921478936" Properties=species:S:1:pos:R:3:initial_magmoms:R:1:castep_labels:S:1 n_minim_iter=6 pbc="T T T"
P        1.32953408       1.88956137       1.20699506       0.00000000 NULL
P        3.44408765       5.32868235       5.84045002       0.00000000 NULL
P       -0.33537487       0.77589792       2.82934381       0.00000000 NULL
P        1.77917870       6.44234580       7.46279878       0.00000000 NULL
P        4.96378950       0.53262457       6.36547202       0.00000000 NULL
P        2.84923593       6.68561916       1.73201706       0.00000000 NULL
P        5.58078109       6.87940403       4.42956058       0.00000000 NULL
P        0.69127431       0.33883969       8.94815483       0.00000000 NULL
P       -1.19815981       4.10924946       5.76201832       0.00000000 NULL
P        3.69134697       3.10899427       1.24342407       0.00000000 NULL
P        2.77851194       6.43318593       3.96239927       0.00000000 NULL
P       -2.11099484       0.78505779       8.48099352       0.00000000 NULL
P        3.50766123       2.26280165       3.27537527       0.00000000 NULL
P       -1.38184555       4.95544208       7.79396952       0.00000000 NULL
P        1.76751218       1.00898719       3.21997856       0.00000000 NULL
P        3.88206575       6.20925654       7.85343352       0.00000000 NULL
P       -0.34906086       2.31514423       6.76966151       0.00000000 NULL
P        4.54044592       4.90309949       2.25106726       0.00000000 NULL
18
Lattice="6.851755498797034 7.39252632429983e-20 0.2656964548502589 6.609466074484183e-20 7.3456425551233835 5.064065287013555e-18 -2.5207605932817962 6.876005128103456e-18 9.071073420178688" Properties=species:S:1:pos:R:3:initial_magmoms:R:1:castep_labels:S:1 n_minim_iter=7 pbc="T T T"
P        1.32443257       1.93789498       1.23367142       0.00000000 NULL
P        3.48993003       5.40774757       5.90205635       0.00000000 NULL
P       -0.28546357       0.80158848       2.80518547       0.00000000 NULL
P        1.88003388       6.54405408       7.47357041       0.00000000 NULL
P        5.00121252       0.57590474       6.45222422       0.00000000 NULL
P        2.83571507       6.76973782       1.78383928       0.00000000 NULL
P        5.55110258       6.98091186       4.54244451       0.00000000 NULL
P        0.86484454       0.36473069       8.94513300       0.00000000 NULL
P       -1.05303340       4.18112762       5.73071762       0.00000000 NULL
P        3.63322465       3.16451493       1.32802914       0.00000000 NULL
P        2.81156660       6.53527061       4.02057726       0.00000000 NULL
P       -1.87469145       0.81037194       8.42326574       0.00000000 NULL
P        3.51433412       2.32426711       3.34548461       0.00000000 NULL
P       -1.17192392       5.02137544       7.74817310       0.00000000 NULL
P        1.79344213       1.02707638       3.25587654       0.00000000 NULL
P        3.95893958       6.31856618       7.92426148       0.00000000 NULL
P       -0.21390946       2.34283344       6.73667642       0.00000000 NULL
P        4.47234859       5.00280912       2.33398794       0.00000000 NULL
18
Lattice="6.6164549378440745 7.800464345526837e-20 0.329143995847812 1.1782838919271245e-19 7.442761895079201 5.0598870578663075e-18 -2.342444912052296 6.96510237632753e-18 9.039942862976199" Properties=species:S:1:pos:R:3:initial_magmoms:R:1:castep_labels:S:1 n_minim_iter=8 pbc="T T T"
P        1.28832989       1.98427568       1.24583549       0.00000000 NULL
P        3.42533491       5.45848621       5.93037892       0.00000000 NULL
P       -0.27001537       0.82770705       2.78492125       0.00000000 NULL
P        1.86698965       6.61505484       7.46946468       0.00000000 NULL
P        4.90493994       0.62550856       6.48756337       0.00000000 NULL
P        2.76793493       6.81725334       1.80301994       0.00000000 NULL
P        5.40123281       7.04600792       4.59609290       0.00000000 NULL
P        0.92178288       0.39675398       8.95149233       0.00000000 NULL
P       -0.95864684       4.23227823       5.72389904       0.00000000 NULL
P        3.52080309       3.21048367       1.36849961       0.00000000 NULL
P        2.76760951       6.61074568       4.05172685       0.00000000 NULL
P       -1.71184041       0.83201622       8.40712628       0.00000000 NULL
P        3.44065969       2.37740056       3.38060433       0.00000000 NULL
P       -1.03879024       5.06536133       7.73600376       0.00000000 NULL
P        1.76740437       1.03842153       3.27545147       0.00000000 NULL
P        3.90440938       6.40434037       7.95999490       0.00000000 NULL
P       -0.15689352       2.35773966       6.71577771       0.00000000 NULL
P        4.32255640       5.08502223       2.36037828       0.00000000 NULL
18
Lattice="6.587995428879521 8.197692972799703e-20 0.3454128253844406 1.3262545395788142e-19 7.570267751458547 5.102432740134133e-18 -2.310011693959212 7.083738211659382e-18 9.110291835963498" Properties=species:S:1:pos:R:3:initial_magmoms:R:1:castep_labels:S:1 n_minim_iter=9 pbc="T T T"
P        1.28332733       2.03285145       1.25940537       0.00000000 NULL
P        3.42231919       5.53741630       5.98725770       0.00000000 NULL
P       -0.28020778       0.85029306       2.79732182       0.00000000 NULL
P        1.85878409       6.71997469       7.52517415       0.00000000 NULL
P        4.90470998       0.66031991       6.54745372       0.00000000 NULL
P        2.76571812       6.90994784       1.81960139       0.00000000 NULL
P        5.38622013       7.15133344       4.64899326       0.00000000 NULL
P        0.93721657       0.41893431       9.03143276       0.00000000 NULL
P       -0.93865175       4.30208945       5.77252816       0.00000000 NULL
P        3.51035181       3.26817830       1.39008866       0.00000000 NULL
P        2.77458885       6.71803962       4.09671740       0.00000000 NULL
P       -1.67441472       0.85222813       8.47915691       0.00000000 NULL
P        3.44303098       2.43035466       3.42021525       0.00000000 NULL
P       -1.00597258       5.13991309       7.80265475       0.00000000 NULL
P        1.77290720       1.05402311       3.31062717       0.00000000 NULL
P        3.91189906       6.51624464       8.03847950       0.00000000 NULL
P       -0.14830615       2.38778281       6.76383729       0.00000000 NULL
P        4.30069741       5.18248494       2.38139778       0.00000000 NULL
18
Lattice="6.51050483798705 5.21408550113657e-19 0.3428203876612932 1.3271725476271991e-19 7.526899862952331 1.4681955830193117e-17 -2.280981431088736 1.8631081798406342e-17 9.021215002860883" Properties=species:S:1:pos:R:3:initial_magmoms:R:1:castep_labels:S:1 n_minim_iter=10 pbc="T T T"
P        1.26797222       2.02481298       1.24769377       0.00000000 NULL
P        3.38273392       5.50208688       5.92971146       0.00000000 NULL
P       -0.28059670       0.84710545       2.76809136       0.00000000 NULL
P        1.83416500       6.67979441       7.45010905       0.00000000 NULL
P        4.84967197       0.66225159       6.48317053       0.00000000 NULL
P        2.73491026       6.86464827       1.80115284       0.00000000 NULL
P        5.32300651       7.10730595       4.60519224       0.00000000 NULL
P        0.92726338       0.41959392       8.94438955       0.00000000 NULL
P       -0.92598916       4.27671034       5.71762730       0.00000000 NULL
P        3.46975397       3.25018952       1.37843000       0.00000000 NULL
P        2.74540466       6.67845079       4.05835347       0.00000000 NULL
P       -1.65033848       0.84844907       8.39755078       0.00000000 NULL
P        3.40514814       2.41903657       3.38781783       0.00000000 NULL
P       -0.99059499       5.10786329       7.72701514       0.00000000 NULL
P        1.75410947       1.04750085       3.27910695       0.00000000 NULL
P        3.86887118       6.47939901       7.96112465       0.00000000 NULL
P       -0.14757138       2.37149711       6.69575407       0.00000000 NULL
P        4.24817175       5.15540275       2.35655676       0.00000000 NULL
18
Lattice="6.492477892057219 5.235321936077923e-19 0.34535198796057276 1.4024495055048006e-19 7.547214509988232 1.4691604503760504e-17 -2.2702649967660244 1.8681125980901084e-17 9.026290107949485" Properties=species:S:1:pos:R:3:initial_magmoms:R:1:castep_labels:S:1 n_minim_iter=11 pbc="T T T"
P        1.26436934       2.03398567       1.24923335       0.00000000 NULL
P        3.37547579       5.51322884       5.93505439       0.00000000 NULL
P       -0.28286420       0.85114733       2.76761158       0.00000000 NULL
P        1.82824224       6.69606718       7.45343263       0.00000000 NULL
P        4.84024594       0.66937988       6.48801008       0.00000000 NULL
P        2.72913949       6.87783463       1.80218903       0.00000000 NULL
P        5.30974331       7.12328733       4.61082683       0.00000000 NULL
P        0.92837187       0.42392718       8.95129589       0.00000000 NULL
P       -0.92015941       4.28752369       5.72159404       0.00000000 NULL
P        3.46121204       3.25969082       1.38112498       0.00000000 NULL
P        2.74209937       6.69530170       4.06335851       0.00000000 NULL
P       -1.63927208       0.85191281       8.40382757       0.00000000 NULL
P        3.39943535       2.42803425       3.39242654       0.00000000 NULL
P       -0.98193609       5.11918026       7.73289560       0.00000000 NULL
P        1.75206982       1.04980030       3.28276834       0.00000000 NULL
P        3.86317627       6.49741421       7.96858939       0.00000000 NULL
P       -0.14564556       2.37549363       6.69829855       0.00000000 NULL
P        4.23572589       5.17172088       2.35782949       0.00000000 NULL
18
Lattice="6.451556813346486 5.263946799267324e-19 0.34883803108172384 1.523109166332089e-19 7.57050928581217 1.468099413344807e-17 -2.248796788019895 1.8738281226196484e-17 9.01843211100915" Properties=species:S:1:pos:R:3:initial_magmoms:R:1:castep_labels:S:1 n_minim_iter=12 pbc="T T T"
P        1.25615490       2.04686617       1.24960104       0.00000000 NULL
P        3.35753491       5.52364311       5.93323611       0.00000000 NULL
P       -0.28660155       0.85677077       2.76169996       0.00000000 NULL
P        1.81477846       6.71373852       7.44533503       0.00000000 NULL
P        4.81629088       0.68072966       6.48410258       0.00000000 NULL
P        2.71491087       6.88977962       1.80046751       0.00000000 NULL
P        5.27855815       7.13983218       4.61181780       0.00000000 NULL
P        0.92838135       0.43067711       8.94661484       0.00000000 NULL
P       -0.90896480       4.29945574       5.71799973       0.00000000 NULL
P        3.44121200       3.27105354       1.38320269       0.00000000 NULL
P        2.73221456       6.71398337       4.06442363       0.00000000 NULL
P       -1.61796225       0.85652592       8.39922067       0.00000000 NULL
P        3.38429676       2.43975884       3.39394262       0.00000000 NULL
P       -0.96588004       5.13075045       7.72873966       0.00000000 NULL
P        1.74579057       1.05211310       3.28289443       0.00000000 NULL
P        3.84717058       6.51839619       7.96652950       0.00000000 NULL
P       -0.14243197       2.37859552       6.69020269       0.00000000 NULL
P        4.20774484       5.19191377       2.35540565       0.00000000 NULL
18
Lattice="6.011118753089498 5.60078328569529e-19 0.391542252287474 2.946113237214092e-19 7.839219459731268 1.457368129034312e-17 -2.011178828152769 1.939730441912376e-17 8.936302994224913" Properties=species:S:1:pos:R:3:initial_magmoms:R:1:castep_labels:S:1 n_minim_iter=13 pbc="T T T"
P        1.16736124       2.20382585       1.25636813       0.00000000 NULL
P        3.16733121       5.63539361       5.92029075       0.00000000 NULL
P       -0.32961057       0.92314404       2.69481684       0.00000000 NULL
P        1.67035939       6.91607542       7.35873946       0.00000000 NULL
P        4.56076814       0.81701304       6.44552542       0.00000000 NULL
P        2.56079817       7.02220642       1.78160280       0.00000000 NULL
P        4.94532238       7.32860129       4.62924519       0.00000000 NULL
P        0.93417359       0.51061817       8.90162556       0.00000000 NULL
P       -0.78336352       4.43533978       5.68136410       0.00000000 NULL
P        3.22778527       3.40387968       1.40898373       0.00000000 NULL
P        2.63205208       6.92885908       4.08380351       0.00000000 NULL
P       -1.37909671       0.91036038       8.35618388       0.00000000 NULL
P        3.22594504       2.57641093       3.41825638       0.00000000 NULL
P       -0.78520375       5.26280853       7.69063675       0.00000000 NULL
P        1.68153230       1.07773749       3.28885284       0.00000000 NULL
P        3.68150226       6.76148197       7.95277546       0.00000000 NULL
P       -0.10191874       2.41110712       6.60242604       0.00000000 NULL
P        3.90923005       5.42811234       2.33004566       0.00000000 NULL
18
Lattice="6.405344063993277 5.609145865297172e-19 0.5862396689025078 6.465804432770075e-19 7.961535008430532 1.4719133461815048e-17 -1.9293962710119748 1.96961164043831e-17 8.960828432877303" Properties=species:S:1:pos:R:3:initial_magmoms:R:1:castep_labels:S:1 n_minim_iter=14 pbc="T T T"
P        1.25451748       2.30799702       1.31332563       0.00000000 NULL
P        3.49249138       5.65353799       6.08685968       0.00000000 NULL
P       -0.36319023       0.94834431       2.68771972       0.00000000 NULL
P        1.87478366       7.01319070       7.46125377       0.00000000 NULL
P        4.98266932       0.85005371       6.61963341       0.00000000 NULL
P        2.74469543       7.11148130       1.84609936       0.00000000 NULL
P        5.36512915       7.43363652       4.83183831       0.00000000 NULL
P        1.19775898       0.52789849       9.01913270       0.00000000 NULL
P       -0.68718524       4.48942948       5.71243013       0.00000000 NULL
P        3.48018493       3.47210553       1.52513574       0.00000000 NULL
P        2.93860943       7.02960398       4.23175122       0.00000000 NULL
P       -1.22876074       0.93193102       8.41904560       0.00000000 NULL
P        3.55022275       2.62687305       3.58157581       0.00000000 NULL
P       -0.61714741       5.33466196       7.76887019       0.00000000 NULL
P        1.88786577       1.08849727       3.38924016       0.00000000 NULL
P        4.12583966       6.87303774       8.16277421       0.00000000 NULL
P        0.05602223       2.44386493       6.64953303       0.00000000 NULL
P        4.22339240       5.51767008       2.46223865       0.00000000 NULL
18
Lattice="6.07984281439565 5.335444867280989e-19 0.49666848968204474 4.865185262750479e-19 7.644332686654476 1.416143604549946e-17 -1.906926502529748 1.8911271678469225e-17 8.64579904815448" Properties=species:S:1:pos:R:3:initial_magmoms:R:1:castep_labels:S:1 n_minim_iter=15 pbc="T T T"
P        1.18059713       2.21819494       1.25256794       0.00000000 NULL
P        3.26705529       5.42613774       5.82380170       0.00000000 NULL
P       -0.36792809       0.91122907       2.59181695       0.00000000 NULL
P        1.71853007       6.73310361       7.16305072       0.00000000 NULL
P        4.67828774       0.81743485       6.31904384       0.00000000 NULL
P        2.59182958       6.82689783       1.74781007       0.00000000 NULL
P        5.05531116       7.13801308       4.59376971       0.00000000 NULL
P        1.06192650       0.50631961       8.66833499       0.00000000 NULL
P       -0.69925834       4.30978730       5.50825006       0.00000000 NULL
P        3.29412632       3.33454539       1.43368478       0.00000000 NULL
P        2.76019413       6.74887793       4.04381641       0.00000000 NULL
P       -1.23319053       0.89545476       8.11838169       0.00000000 NULL
P        3.34347519       2.52043377       3.40905050       0.00000000 NULL
P       -0.64990947       5.12389892       7.48361578       0.00000000 NULL
P        1.76428659       1.04610496       3.23985248       0.00000000 NULL
P        3.85074474       6.59822773       7.81108625       0.00000000 NULL
P       -0.00339414       2.34447032       6.39804459       0.00000000 NULL
P        3.98999052       5.29986237       2.32347931       0.00000000 NULL
18
Lattice="6.067841661046287 5.4735312970319e-19 0.47806322862616835 4.590986788371732e-19 7.734641203002792 1.4364818597471034e-17 -1.9254444917973386 1.913589129980218e-17 8.776884160668343" Properties=species:S:1:pos:R:3:initial_magmoms:R:1:castep_labels:S:1 n_minim_iter=16 pbc="T T T"
P        1.17421251       2.24877141       1.26625881       0.00000000 NULL
P        3.24541110       5.48586979       5.89373251       0.00000000 NULL
P       -0.37585279       0.92388962       2.62937964       0.00000000 NULL
P        1.69534579       6.81075159       7.25685333       0.00000000 NULL
P        4.65224623       0.82814498       6.38794857       0.00000000 NULL
P        2.58104765       6.90649623       1.76047488       0.00000000 NULL
P        5.03468922       7.22046923       4.63749665       0.00000000 NULL
P        1.03804614       0.51417197       8.78690712       0.00000000 NULL
P       -0.71123985       4.35973428       5.58839703       0.00000000 NULL
P        3.28540322       3.37490693       1.43898657       0.00000000 NULL
P        2.74723857       6.82782310       4.09128930       0.00000000 NULL
P       -1.24940451       0.90681810       8.24069977       0.00000000 NULL
P        3.33116467       2.54935766       3.44585433       0.00000000 NULL
P       -0.66547840       5.18528354       7.59526479       0.00000000 NULL
P        1.75185342       1.05826780       3.27796610       0.00000000 NULL
P        3.82305200       6.67637340       7.90543980       0.00000000 NULL
P       -0.01861018       2.37158130       6.48842467       0.00000000 NULL
P        3.97803290       5.36305990       2.33901421       0.00000000 NULL
18
Lattice="6.019495894805555 5.518448676335125e-19 0.45401663170791445 4.189141128079021e-19 7.747376490207972 1.4403833139327462e-17 -1.9356886871006835 1.9168125239583285e-17 8.808577673366113" Properties=species:S:1:pos:R:3:initial_magmoms:R:1:castep_labels:S:1 n_minim_iter=17 pbc="T T T"
P        1.16044986       2.25654443       1.26564716       0.00000000 NULL
P        3.20235346       5.49083206       5.89694431       0.00000000 NULL
P       -0.38262729       0.92684736       2.63764945       0.00000000 NULL
P        1.65927631       6.82052913       7.26894661       0.00000000 NULL
P        4.59638317       0.83032947       6.38448058       0.00000000 NULL
P        2.55447956       6.91704702       1.75318343       0.00000000 NULL
P        4.98220361       7.23135821       4.62865318       0.00000000 NULL
P        1.00461131       0.51601828       8.80593371       0.00000000 NULL
P       -0.72095480       4.36628471       5.60616907       0.00000000 NULL
P        3.25663749       3.38109178       1.42888854       0.00000000 NULL
P        2.71660331       6.83820363       4.09239022       0.00000000 NULL
P       -1.26098898       0.90917286       8.26967074       0.00000000 NULL
P        3.29750917       2.55284113       3.44266900       0.00000000 NULL
P       -0.68008312       5.19453536       7.61994952       0.00000000 NULL
P        1.72808303       1.05994950       3.27872151       0.00000000 NULL
P        3.76998663       6.68742699       7.91001866       0.00000000 NULL
P       -0.03644763       2.37480759       6.50511784       0.00000000 NULL
P        3.94114467       5.37256890       2.32783732       0.00000000 NULL
18
Lattice="5.920650500968362 5.629291788250271e-19 0.40162989868252846 3.3093790794097645e-19 7.792146456525909 1.4492806884965232e-17 -1.9607071554642193 1.928034855708628e-17 8.880240215312298" Properties=species:S:1:pos:R:3:initial_magmoms:R:1:castep_labels:S:1 n_minim_iter=18 pbc="T T T"
P        1.13059464       2.28192918       1.26517807       0.00000000 NULL
P        3.11056631       5.51021728       5.90611313       0.00000000 NULL
P       -0.40044470       0.93612617       2.65624611       0.00000000 NULL
P        1.57952698       6.85602028       7.29718117       0.00000000 NULL
P        4.47783599       0.83702604       6.37738553       0.00000000 NULL
P        2.49786432       6.95512041       1.73645047       0.00000000 NULL
P        4.87308390       7.27084924       4.61047324       0.00000000 NULL
P        0.93240507       0.52129722       8.84977840       0.00000000 NULL
P       -0.74259874       4.39001092       5.64659424       0.00000000 NULL
P        3.19808009       3.40213554       1.40728908       0.00000000 NULL
P        2.65399850       6.87498642       4.09699478       0.00000000 NULL
P       -1.28668033       0.91716004       8.33629994       0.00000000 NULL
P        3.22928623       2.56607828       3.43754717       0.00000000 NULL
P       -0.71139259       5.22606818       7.67685233       0.00000000 NULL
P        1.67790067       1.06557030       3.28102314       0.00000000 NULL
P        3.65787235       6.72657616       7.92195820       0.00000000 NULL
P       -0.07496573       2.38689361       6.54278257       0.00000000 NULL
P        3.86571310       5.40525284       2.30347741       0.00000000 NULL
18