3
Lattice="3.263995173333203 0.2894077709114118 0.02373405532982159 -0.3429129858746466 3.792360350048788 0.4799085170121394 -0.2790066536034495 0.26414301387287104 5.61686367980756" Properties=species:S:1:pos:R:3:initial_magmoms:R:1:castep_labels:S:1:forces:R:3 n_minim_iter=1 energy=-15.471572606978 stress="-0.003113497116279405 -0.00627810342116929 -0.002283259931632206 -0.00627810342116929 0.005983507760976301 -0.0017539352731860327 -0.002283259931632206 -0.0017539352731860327 0.00016768407948606744" free_energy=-15.471572606978 pbc="T T T"
P        1.77128573       1.10075069       2.05769116       0.00000000 NULL       0.13267000       0.17589900      -0.24479800
P        1.71152174       0.27812615       0.03959837       0.00000000 NULL      -0.06077400      -0.06281100      -0.41823200
P        0.21046035       2.11605795       0.76537323       0.00000000 NULL      -0.07189600      -0.11308700       0.66303000
3
Lattice="3.3150400522779684 0.3666707625281098 0.057010499512615366 -0.24524696762757311 3.696043509914144 0.5038501864631992 -0.22223745671977999 0.2913775154678942 5.612633821596263" Properties=species:S:1:pos:R:3:initial_magmoms:R:1:castep_labels:S:1:forces:R:3 n_minim_iter=2 energy=-15.516982527877 stress="-0.011030733624685108 0.008066730041695022 -0.00740557509071955 0.008066730041695022 -0.0033691572435812552 0.00454551297429663 -0.00740557509071955 0.00454551297429663 -0.003666008257189856" free_energy=-15.516982527877 pbc="T T T"
P        1.85090186       1.14512744       2.06701326       0.00000000 NULL       0.42421900      -0.18564800      -0.01677000
P        1.73782732       0.31190864       0.03316997       0.00000000 NULL      -0.22754800      -0.00045100      -0.34783800
P        0.27094412       2.06991822       0.82135732       0.00000000 NULL      -0.19667100       0.18609900       0.36460800
3
Lattice="3.41456705554962 0.3850575935778464 0.12289363183752837 -0.21997987212722436 3.6441870495954527 0.49349579626358786 -0.11478968653762796 0.2768056254150396 5.640140493335928" Properties=species:S:1:pos:R:3:initial_magmoms:R:1:castep_labels:S:1:forces:R:3 n_minim_iter=3 energy=-15.560799892563 stress="0.0031820612795118225 0.002572224355246074 -0.0021466772441517123 0.002572224355246074 -0.00047852687191333857 0.006305588468441389 -0.0021466772441517123 0.006305588468441389 0.0034096463810944166" free_energy=-15.560799892563 pbc="T T T"
P        1.96970288       1.14377511       2.10239754       0.00000000 NULL       0.08903000      -0.19100100      -0.33000200
P        1.78103106       0.31653911       0.03938795       0.00000000 NULL      -0.25088600       0.15632000      -0.04688000
P        0.30057878       2.04205179       0.86603300       0.00000000 NULL       0.16185600       0.03468100       0.37688200
3
Lattice="3.4292481306841633 0.38970183028001426 0.16697660143869028 -0.20506937185681776 3.598190469209553 0.42515717014482085 -0.031326517630356154 0.185399599283544 5.588269445980409" Properties=species:S:1:pos:R:3:initial_magmoms:R:1:castep_labels:S:1:forces:R:3 n_minim_iter=4 energy=-15.59530109714 stress="-0.0009502775243838429 0.0004094727049513941 -0.001485441427004881 0.0004094727049513941 -0.007781138505217291 0.0032955971678973917 -0.001485441427004881 0.0032955971678973917 -0.00773933786525581" free_energy=-15.59530109714 pbc="T T T"
P        2.02019739       1.10292332       2.07502074       0.00000000 NULL       0.00447800      -0.06779200       0.05147000
P        1.77304472       0.32136870       0.04172243       0.00000000 NULL      -0.24066100       0.12090800      -0.31744000
P        0.32474228       2.00740718       0.86927888       0.00000000 NULL       0.23618300      -0.05311600       0.26597000
3
Lattice="3.441673695184136 0.4354629817070832 0.2332059837404733 -0.14445328255572928 3.6188933618786403 0.30818316711548654 0.10020996980754528 0.009820744054173615 5.676813533382958" Properties=species:S:1:pos:R:3:initial_magmoms:R:1:castep_labels:S:1:forces:R:3 n_minim_iter=5 energy=-15.657066836562 stress="-0.005813168414930055 0.0056080408590157 -0.0013393871387896864 0.0056080408590157 0.00045618339701283307 0.0008961650983318812 -0.0013393871387896864 0.0008961650983318812 -0.0019439217146334376" free_energy=-15.657066836562 pbc="T T T"
P        2.09491534       1.07393035       2.08852854       0.00000000 NULL       0.04074100       0.05436900      -0.16538500
P        1.74203828       0.35904094       0.02201335       0.00000000 NULL      -0.15607100      -0.01889000      -0.06242400
P        0.40221962       1.99589055       0.90400082       0.00000000 NULL       0.11533000      -0.03547900       0.22780900
3
Lattice="3.469331957839402 0.41840327651483744 0.24024942675981092 -0.16455065886634201 3.6027612269229596 0.28567482657945625 0.11163151268250937 -0.02894658479829836 5.730690690768335" Properties=species:S:1:pos:R:3:initial_magmoms:R:1:castep_labels:S:1:forces:R:3 n_minim_iter=6 energy=-15.677625863305 stress="-0.005535361416563599 0.0038852295780398447 -0.003133527553249216 0.0038852295780398447 -0.0007668472227023069 0.002652910676400642 -0.003133527553249216 0.002652910676400642 -0.0013996108125168213" free_energy=-15.677625863305 pbc="T T T"
P        2.10607367       1.05442560       2.08465460       0.00000000 NULL       0.15954200      -0.08407700      -0.08680100
P        1.73699409       0.35283821       0.00856402       0.00000000 NULL      -0.12740300      -0.01417300       0.03735900
P        0.41973952       1.97048009       0.93574889       0.00000000 NULL      -0.03213900       0.09825000       0.04944200
3
Lattice="3.512881783821367 0.4335281222290607 0.25865899449630747 -0.14704318283266551 3.584922861931343 0.255263540538393 0.14494395731897047 -0.07927061783831997 5.776235845365177" Properties=species:S:1:pos:R:3:initial_magmoms:R:1:castep_labels:S:1:forces:R:3 n_minim_iter=7 energy=-15.68317176196 stress="-0.0029384202487216 0.006770547261493131 -0.0021780167600445057 0.006770547261493131 -0.0021637831454256397 0.0004118167921939121 -0.0021780167600445057 0.0004118167921939121 -0.0017464918860706257" free_energy=-15.68317176196 pbc="T T T"
P        2.14634930       1.04638952       2.09042527       0.00000000 NULL       0.17933100      -0.03731900      -0.07311900
P        1.74823254       0.35946297       0.01996806       0.00000000 NULL      -0.04614400      -0.12503700      -0.06056800
P        0.45123355       1.95468091       0.93731041       0.00000000 NULL      -0.13318700       0.16235600       0.13368700
3
Lattice="3.5063262266180257 0.43554221353326117 0.2873950122881368 -0.14033435456047466 3.5918623405688153 0.24561003807914034 0.19631302233162587 -0.09977706584152453 5.861922508687317" Properties=species:S:1:pos:R:3:initial_magmoms:R:1:castep_labels:S:1:forces:R:3 n_minim_iter=8 energy=-15.68827373063 stress="-0.005308595124346554 0.005848726761588435 0.0006161171724160888 0.005848726761588435 -0.0019560539276728094 0.0024807995062826127 0.0006161171724160888 0.0024807995062826127 0.00037101995771562495" free_energy=-15.68827373063 pbc="T T T"
P        2.16612941       1.05063240       2.11002642       0.00000000 NULL       0.07585000      -0.11732800      -0.06205500
P        1.73372497       0.34795534       0.03870164       0.00000000 NULL       0.09511800      -0.00063500      -0.05640700
P        0.46550512       1.96104051       0.96467695       0.00000000 NULL      -0.17096800       0.11796300       0.11846100
3
Lattice="3.52151155060942 0.44034273453846845 0.28071417628302764 -0.13872397374110151 3.6095805410246617 0.22065899270721967 0.18738265218017638 -0.14368477324739318 5.919299527724172" Properties=species:S:1:pos:R:3:initial_magmoms:R:1:castep_labels:S:1:forces:R:3 n_minim_iter=9 energy=-15.692284436234 stress="-0.001001343808036423 0.004783948170529068 -0.0012094221247890015 0.004783948170529068 0.0027770248635299605 0.0020202922064851184 -0.0012094221247890015 0.0020202922064851184 0.0010419799678602407" free_energy=-15.692284436234 pbc="T T T"
P        2.17502940       1.04816654       2.09741821       0.00000000 NULL       0.10444000      -0.07988100       0.00259200
P        1.74151645       0.34262759       0.03721125       0.00000000 NULL      -0.02664600       0.02279500      -0.02655500
P        0.46521595       1.96978230       0.97559580       0.00000000 NULL      -0.07779400       0.05708600       0.02396300
3
Lattice="3.5147777320829197 0.4321766286568861 0.27507463268951127 -0.1458964109640238 3.583988545238887 0.19753422927651856 0.1810251548887522 -0.1872475245881529 5.978431942613027" Properties=species:S:1:pos:R:3:initial_magmoms:R:1:castep_labels:S:1:forces:R:3 n_minim_iter=10 energy=-15.694341325214 stress="-0.0015590527395938352 0.004098262745788882 -0.0015763667366171306 0.004098262745788882 0.0005602597968072454 0.0011059811228315713 -0.0015763667366171306 0.0011059811228315713 0.0032645475303465354" free_energy=-15.694341325214 pbc="T T T"
P        2.16963482       1.02534509       2.10263984       0.00000000 NULL       0.09341600      -0.06303700      -0.06104000
P        1.73808078       0.33575706       0.02927662       0.00000000 NULL      -0.05119900       0.00342700       0.04434000
P        0.45713199       1.94987582       0.97865222       0.00000000 NULL      -0.04221600       0.05961000       0.01670000
3
Lattice="3.5305620960947888 0.4009623657250098 0.30524985168341956 -0.18016067365731528 3.5996118866437006 0.11368087054108769 0.23872620188856328 -0.2840233599525148 5.83150633145942" Properties=species:S:1:pos:R:3:initial_magmoms:R:1:castep_labels:S:1:forces:R:3 n_minim_iter=11 energy=-15.69999985674 stress="-0.0002206691724726058 -0.00011638215795449245 0.00040868145766698795 -0.00011638215795449245 0.0025573164938984256 -0.0006444023641937544 0.00040868145766698795 -0.0006444023641937544 0.001272140308541831" free_energy=-15.69999985674 pbc="T T T"
P        2.19687523       0.99633352       2.06237853       0.00000000 NULL       0.01705800      -0.01912200      -0.00839300
P        1.72534315       0.32005543       0.00463441       0.00000000 NULL       0.02495900      -0.11457300       0.00104200
P        0.46031784       1.92569484       0.95051707       0.00000000 NULL      -0.04201800       0.13369500       0.00735000
3
Lattice="3.5428664626061375 0.3984613737384956 0.2971011698689951 -0.1844750526411852 3.588394757996461 0.10162328791436234 0.22500004673990798 -0.29769339967104086 5.784934655630063" Properties=species:S:1:pos:R:3:initial_magmoms:R:1:castep_labels:S:1:forces:R:3 n_minim_iter=12 energy=-15.701870662519 stress="0.0012146810698823258 -0.0009953561330556019 0.00027767620088371047 -0.0009953561330556019 0.0028119623073401593 -0.000593666572830361 0.00027767620088371047 -0.000593666572830361 0.0015060312328768384" free_energy=-15.701870662519 pbc="T T T"
P        2.19891207       0.98506493       2.04667831       0.00000000 NULL       0.04791700       0.04789300      -0.04214500
P        1.72194560       0.30776522      -0.00969751       0.00000000 NULL       0.03708900      -0.05735700       0.01701200
P        0.46766619       1.93123167       0.94042728       0.00000000 NULL      -0.08500600       0.00946500       0.02513300
3
Lattice="3.5504377914562486 0.41090258165677324 0.24725459524454457 -0.17639047869711785 3.571549793515952 0.06583059375008896 0.14473643653772927 -0.34866914900714086 5.697516250641892" Properties=species:S:1:pos:R:3:initial_magmoms:R:1:castep_labels:S:1:forces:R:3 n_minim_iter=13 energy=-15.706416101642 stress="0.0019109643303251097 -0.0016635577812188977 0.0003726931154315614 -0.0016635577812188977 0.000935656598623159 0.00037627273161228565 0.0003726931154315614 0.00037627273161228565 0.0006966483797871077" free_energy=-15.706416101642 pbc="T T T"
P        2.21261623       0.99443791       1.99095154       0.00000000 NULL      -0.01559300       0.03931700       0.00077800
P        1.70639037       0.28627157      -0.04381600       0.00000000 NULL      -0.01350700       0.00823900      -0.01091500
P        0.45040626       1.92328772       0.90121908       0.00000000 NULL       0.02910000      -0.04755600       0.01013700
3
Lattice="3.60133704768663 0.5099369308824616 -0.04833602587565243 -0.10588103403267458 3.5573478504688296 -0.3457664765508671 -0.3046048756082021 -0.9237254699561788 5.054533780847151" Properties=species:S:1:pos:R:3:initial_magmoms:R:1:castep_labels:S:1:forces:R:3 n_minim_iter=14 energy=-15.750654972749 stress="0.0013691024805939677 0.006755491370798136 -0.0016216310456251934 0.006755491370798136 -0.0027768748654425617 -0.003936971993081362 -0.0016216310456251934 -0.003936971993081362 -0.005767138716711261" free_energy=-15.750654972749 pbc="T T T"
P        2.31014688       1.06729754       1.55448578       0.00000000 NULL      -0.01266100       0.15614300       0.58456900
P        1.57835374       0.12827838      -0.25779686       0.00000000 NULL      -0.18496200      -0.09910900      -0.53706800
P        0.40467184       1.87021045       0.57340712       0.00000000 NULL       0.19762300      -0.05703400      -0.04750100
3
Lattice="3.6044872581305776 0.5149690618192497 -0.06279762917697707 -0.10239534160021166 3.557737281586574 -0.36375027592924936 -0.3269238994943203 -0.9483905562839409 5.0212007547371345" Properties=species:S:1:pos:R:3:initial_magmoms:R:1:castep_labels:S:1:forces:R:3 n_minim_iter=15 energy=-15.751352550929 stress="0.001035896488286406 0.007070344510122322 -0.0021522417673488234 0.007070344510122322 -0.003143812549344917 -0.004455443324447927 -0.0021522417673488234 -0.004455443324447927 -0.007189598011743233" free_energy=-15.751352550929 pbc="T T T"
P        2.31565996       1.07191634       1.53206473       0.00000000 NULL      -0.02383500       0.15829700       0.60767400
P        1.57184058       0.12129652      -0.26684954       0.00000000 NULL      -0.18070500      -0.10306100      -0.55540300
P        0.40265089       1.86842236       0.55791486       0.00000000 NULL       0.20453900      -0.05523700      -0.05227100
3
Lattice="3.5443921787174593 0.44405321781950763 0.03183728876611228 -0.1640970082415545 3.5449262700393716 -0.2716210700651363 -0.18029110213583763 -0.7302876737847765 4.509574063085647" Properties=species:S:1:pos:R:3:initial_magmoms:R:1:castep_labels:S:1:forces:R:3 n_minim_iter=16 energy=-15.834775049281 stress="-0.009515471839327916 0.002077487583449706 -0.0015800834811831013 0.002077487583449706 -0.009540501810212852 -0.0019960070399306583 -0.0015800834811831013 -0.0019960070399306583 0.000896996048805551" free_energy=-15.834775049281 pbc="T T T"
P        2.25129675       1.04827374       1.56720901       0.00000000 NULL      -0.04003800       0.03588900       0.23693800
P        1.56018420       0.14595791      -0.32065330       0.00000000 NULL       0.16467500      -0.15629800      -0.24763100
P        0.41829942       1.86357016       0.54512711       0.00000000 NULL      -0.12463700       0.12040900       0.01069300
3
Lattice="3.5307552979737022 0.42285121098228834 0.10707375791337868 -0.1773173164534986 3.557668623570905 -0.2783404519477402 -0.05264834291086982 -0.6956793039478761 4.263351001611867" Properties=species:S:1:pos:R:3:initial_magmoms:R:1:castep_labels:S:1:forces:R:3 n_minim_iter=17 energy=-15.858600902902 stress="-0.012813626235399228 -0.0024066058511174266 0.0009964588161067002 -0.0024066058511174266 -0.011510001098716648 -0.0038212617495494506 0.0009964588161067002 -0.0038212617495494506 -0.006080953800856275" free_energy=-15.858600902902 pbc="T T T"
P        2.24051507       1.05123215       1.57278075       0.00000000 NULL      -0.01176700       0.05371400       0.18256000
P        1.57805784       0.13741926      -0.31941985       0.00000000 NULL       0.17717500      -0.19624300      -0.18551000
P        0.43930920       1.86783649       0.51975429       0.00000000 NULL      -0.16540800       0.14252900       0.00295000
3
Lattice="3.555410697358254 0.4484120925140063 0.11273505995137914 -0.1529599984094958 3.5940865847491796 -0.22961238736210818 -0.049680429149734986 -0.6145999384377551 4.200960272229517" Properties=species:S:1:pos:R:3:initial_magmoms:R:1:castep_labels:S:1:forces:R:3 n_minim_iter=18 energy=-15.870532891507 stress="-0.0035331918597914383 -0.0035098291332534607 0.0038079375238780555 -0.0035098291332534607 -1.7194966731951562e-05 0.003465720305549759 0.0038079375238780555 0.003465720305549759 0.0031997590266414208" free_energy=-15.870532891507 pbc="T T T"
P        2.25215376       1.10201763       1.58535550       0.00000000 NULL      -0.01967000       0.02247800       0.04473700
P        1.60614278       0.14458212      -0.31582103       0.00000000 NULL       0.08086400       0.01422400      -0.01011100
P        0.45113791       1.90625658       0.52221384       0.00000000 NULL      -0.06119400      -0.03670200      -0.03462600
3
Lattice="3.5810413861772354 0.4760724735863082 0.08283504808278512 -0.1295120851334258 3.6128943166664924 -0.23876436187781733 -0.09974967491163736 -0.6233781515630686 4.124156398287732" Properties=species:S:1:pos:R:3:initial_magmoms:R:1:castep_labels:S:1:forces:R:3 n_minim_iter=19 energy=-15.878367504892 stress="0.003152436188311341 -0.0014141541128960538 0.0022854597682395693 -0.0014141541128960538 0.004603482914827471 0.0007092416740838986 0.0022854597682395693 0.0007092416740838986 0.004308718461107888" free_energy=-15.878367504892 pbc="T T T"
P        2.26376640       1.14272250       1.55323914       0.00000000 NULL      -0.00467700      -0.07100900       0.04156500
P        1.62089334       0.13462985      -0.32825561       0.00000000 NULL       0.01253700       0.15724300       0.02999000
P        0.45367839       1.92127685       0.48852167       0.00000000 NULL      -0.00786000      -0.08623400      -0.07155500
3
Lattice="3.6362735062673868 0.5548090674743597 -0.014755120938737765 -0.062277229579122385 3.651134273555273 -0.14176502785933545 -0.2783815553431914 -0.458406356565083 3.810109452354816" Properties=species:S:1:pos:R:3:initial_magmoms:R:1:castep_labels:S:1:forces:R:3 n_minim_iter=20 energy=-15.909961196123 stress="0.007316761244823953 0.0032103428872795516 -0.001226062590835416 0.0032103428872795516 0.007994759992550872 0.0037790061664860907 -0.001226062590835416 0.0037790061664860907 0.006429400920600583" free_energy=-15.909961196123 pbc="T T T"
P        2.27795902       1.26457037       1.47791373       0.00000000 NULL       0.03756700      -0.31589200       0.11326400
P        1.65953677       0.16673231      -0.38077359       0.00000000 NULL      -0.21195900       0.52593300       0.03851800
P        0.44554771       1.96834523       0.43427338       0.00000000 NULL       0.17439200      -0.21004100      -0.15178300
3
Lattice="3.660268259065079 0.5795064233633448 -0.04476966065456813 -0.04181232765442061 3.662964128106334 -0.10772387048538026 -0.33444637089483803 -0.40088155713055357 3.7085053966024044" Properties=species:S:1:pos:R:3:initial_magmoms:R:1:castep_labels:S:1:forces:R:3 n_minim_iter=21 energy=-15.915310558974 stress="0.006604379039815684 0.004858864030238521 -0.003470674746556787 0.004858864030238521 0.00705380733578117 0.005988682428078215 -0.003470674746556787 0.005988682428078215 0.0011080523637749964" free_energy=-15.915310558974 pbc="T T T"
P        2.28796057       1.30080280       1.45327306       0.00000000 NULL       0.01880800      -0.39022300       0.11744100
P        1.67206814       0.18297178      -0.39876593       0.00000000 NULL      -0.23947100       0.62400000       0.03887300
P        0.44487926       1.98131715       0.42206169       0.00000000 NULL       0.22066300      -0.23377700      -0.15631500
