12
Lattice="6.060400000000004 -9.648618416558543e-31 -1.8897085568610526e-30 3.030200000000002 6.533946652960172 -1.930930409956791e-30 3.030200000000003 2.0068895240630714e-16 6.685417398171433" Properties=species:S:1:pos:R:3:initial_magmoms:R:1:castep_labels:S:1 n_minim_iter=1 pbc="T T T"
P        8.34005370       2.58178447       6.01624255       0.00000000 NULL
P        6.81094631       2.58178447       0.66917485       0.00000000 NULL
P        2.27965370       3.95216216       0.66917485       0.00000000 NULL
P        6.81094631       3.95216216       6.01624255       0.00000000 NULL
P        9.31066918       5.55323001       4.27424607       0.00000000 NULL
P        5.84033082       5.55323001       2.41117133       0.00000000 NULL
P        3.25026918       0.98071663       2.41117133       0.00000000 NULL
P        5.84033082       0.98071663       4.27424607       0.00000000 NULL
P        3.84792068       0.58101160       4.39066526       0.00000000 NULL
P        5.24267933       0.58101160       2.29475214       0.00000000 NULL
P        3.84792068       5.95293504       2.29475214       0.00000000 NULL
P        5.24267933       5.95293504       4.39066526       0.00000000 NULL
12
Lattice="6.089982112558166 -3.7927544639466826e-18 -5.656508251230197e-18 3.044991056279083 6.552197690467766 -7.385793446520872e-18 3.044991056279084 1.939724222595502e-16 6.698878790145725" Properties=species:S:1:pos:R:3:initial_magmoms:R:1:castep_labels:S:1 n_minim_iter=2 pbc="T T T"
P        8.38073385       2.58887520       6.02820410       0.00000000 NULL
P        6.84422144       2.58887520       0.67067469       0.00000000 NULL
P        2.29075174       3.96332248       0.67067469       0.00000000 NULL
P        6.84422144       3.96332248       6.02820410       0.00000000 NULL
P        9.35590436       5.56822434       4.28303659       0.00000000 NULL
P        5.86905093       5.56822434       2.41584220       0.00000000 NULL
P        3.26592225       0.98397334       2.41584220       0.00000000 NULL
P        5.86905093       0.98397334       4.28303659       0.00000000 NULL
P        3.86661115       0.58296514       4.39981293       0.00000000 NULL
P        5.26836202       0.58296514       2.29906586       0.00000000 NULL
P        3.86661115       5.96923254       2.29906586       0.00000000 NULL
P        5.26836202       5.96923254       4.39981293       0.00000000 NULL
12
Lattice="6.645801523497355 -6.028953006629802e-18 3.954223984618317e-17 3.3229007617486777 6.89370183144623 1.6458095971614707e-17 3.3229007617486785 2.039765171356328e-16 6.949112348313124" Properties=species:S:1:pos:R:3:initial_magmoms:R:1:castep_labels:S:1 n_minim_iter=3 pbc="T T T"
P        9.14501497       2.72154958       6.25056147       0.00000000 NULL
P        7.46948884       2.72154958       0.69855088       0.00000000 NULL
P        2.49921345       4.17215224       0.69855088       0.00000000 NULL
P        7.46948884       4.17215224       6.25056147       0.00000000 NULL
P       10.20573808       5.84850302       4.44652944       0.00000000 NULL
P        6.40876574       5.84850302       2.50258291       0.00000000 NULL
P        3.55993656       1.04519879       2.50258291       0.00000000 NULL
P        6.40876574       1.04519879       4.44652944       0.00000000 NULL
P        4.21769877       0.61976591       4.57001576       0.00000000 NULL
P        5.75100353       0.61976591       2.37909659       0.00000000 NULL
P        4.21769877       6.27393591       2.37909659       0.00000000 NULL
P        5.75100353       6.27393591       4.57001576       0.00000000 NULL
12
Lattice="6.742584883370426 -7.864139535693444e-17 -2.87692889409451e-17 3.371292441685213 7.038281736753644 -1.3628154548263285e-16 3.3712924416852137 5.0729879661439854e-17 7.019930726891988" Properties=species:S:1:pos:R:3:initial_magmoms:R:1:castep_labels:S:1 n_minim_iter=4 pbc="T T T"
P        9.27783913       2.77838762       6.31372913       0.00000000 NULL
P        7.57862309       2.77838762       0.70620160       0.00000000 NULL
P        2.53525425       4.25989410       0.70620160       0.00000000 NULL
P        7.57862309       4.25989410       6.31372913       0.00000000 NULL
P       10.35405873       5.96655168       4.49305168       0.00000000 NULL
P        6.50240348       5.96655168       2.52687905       0.00000000 NULL
P        3.61147385       1.07173004       2.52687905       0.00000000 NULL
P        6.50240348       1.07173004       4.49305168       0.00000000 NULL
P        4.27878058       0.63719560       4.61942606       0.00000000 NULL
P        5.83509675       0.63719560       2.40050467       0.00000000 NULL
P        4.27878058       6.40108612       2.40050467       0.00000000 NULL
P        5.83509675       6.40108612       4.61942606       0.00000000 NULL
12
Lattice="6.752159865872967 -6.777497893750872e-17 -3.084486085982245e-17 3.3760799329364835 7.14549924130806 -1.4934569554953708e-16 3.3760799329364843 4.5714988047301733e-17 7.032364478010017" Properties=species:S:1:pos:R:3:initial_magmoms:R:1:castep_labels:S:1 n_minim_iter=5 pbc="T T T"
P        9.29056014       2.82106216       6.32481736       0.00000000 NULL
P        7.58983953       2.82106216       0.70754712       0.00000000 NULL
P        2.53840028       4.32443706       0.70754712       0.00000000 NULL
P        7.58983953       4.32443706       6.32481736       0.00000000 NULL
P       10.36881877       6.05363919       4.50151570       0.00000000 NULL
P        6.51158091       6.05363919       2.53084878       0.00000000 NULL
P        3.61665890       1.09186004       2.53084878       0.00000000 NULL
P        6.51158091       1.09186004       4.50151570       0.00000000 NULL
P        4.28436638       0.65254444       4.63025906       0.00000000 NULL
P        5.84387342       0.65254444       2.40210542       0.00000000 NULL
P        4.28436638       6.49295478       2.40210542       0.00000000 NULL
P        5.84387342       6.49295478       4.63025906       0.00000000 NULL
12
Lattice="6.713040394480812 -6.937338741110768e-17 -1.634608134211887e-17 3.356520197240406 7.223527968738504 -1.4578370553989364e-16 3.356520197240407 4.1166903364067966e-17 7.0091961300673145" Properties=species:S:1:pos:R:3:initial_magmoms:R:1:castep_labels:S:1 n_minim_iter=6 pbc="T T T"
P        9.23604887       2.85269820       6.30407066       0.00000000 NULL
P        7.54655212       2.85269820       0.70512547       0.00000000 NULL
P        2.52300848       4.37082975       0.70512547       0.00000000 NULL
P        7.54655212       4.37082975       6.30407066       0.00000000 NULL
P       10.30875555       6.11657352       4.48683209       0.00000000 NULL
P        6.47384544       6.11657352       2.52236404       0.00000000 NULL
P        3.59571516       1.10695443       2.52236404       0.00000000 NULL
P        6.47384544       1.10695443       4.48683209       0.00000000 NULL
P        4.25863202       0.66719374       4.61801978       0.00000000 NULL
P        5.81092859       0.66719374       2.39117635       0.00000000 NULL
P        4.25863202       6.55633421       2.39117635       0.00000000 NULL
P        5.81092859       6.55633421       4.61801978       0.00000000 NULL
12
Lattice="6.648035133700515 -7.984702146434729e-17 -2.2677832031541538e-17 3.3240175668502574 7.328404912229664 -1.561391832864762e-16 3.3240175668502583 2.922882823706881e-17 6.97440954557871" Properties=species:S:1:pos:R:3:initial_magmoms:R:1:castep_labels:S:1 n_minim_iter=7 pbc="T T T"
P        9.14466190       2.89616424       6.27264886       0.00000000 NULL
P        7.47542594       2.89616424       0.70176069       0.00000000 NULL
P        2.49662677       4.43224066       0.70176069       0.00000000 NULL
P        7.47542594       4.43224066       6.27264886       0.00000000 NULL
P       10.20783257       6.20050523       4.46513122       0.00000000 NULL
P        6.41225527       6.20050523       2.50927833       0.00000000 NULL
P        3.55979744       1.12789967       2.50927833       0.00000000 NULL
P        6.41225527       1.12789967       4.46513122       0.00000000 NULL
P        4.21434658       0.69468680       4.60225192       0.00000000 NULL
P        5.75770613       0.69468680       2.37215763       0.00000000 NULL
P        4.21434658       6.63371810       2.37215763       0.00000000 NULL
P        5.75770613       6.63371810       4.60225192       0.00000000 NULL
12
Lattice="6.624749567328139 -7.351370816816114e-17 -1.1714832929917856e-17 3.3123747836640693 7.3348829175084695 -1.4937207596370857e-16 3.3123747836640702 3.3977770690768924e-17 6.97008519148754" Properties=species:S:1:pos:R:3:initial_magmoms:R:1:castep_labels:S:1 n_minim_iter=8 pbc="T T T"
P        9.11002844       2.90078860       6.26790237       0.00000000 NULL
P        7.45184548       2.90078860       0.70218282       0.00000000 NULL
P        2.48527888       4.43409430       0.70218282       0.00000000 NULL
P        7.45184548       4.43409430       6.26790237       0.00000000 NULL
P       10.16949697       6.20443679       4.46321633       0.00000000 NULL
P        6.39237696       6.20443679       2.50686886       0.00000000 NULL
P        3.54474740       1.13044612       2.50686886       0.00000000 NULL
P        6.39237696       1.13044612       4.46321633       0.00000000 NULL
P        4.19466842       0.71367419       4.60701033       0.00000000 NULL
P        5.74245594       0.71367419       2.36307487       0.00000000 NULL
P        4.19466842       6.62120871       2.36307487       0.00000000 NULL
P        5.74245594       6.62120871       4.60701033       0.00000000 NULL
12
Lattice="6.603168484293076 -8.56193224322518e-17 -1.6843968328200792e-17 3.301584242146538 7.330037614019252 -1.5409712758732873e-16 3.301584242146539 2.549957226781635e-17 6.962661737437702" Properties=species:S:1:pos:R:3:initial_magmoms:R:1:castep_labels:S:1 n_minim_iter=9 pbc="T T T"
P        9.07928227       2.89960902       6.26075905       0.00000000 NULL
P        7.42863895       2.89960902       0.70190269       0.00000000 NULL
P        2.47611379       4.43042858       0.70190269       0.00000000 NULL
P        7.42863895       4.43042858       6.26075905       0.00000000 NULL
P       10.13538159       6.19999731       4.45865884       0.00000000 NULL
P        6.37253963       6.19999731       2.50400290       0.00000000 NULL
P        3.53221311       1.13004029       2.50400290       0.00000000 NULL
P        6.37253963       1.13004029       4.45865884       0.00000000 NULL
P        4.17844051       0.72118992       4.60535229       0.00000000 NULL
P        5.72631223       0.72118992       2.35730945       0.00000000 NULL
P        4.17844051       6.60884768       2.35730945       0.00000000 NULL
P        5.72631223       6.60884768       4.60535229       0.00000000 NULL
12
Lattice="6.597210094468562 -8.48593174202702e-17 -1.575287773374318e-17 3.298605047234281 7.330812765830412 -1.5392624152750488e-16 3.298605047234282 2.552450086036934e-17 6.963512142553297" Properties=species:S:1:pos:R:3:initial_magmoms:R:1:castep_labels:S:1 n_minim_iter=10 pbc="T T T"
P        9.07043260       2.90028412       6.26115548       0.00000000 NULL
P        7.42259265       2.90028412       0.70235666       0.00000000 NULL
P        2.47322250       4.43052863       0.70235666       0.00000000 NULL
P        7.42259265       4.43052863       6.26115548       0.00000000 NULL
P       10.12556956       6.20039494       4.45936582       0.00000000 NULL
P        6.36745568       6.20039494       2.50414633       0.00000000 NULL
P        3.52835947       1.13041781       2.50414633       0.00000000 NULL
P        6.36745568       1.13041781       4.45936582       0.00000000 NULL
P        4.17291939       0.72625218       4.60801830       0.00000000 NULL
P        5.72289576       0.72625218       2.35549385       0.00000000 NULL
P        4.17291939       6.60456057       2.35549385       0.00000000 NULL
P        5.72289576       6.60456057       4.60801830       0.00000000 NULL
12
Lattice="6.590399216362532 -8.478409328104859e-17 -1.4325160542941255e-17 3.295199608181266 7.330446421632769 -1.5336385146040835e-16 3.295199608181267 2.5317181591094618e-17 6.962841184261919" Properties=species:S:1:pos:R:3:initial_magmoms:R:1:castep_labels:S:1 n_minim_iter=11 pbc="T T T"
P        9.06056374       2.90040959       6.26025461       0.00000000 NULL
P        7.41543431       2.90040959       0.70258658       0.00000000 NULL
P        2.47016453       4.43003681       0.70258658       0.00000000 NULL
P        7.41543431       4.43003681       6.26025461       0.00000000 NULL
P       10.11461991       6.19992259       4.45903230       0.00000000 NULL
P        6.36137814       6.19992259       2.50380889       0.00000000 NULL
P        3.52422069       1.13052382       2.50380889       0.00000000 NULL
P        6.36137814       1.13052382       4.45903230       0.00000000 NULL
P        4.16717833       0.73015058       4.60921967       0.00000000 NULL
P        5.71842051       0.73015058       2.35362151       0.00000000 NULL
P        4.16717833       6.60029582       2.35362151       0.00000000 NULL
P        5.71842051       6.60029582       4.60921967       0.00000000 NULL
12
Lattice="6.562633859190199 -8.232688985848654e-17 -1.3969584730642538e-17 3.2813169295950995 7.32892258005253 -1.5229337386963553e-16 3.2813169295951004 2.65300444948161e-17 6.960258449007879" Properties=species:S:1:pos:R:3:initial_magmoms:R:1:castep_labels:S:1 n_minim_iter=12 pbc="T T T"
P        9.02040155       2.90080428       6.25668018       0.00000000 NULL
P        7.38618311       2.90080428       0.70357827       0.00000000 NULL
P        2.45776769       4.42811828       0.70357827       0.00000000 NULL
P        7.38618311       4.42811828       6.25668018       0.00000000 NULL
P       10.07005218       6.19804008       4.45772044       0.00000000 NULL
P        6.33653248       6.19804008       2.50253801       0.00000000 NULL
P        3.50741832       1.13088248       2.50253801       0.00000000 NULL
P        6.33653248       1.13088248       4.45772044       0.00000000 NULL
P        4.14368594       0.74584100       4.61414610       0.00000000 NULL
P        5.70026486       0.74584100       2.34611235       0.00000000 NULL
P        4.14368594       6.58308156       2.34611235       0.00000000 NULL
P        5.70026486       6.58308156       4.61414610       0.00000000 NULL
12
Lattice="6.534795969277423 -7.560685875970719e-17 2.4391143493144117e-18 3.2673979846387113 7.327272292540356 -1.4408056158812155e-16 3.2673979846387122 2.999625654782358e-17 6.958544348476448" Properties=species:S:1:pos:R:3:initial_magmoms:R:1:castep_labels:S:1 n_minim_iter=13 pbc="T T T"
P        8.98031961       2.90076144       6.25368258       0.00000000 NULL
P        7.35667032       2.90076144       0.70486177       0.00000000 NULL
P        2.44552364       4.42651084       0.70486177       0.00000000 NULL
P        7.35667032       4.42651084       6.25368258       0.00000000 NULL
P       10.02554272       6.19628914       4.45678562       0.00000000 NULL
P        6.31144721       6.19628914       2.50175873       0.00000000 NULL
P        3.49074675       1.13098314       2.50175873       0.00000000 NULL
P        6.31144721       1.13098314       4.45678562       0.00000000 NULL
P        4.11951369       0.76131255       4.61962780       0.00000000 NULL
P        5.68268027       0.76131255       2.33891655       0.00000000 NULL
P        4.11951369       6.56595973       2.33891655       0.00000000 NULL
P        5.68268027       6.56595973       4.61962780       0.00000000 NULL
12
Lattice="6.506723487533685 -6.061748657933322e-17 1.744322387786556e-17 3.2533617437668423 7.325569632171129 -1.3656030522707742e-16 3.253361743766843 3.770843289000179e-17 6.9588164329029025" Properties=species:S:1:pos:R:3:initial_magmoms:R:1:castep_labels:S:1 n_minim_iter=14 pbc="T T T"
P        8.94009793       2.90032467       6.25228290       0.00000000 NULL
P        7.32671080       2.90032467       0.70653353       0.00000000 NULL
P        2.43337444       4.42524494       0.70653353       0.00000000 NULL
P        7.32671080       4.42524494       6.25228290       0.00000000 NULL
P        9.98085055       6.19470015       4.45695744       0.00000000 NULL
P        6.28595818       6.19470015       2.50185899       0.00000000 NULL
P        3.47412706       1.13086947       2.50185899       0.00000000 NULL
P        6.28595818       1.13086947       4.45695744       0.00000000 NULL
P        4.09462576       0.77655171       4.62640760       0.00000000 NULL
P        5.66545948       0.77655171       2.33240883       0.00000000 NULL
P        4.09462576       6.54901791       2.33240883       0.00000000 NULL
P        5.66545948       6.54901791       4.62640760       0.00000000 NULL
12
Lattice="6.477484396681925 -6.590337528032231e-17 9.885942503218664e-18 3.2387421983409626 7.323357643976973 -1.403297149389632e-16 3.2387421983409634 3.483224133319462e-17 6.958137285502952" Properties=species:S:1:pos:R:3:initial_magmoms:R:1:castep_labels:S:1 n_minim_iter=15 pbc="T T T"
P        8.89846031       2.89933180       6.24986593       0.00000000 NULL
P        7.29525069       2.89933180       0.70827136       0.00000000 NULL
P        2.42097592       4.42402583       0.70827136       0.00000000 NULL
P        7.29525069       4.42402583       6.24986593       0.00000000 NULL
P        9.93455580       6.19287414       4.45634009       0.00000000 NULL
P        6.25915520       6.19287414       2.50179719       0.00000000 NULL
P        3.45707140       1.13048349       2.50179719       0.00000000 NULL
P        6.25915520       1.13048349       4.45634009       0.00000000 NULL
P        4.06847788       0.79149011       4.63253792       0.00000000 NULL
P        5.64774873       0.79149011       2.32559936       0.00000000 NULL
P        4.06847788       6.53186751       2.32559936       0.00000000 NULL
P        5.64774873       6.53186751       4.63253792       0.00000000 NULL
12
Lattice="6.451026235191145 -6.893085160393261e-17 1.1334576754574942e-17 3.2255131175955727 7.324887653274796 -1.383530766794526e-16 3.2255131175955736 3.433608668690124e-17 6.960957294177521" Properties=species:S:1:pos:R:3:initial_magmoms:R:1:castep_labels:S:1 n_minim_iter=16 pbc="T T T"
P        8.86082251       2.89943849       6.25039622       0.00000000 NULL
P        7.26674309       2.89943849       0.71056108       0.00000000 NULL
P        2.40979628       4.42544915       0.71056108       0.00000000 NULL
P        7.26674309       4.42544915       6.25039622       0.00000000 NULL
P        9.89266676       6.19433639       4.45784891       0.00000000 NULL
P        6.23489884       6.19433639       2.50310838       0.00000000 NULL
P        3.44164052       1.13055125       2.50310838       0.00000000 NULL
P        6.23489884       1.13055125       4.45784891       0.00000000 NULL
P        4.04357316       0.80654622       4.64103824       0.00000000 NULL
P        5.63296620       0.80654622       2.31991905       0.00000000 NULL
P        4.04357316       6.51834142       2.31991905       0.00000000 NULL
P        5.63296620       6.51834142       4.64103824       0.00000000 NULL
12
Lattice="6.44367985164369 -6.78600328435458e-17 1.285201499561627e-17 3.221839925821845 7.324688466165865 -1.3735192199567595e-16 3.221839925821846 3.4953000640415287e-17 6.960555039366526" Properties=species:S:1:pos:R:3:initial_magmoms:R:1:castep_labels:S:1 n_minim_iter=17 pbc="T T T"
P        8.85049742       2.89919168       6.24958902       0.00000000 NULL
P        7.25870222       2.89919168       0.71096602       0.00000000 NULL
P        2.40681756       4.42549677       0.71096602       0.00000000 NULL
P        7.25870222       4.42549677       6.24958902       0.00000000 NULL
P        9.88117251       6.19425938       4.45748459       0.00000000 NULL
P        6.22802713       6.19425938       2.50307045       0.00000000 NULL
P        3.43749265       1.13042908       2.50307045       0.00000000 NULL
P        6.22802713       1.13042908       4.45748459       0.00000000 NULL
P        4.03712968       0.80957312       4.64213956       0.00000000 NULL
P        5.62839011       0.80957312       2.31841548       0.00000000 NULL
P        4.03712968       6.51511533       2.31841548       0.00000000 NULL
P        5.62839011       6.51511533       4.64213956       0.00000000 NULL
12
Lattice="6.439270571109345 -6.816055268444757e-17 1.3061373704759378e-17 3.2196352855546726 7.324795305631363 -1.3701827558215962e-16 3.2196352855546735 3.482858355592142e-17 6.960622271230904" Properties=species:S:1:pos:R:3:initial_magmoms:R:1:castep_labels:S:1 n_minim_iter=18 pbc="T T T"
P        8.84428863       2.89911102       6.24934560       0.00000000 NULL
P        7.25388781       2.89911102       0.71127667       0.00000000 NULL
P        2.40501806       4.42568427       0.71127667       0.00000000 NULL
P        7.25388781       4.42568427       6.24934560       0.00000000 NULL
P        9.87425791       6.19441119       4.45745711       0.00000000 NULL
P        6.22391853       6.19441119       2.50316516       0.00000000 NULL
P        3.43498733       1.13038410       2.50316516       0.00000000 NULL
P        6.22391853       1.13038410       4.45745711       0.00000000 NULL
P        4.03312827       0.81160328       4.64309968       0.00000000 NULL
P        5.62577760       0.81160328       2.31752259       0.00000000 NULL
P        4.03312827       6.51319201       2.31752259       0.00000000 NULL
P        5.62577760       6.51319201       4.64309968       0.00000000 NULL
12
Lattice="6.408472661975925 -7.298958157442949e-17 1.4662332579298523e-17 3.2042363309879627 7.325909491744746 -1.3622744594991656e-16 3.2042363309879636 3.2761678896280414e-17 6.961651127247668" Properties=species:S:1:pos:R:3:initial_magmoms:R:1:castep_labels:S:1 n_minim_iter=19 pbc="T T T"
P        8.80091694       2.89862650       6.24806749       0.00000000 NULL
P        7.22026472       2.89862650       0.71358364       0.00000000 NULL
P        2.39244428       4.42728298       0.71358364       0.00000000 NULL
P        7.22026472       4.42728298       6.24806749       0.00000000 NULL
P        9.82594810       6.19581147       4.45760026       0.00000000 NULL
P        6.19523357       6.19581147       2.50405087       0.00000000 NULL
P        3.41747544       1.13009800       2.50405087       0.00000000 NULL
P        6.19523357       1.13009800       4.45760026       0.00000000 NULL
P        4.00493272       0.82614454       4.65035271       0.00000000 NULL
P        5.60777629       0.82614454       2.31129842       0.00000000 NULL
P        4.00493272       6.49976493       2.31129842       0.00000000 NULL
P        5.60777629       6.49976493       4.65035271       0.00000000 NULL
12
Lattice="6.391494570764613 -7.20597968125627e-17 1.8752622662850108e-17 3.1957472853823066 7.3270228286558075 -1.3399469656498836e-16 3.1957472853823075 3.348994318607632e-17 6.96335330724899" Properties=species:S:1:pos:R:3:initial_magmoms:R:1:castep_labels:S:1 n_minim_iter=20 pbc="T T T"
P        8.77701475       2.89829317       6.24810047       0.00000000 NULL
P        7.20172169       2.89829317       0.71525284       0.00000000 NULL
P        2.38552018       4.42872965       0.71525284       0.00000000 NULL
P        7.20172169       4.42872965       6.24810047       0.00000000 NULL
P        9.79928072       6.19713320       4.45830587       0.00000000 NULL
P        6.17945572       6.19713320       2.50504744       0.00000000 NULL
P        3.40778615       1.12988961       2.50504744       0.00000000 NULL
P        6.17945572       1.12988961       4.45830587       0.00000000 NULL
P        3.98840074       0.83516268       4.65566182       0.00000000 NULL
P        5.59884113       0.83516268       2.30769149       0.00000000 NULL
P        3.98840074       6.49186014       2.30769149       0.00000000 NULL
P        5.59884113       6.49186014       4.65566182       0.00000000 NULL
12
Lattice="6.355864254712602 -6.776112841908331e-17 2.6645969950821564e-17 3.177932127356301 7.326035386014399 -1.2826630087894131e-16 3.1779321273563017 3.568894216655951e-17 6.963151797787401" Properties=species:S:1:pos:R:3:initial_magmoms:R:1:castep_labels:S:1 n_minim_iter=21 pbc="T T T"
P        8.72713898       2.89632225       6.24509647       0.00000000 NULL
P        7.16252166       2.89632225       0.71805533       0.00000000 NULL
P        2.37127473       4.42971313       0.71805533       0.00000000 NULL
P        7.16252166       4.42971313       6.24509647       0.00000000 NULL
P        9.74362377       6.19713669       4.45736396       0.00000000 NULL
P        6.14603687       6.19713669       2.50578784       0.00000000 NULL
P        3.38775952       1.12889868       2.50578784       0.00000000 NULL
P        6.14603687       1.12889868       4.45736396       0.00000000 NULL
P        3.95504875       0.85115336       4.66318153       0.00000000 NULL
P        5.57874764       0.85115336       2.29997027       0.00000000 NULL
P        3.95504875       6.47488201       2.29997027       0.00000000 NULL
P        5.57874764       6.47488201       4.66318153       0.00000000 NULL
12
Lattice="6.300902863744472 -6.046577161463589e-17 4.252767944983829e-17 3.150451431872236 7.328845066154547 -1.2215552504035762e-16 3.150451431872237 3.962291274643979e-17 6.971770374990111" Properties=species:S:1:pos:R:3:initial_magmoms:R:1:castep_labels:S:1 n_minim_iter=22 pbc="T T T"
P        8.65017312       2.89364422       6.24689042       0.00000000 NULL
P        7.10208404       2.89364422       0.72487996       0.00000000 NULL
P        2.34927026       4.43520083       0.72487996       0.00000000 NULL
P        7.10208404       4.43520083       6.24689042       0.00000000 NULL
P        9.65748540       6.20123908       4.46123362       0.00000000 NULL
P        6.09477177       6.20123908       2.51053676       0.00000000 NULL
P        3.35658254       1.12760597       2.51053676       0.00000000 NULL
P        6.09477177       1.12760597       4.46123362       0.00000000 NULL
P        3.89822493       0.88204490       4.68418391       0.00000000 NULL
P        5.55312938       0.88204490       2.28758646       0.00000000 NULL
P        3.89822493       6.44680015       2.28758646       0.00000000 NULL
P        5.55312938       6.44680015       4.68418391       0.00000000 NULL
12
Lattice="6.240900778903501 -4.926623207968546e-17 4.6386242928566176e-17 3.1204503894517504 7.308925338817006 -1.0666852819958169e-16 3.1204503894517512 5.840869304060034e-17 6.951173281072188" Properties=species:S:1:pos:R:3:initial_magmoms:R:1:castep_labels:S:1 n_minim_iter=23 pbc="T T T"
P        8.56737385       2.88394507       6.22589217       0.00000000 NULL
P        7.03487811       2.88394507       0.72528112       0.00000000 NULL
P        2.32647307       4.42498026       0.72528112       0.00000000 NULL
P        7.03487811       4.42498026       6.22589217       0.00000000 NULL
P        9.56520110       6.18549212       4.44700019       0.00000000 NULL
P        6.03705085       6.18549212       2.50417310       0.00000000 NULL
P        3.32430032       1.12343321       2.50417310       0.00000000 NULL
P        6.03705085       1.12343321       4.44700019       0.00000000 NULL
P        3.85108681       0.89161576       4.67650828       0.00000000 NULL
P        5.51026437       0.89161576       2.27466500       0.00000000 NULL
P        3.85108681       6.41730957       2.27466500       0.00000000 NULL
P        5.51026437       6.41730957       4.67650828       0.00000000 NULL
12
Lattice="6.255129022341322 -5.0000829505517885e-17 4.773905209026593e-17 3.127564511170661 7.320157811527366 -1.0835369818896807e-16 3.127564511170662 5.563991084474904e-17 6.966824056450185" Properties=species:S:1:pos:R:3:initial_magmoms:R:1:castep_labels:S:1 n_minim_iter=24 pbc="T T T"
P        8.58667933       2.88740830       6.23874717       0.00000000 NULL
P        7.05114324       2.88740830       0.72807689       0.00000000 NULL
P        2.33155031       4.43274950       0.72807689       0.00000000 NULL
P        7.05114324       4.43274950       6.23874717       0.00000000 NULL
P        9.58654061       6.19504474       4.45691822       0.00000000 NULL
P        6.05128196       6.19504474       2.50990584       0.00000000 NULL
P        3.33141159       1.12511305       2.50990584       0.00000000 NULL
P        6.05128196       1.12511305       4.45691822       0.00000000 NULL
P        3.85591174       0.89734067       4.68966245       0.00000000 NULL
P        5.52678180       0.89734067       2.27716160       0.00000000 NULL
P        3.85591174       6.42281712       2.27716160       0.00000000 NULL
P        5.52678180       6.42281712       4.68966245       0.00000000 NULL
12
Lattice="6.243182924547641 -4.8625571738731807e-17 5.1772247246053204e-17 3.1215914622738206 7.318312524871409 -1.0689413866209988e-16 3.1215914622738214 5.568129880683643e-17 6.964545274423929" Properties=species:S:1:pos:R:3:initial_magmoms:R:1:castep_labels:S:1 n_minim_iter=25 pbc="T T T"
P        8.57012853       2.88592485       6.23578229       0.00000000 NULL
P        7.03782880       2.88592485       0.72876299       0.00000000 NULL
P        2.32694560       4.43238766       0.72876299       0.00000000 NULL
P        7.03782880       4.43238766       6.23578229       0.00000000 NULL
P        9.56806797       6.19376104       4.45517090       0.00000000 NULL
P        6.03988935       6.19376104       2.50937438       0.00000000 NULL
P        3.32488505       1.12455147       2.50937438       0.00000000 NULL
P        6.03988935       1.12455147       4.45517090       0.00000000 NULL
P        3.84505566       0.90098642       4.69027737       0.00000000 NULL
P        5.51971874       0.90098642       2.27426790       0.00000000 NULL