20
Lattice="6.452687722525214 5.414243925934531e-17 -1.7742767164246418e-17 3.226343861262607 8.824084432279504 0.5070984925012341 3.226343861262606 3.472899998216381 8.127766024651743" Properties=species:S:1:pos:R:3:initial_magmoms:R:1:castep_labels:S:1:forces:R:3 n_minim_iter=1 energy=-99.462887000137 stress="0.0021140014540185935 0.0 -0.0 0.0 -0.0003717573157709762 -0.0008919340103803234 -0.0 -0.0008919340103803234 0.00027216126692660076" free_energy=-99.462887000137 pbc="T T T"
P        6.49058393      10.74236916       7.68858044       0.00000000 NULL      -0.07584800      -0.43369700      -0.70706800
P        6.49058393       7.70310748       5.26371633       0.00000000 NULL      -0.07584800       0.43369300       0.70706800
P        3.18844765       4.73059966       3.17644019       0.00000000 NULL       0.07584800      -0.81231500      -0.16787000
P        3.18844765       1.41789254       1.14099206       0.00000000 NULL       0.07584700       0.81231500       0.16787100
P        6.31009464       5.54335191       5.38920319       0.00000000 NULL      -0.31784900       0.26617900      -0.32325000
P        9.53643850       4.07804030       7.05599508       0.00000000 NULL      -0.31785000      -0.26617600       0.32324900
P        6.59528081       4.27555263       7.19468699       0.00000000 NULL       0.31784900      -0.21367700       0.36011700
P        3.36893695       5.34583958       5.25051128       0.00000000 NULL       0.31784900       0.21367600      -0.36011700
P        7.51731040       6.43164536       7.64993325       0.00000000 NULL       0.33295900      -0.67726400       0.38942000
P        4.29096654       3.18974685       4.79526503       0.00000000 NULL       0.33295500       0.67726400      -0.38942000
P        5.38806504       6.70358583       7.26266049       0.00000000 NULL      -0.33295900       0.13634700      -0.76924900
P        8.61440890       2.91780637       5.18253778       0.00000000 NULL      -0.33295400      -0.13634500       0.76924900
P        8.60138244       6.86407419       1.51238344       0.00000000 NULL      -0.60168100      -0.00358600      -0.44717200
P        5.37503858       8.10850245       3.31214731       0.00000000 NULL      -0.60168200       0.00358700       0.44717200
P        4.30399300       6.42860729       2.13253558       0.00000000 NULL       0.60168200      -0.42182700       0.14844900
P        7.53033686       8.54396935       2.69199517       0.00000000 NULL       0.60168200       0.42182700      -0.14845000
P        5.98877171       6.55301491       0.57286145       0.00000000 NULL      -0.44697300      -0.10519400      -0.29234300
P        9.21511557       8.41956174       4.25166930       0.00000000 NULL      -0.44697300       0.10519400       0.29234300
P        6.91660373       5.43928306       2.15893650       0.00000000 NULL       0.44697300      -0.31069300       0.00030900
P       10.14294760       9.53329358       2.66559424       0.00000000 NULL       0.44697300       0.31069200      -0.00030900
20
Lattice="6.1996742179500846 3.8955666271035974e-17 -3.313196187009111e-17 3.0998371089750423 8.896199347197902 0.6536362847137647 3.0998371089750414 3.635217665465736 8.14584530558153" Properties=species:S:1:pos:R:3:initial_magmoms:R:1:castep_labels:S:1:forces:R:3 n_minim_iter=2 energy=-99.746801221196 stress="-0.019560477279249543 0.0 0.0 0.0 -0.011610756219931658 0.006120227548008769 0.0 0.006120227548008769 -0.016029027119229267" free_energy=-99.746801221196 pbc="T T T"
P        6.23302999      10.93080987       7.80186436       0.00000000 NULL       0.01102400      -0.40821300      -0.66332000
P        6.23302999       7.86631564       5.39735802       0.00000000 NULL       0.01102300       0.40821000       0.66331800
P        3.06648134       4.78391699       3.23291722       0.00000000 NULL      -0.01102300      -0.76251200      -0.15875500
P        3.06648134       1.48179151       1.16682357       0.00000000 NULL      -0.01102300       0.76251200       0.15875600
P        6.04987200       5.68532456       5.44264338       0.00000000 NULL      -0.40778400       0.21605900      -0.53248200
P        9.14970910       4.21560160       7.10294271       0.00000000 NULL      -0.40778400      -0.21605600       0.53248300
P        6.34947644       4.41912193       7.24585339       0.00000000 NULL       0.40778300      -0.42749800       0.38401000
P        3.24963933       5.48180424       5.29973270       0.00000000 NULL       0.40778400       0.42749800      -0.38401200
P        7.23596114       6.57888238       7.73614410       0.00000000 NULL       1.28670300      -0.40905200       0.77173500
P        4.13612403       3.32204379       4.80944200       0.00000000 NULL       1.28670500       0.40905300      -0.77173600
P        5.16338729       6.87976655       7.30765237       0.00000000 NULL      -1.28670200       0.58701400      -0.64677200
P        8.26322440       3.02115961       5.23793372       0.00000000 NULL      -1.28670500      -0.58701400       0.64677200
P        8.23988673       6.93858856       1.60213704       0.00000000 NULL      -0.63168900       0.36555700      -0.46705300
P        5.14004963       8.22331929       3.45124003       0.00000000 NULL      -0.63168800      -0.36555800       0.46705500
P        4.15946170       6.49322703       2.23638021       0.00000000 NULL       0.63168900      -0.31519900       0.50241600
P        7.25929881       8.66868082       2.81699686       0.00000000 NULL       0.63168900       0.31519800      -0.50241500
P        5.73594830       6.60523729       0.66843749       0.00000000 NULL      -0.39399300       0.08598600      -0.83812400
P        8.83578541       8.55667056       4.38493959       0.00000000 NULL      -0.39399300      -0.08598600       0.83812500
P        6.66340013       5.50181088       2.23983648       0.00000000 NULL       0.39399300      -0.75914600       0.36543500
P        9.76323724       9.66009697       2.81354059       0.00000000 NULL       0.39399200       0.75914700      -0.36543500
20
Lattice="5.943659540683576 9.753069494522227e-17 -6.435891485735223e-17 2.971829770341788 9.269006428274862 0.8736955683395025 2.9718297703417873 3.9687796334199006 8.42179389054898" Properties=species:S:1:pos:R:3:initial_magmoms:R:1:castep_labels:S:1:forces:R:3 n_minim_iter=3 energy=-100.431301594698 stress="-0.009983731657958317 -0.0 -0.0 -0.0 0.002649075172040558 0.009361757226760442 -0.0 0.009361757226760442 -0.004109303147460546" free_energy=-100.431301594698 pbc="T T T"
P        5.96957550      11.50532722       8.16958069       0.00000000 NULL      -0.12670000       0.18359300      -0.40237500
P        5.96957550       8.35135186       5.77365350       0.00000000 NULL      -0.12670000      -0.18359500       0.40237600
P        2.94591381       4.97166464       3.40045855       0.00000000 NULL       0.12670000      -0.31614100       0.30930300
P        2.94591381       1.64722839       1.24728617       0.00000000 NULL       0.12669900       0.31614100      -0.30930400
P        5.77268679       6.06336875       5.67149794       0.00000000 NULL      -0.74378900       0.43716200       0.07517300
P        8.74451656       4.52430391       7.39804068       0.00000000 NULL      -0.74378900      -0.43716000      -0.07517400
P        6.11463229       4.74311225       7.55168651       0.00000000 NULL       0.74378900       0.21913200       0.38567200
P        3.14280252       5.84456041       5.51785210       0.00000000 NULL       0.74378900      -0.21913300      -0.38567200
P        6.96950472       6.95882381       8.10611781       0.00000000 NULL       0.94799800      -0.31420800       0.91822600
P        3.99767495       3.62884884       4.96342081       0.00000000 NULL       0.94799200       0.31420900      -0.91822500
P        4.91781436       7.33713771       7.56735774       0.00000000 NULL      -0.94799800       0.75700400      -0.60729800
P        7.88964413       3.25053494       5.50218087       0.00000000 NULL      -0.94799300      -0.75700300       0.60729600
P        7.84843915       7.25431785       1.75750777       0.00000000 NULL      -0.46188900       0.85239600      -0.42373900
P        4.87660938       8.63358160       3.76393252       0.00000000 NULL      -0.46189100      -0.85239500       0.42373900
P        4.03887993       6.76618664       2.45265961       0.00000000 NULL       0.46188900      -0.10916700       0.94563100
P        7.01070970       9.12171282       3.06878068       0.00000000 NULL       0.46189000       0.10916600      -0.94563000
P        5.46138451       6.87577968       0.80562405       0.00000000 NULL       0.00220500      -0.09076700      -0.62237800
P        8.43321428       9.01211978       4.71581624       0.00000000 NULL       0.00220500       0.09076700       0.62237800
P        6.42593458       5.74232476       2.41978690       0.00000000 NULL      -0.00220400      -0.61622600       0.12593300
P        9.39776435      10.14557470       3.10165339       0.00000000 NULL      -0.00220300       0.61622400      -0.12593100
20
Lattice="5.679171878669429 5.021755637010184e-17 -7.986135736242387e-17 2.8395859393347145 9.056458786350149 0.5788641199299649 2.8395859393347136 3.619297702026323 8.321971735250488" Properties=species:S:1:pos:R:3:initial_magmoms:R:1:castep_labels:S:1:forces:R:3 n_minim_iter=4 energy=-101.309757868876 stress="-0.014814411578231474 -0.0 -0.0 -0.0 -0.01498582550042618 0.008579755838975014 -0.0 0.008579755838975014 -0.021179676411435533" free_energy=-101.309757868876 pbc="T T T"
P        5.69375228      10.96544858       7.73379481       0.00000000 NULL       0.15049500      -0.36590400       0.22036300
P        5.69375228       8.04818614       5.61745896       0.00000000 NULL       0.15049600       0.36590600      -0.22036400
P        2.82500554       4.65948145       3.23793200       0.00000000 NULL      -0.15049600       0.08304300      -0.41898800
P        2.82500554       1.67839679       1.21248592       0.00000000 NULL      -0.15049600      -0.08304400       0.41898700
P        5.47063754       5.80229562       5.46001649       0.00000000 NULL      -0.38437500       0.10722200      -0.36680400
P        8.31022348       4.15488033       7.31237316       0.00000000 NULL      -0.38437600      -0.10722300       0.36680400
P        5.88770622       4.38708699       7.47542721       0.00000000 NULL       0.38437600      -0.30861200       0.22539100
P        3.04812028       5.57008895       5.29696245       0.00000000 NULL       0.38437500       0.30861200      -0.22538900
P        6.70736444       6.47241589       7.97376044       0.00000000 NULL       0.71598700       0.70723200       0.58771200
P        3.86777850       3.48476005       4.79862921       0.00000000 NULL       0.71598600      -0.70723300      -0.58771100
P        4.65097932       6.97903166       7.25228459       0.00000000 NULL      -0.71598700       0.79291800       0.46568500
P        7.49056526       2.97814428       5.52010507       0.00000000 NULL      -0.71598500      -0.79291900      -0.46568400
P        7.42969515       7.07067985       1.46874822       0.00000000 NULL      -0.40698200       0.72723900      -0.46127700
P        4.59010921       8.32365718       3.56053382       0.00000000 NULL      -0.40698300      -0.72723800       0.46127700
P        3.92864861       6.50069838       2.28046371       0.00000000 NULL       0.40698300      -0.18696700       0.84065200
P        6.76823455       8.89363865       2.74881833       0.00000000 NULL       0.40698300       0.18696800      -0.84065300
P        5.17251244       6.69699960       0.54045645       0.00000000 NULL       0.43791200      -0.17712700      -0.53060200
P        8.01209838       8.69733743       4.48882559       0.00000000 NULL       0.43791200       0.17712700       0.53060200
P        6.18583132       5.50067643       2.24415050       0.00000000 NULL      -0.43791200      -0.55922200       0.01354200
P        9.02541726       9.89366060       2.78513154       0.00000000 NULL      -0.43791100       0.55922200      -0.01354200
20
Lattice="5.456488364156444 4.581794400430157e-17 -6.185618638941475e-17 2.728244182078222 9.122725914502483 0.42215262386397095 2.728244182078221 3.4943936487234213 8.437508754172159" Properties=species:S:1:pos:R:3:initial_magmoms:R:1:castep_labels:S:1:forces:R:3 n_minim_iter=5 energy=-101.513717150592 stress="-0.022953660789986157 -0.0 0.0 -0.0 -0.013344055878531848 0.006492335311220322 0.0 0.006492335311220322 -0.018030944529364504" free_energy=-101.513717150592 pbc="T T T"
P        5.46890563      10.90101703       7.68263845       0.00000000 NULL       0.07280200      -0.21408900       0.23091500
P        5.46890563       8.02466231       5.60685361       0.00000000 NULL       0.07280100       0.21408800      -0.23091300
P        2.71582692       4.61880665       3.21528335       0.00000000 NULL      -0.07280000       0.14451000      -0.27977100
P        2.71582692       1.68975312       1.21454733       0.00000000 NULL      -0.07279900      -0.14451100       0.27976900
P        5.24443905       5.76037519       5.46291134       0.00000000 NULL      -0.18986100       0.38762000      -0.59629100
P        7.97268323       4.04257824       7.40442810       0.00000000 NULL      -0.18986100      -0.38762000       0.59629100
P        5.66853768       4.27999161       7.57113826       0.00000000 NULL       0.18986000      -0.42926700       0.56704700
P        2.94029350       5.52296182       5.29620118       0.00000000 NULL       0.18986100       0.42926800      -0.56704600
P        6.45156465       6.36609422       8.04525983       0.00000000 NULL       0.76048900       0.77523100       0.71104000
P        3.72332047       3.43685920       4.82207961       0.00000000 NULL       0.76049200      -0.77523100      -0.71104100
P        4.46141208       6.91460043       7.26412745       0.00000000 NULL      -0.76048900       0.93200800       0.48777200
P        7.18965626       2.88835300       5.60321199       0.00000000 NULL      -0.76049300      -0.93200800      -0.48777300
P        7.12180913       7.11287195       1.35074947       0.00000000 NULL      -0.45603800       0.51068600      -0.41221600
P        4.39356495       8.31841374       3.50123384       0.00000000 NULL      -0.45603600      -0.51068700       0.41221600
P        3.79116760       6.49961925       2.22408788       0.00000000 NULL       0.45603700      -0.21434400       0.62030500
P        6.51941178       8.93166644       2.62789543       0.00000000 NULL       0.45603700       0.21434400      -0.62030500
P        4.96441937       6.73653440       0.41704552       0.00000000 NULL       0.24673300      -0.13665300      -0.37240200
P        7.69266356       8.69475129       4.43493778       0.00000000 NULL       0.24673200       0.13665300       0.37240300
P        5.94855736       5.49360442       2.18711274       0.00000000 NULL      -0.24673300      -0.39667700      -0.00210000
P        8.67680154       9.93768127       2.66487056       0.00000000 NULL      -0.24673400       0.39667900       0.00209900
20
Lattice="5.306046759052008 5.1750977534945705e-17 -9.272649185766905e-17 2.653023379526004 9.172519553812583 0.3925016078067376 2.653023379526003 3.483409668133151 8.494411666570059" Properties=species:S:1:pos:R:3:initial_magmoms:R:1:castep_labels:S:1:forces:R:3 n_minim_iter=6 energy=-102.052856547216 stress="-0.036953680155194096 -0.0 -0.0 -0.0 -0.011974290752943217 0.014108881481298942 -0.0 0.014108881481298942 -0.022159686145660384" free_energy=-102.052856547216 pbc="T T T"
P        5.30984997      10.88937787       7.68635051       0.00000000 NULL       0.05057800      -0.35763500       0.42147900
P        5.30984997       8.09451596       5.64401939       0.00000000 NULL       0.05058100       0.35763900      -0.42148000
P        2.64922017       4.59894170       3.18944931       0.00000000 NULL      -0.05058100       0.27501900      -0.47949400
P        2.64922017       1.72902291       1.25400732       0.00000000 NULL      -0.05057900      -0.27502000       0.47949100
P        5.06677272       5.85502191       5.42231381       0.00000000 NULL       0.29498700       0.49876800      -0.31856200
P        7.71979610       3.95635236       7.51555449       0.00000000 NULL       0.29498700      -0.49877000       0.31856100
P        5.54532080       4.24355089       7.71722348       0.00000000 NULL      -0.29498700      -0.13029800       0.57730000
P        2.89229742       5.56782338       5.22064482       0.00000000 NULL      -0.29498700       0.13029900      -0.57729800
P        6.27171595       6.39023479       8.17055972       0.00000000 NULL       0.58553100       0.71699400       0.24064500
P        3.61869257       3.42113948       4.76730858       0.00000000 NULL       0.58553000      -0.71699600      -0.24064300
P        4.34037757       7.01026483       7.28756964       0.00000000 NULL      -0.58553200       0.46978100       0.59270400
P        6.99340094       2.80110945       5.65029865       0.00000000 NULL      -0.58552900      -0.46978100      -0.59270200
P        6.85774900       7.18700586       1.25195454       0.00000000 NULL      -0.08728400       0.29352600      -0.02272300
P        4.20472562       8.31347830       3.58400369       0.00000000 NULL      -0.08728600      -0.29352500       0.02272200
P        3.75434452       6.46225124       2.28408379       0.00000000 NULL       0.08728500       0.07828500       0.28380500
P        6.40736790       9.03823292       2.55187445       0.00000000 NULL       0.08728400      -0.07828400      -0.28380500
P        4.82286627       6.72540694       0.39062670       0.00000000 NULL       0.02499400      -0.16530900      -0.34265200
P        7.47588965       8.77507721       4.44533154       0.00000000 NULL       0.02499500       0.16530800       0.34265200
P        5.78922725       5.49536573       2.14233892       0.00000000 NULL      -0.02499400      -0.37842400      -0.03915300
P        8.44225063      10.00511843       2.69361932       0.00000000 NULL      -0.02499400       0.37842300       0.03915300
20
Lattice="5.228209824462265 6.974561255571897e-17 -1.1374895824161735e-16 2.6141049122311326 8.98618822348369 -0.07737695075344843 2.6141049122311317 2.9781792866893624 8.478679974896995" Properties=species:S:1:pos:R:3:initial_magmoms:R:1:castep_labels:S:1:forces:R:3 n_minim_iter=7 energy=-102.643334838864 stress="-0.05020928487357675 0.0 -0.0 0.0 -0.018205248538108787 0.005835002080299223 -0.0 0.005835002080299223 -0.022417614668276072" free_energy=-102.643334838864 pbc="T T T"
P        5.22226875      10.20044698       7.25711583       0.00000000 NULL      -0.06192100      -0.45693600      -0.01369900
P        5.22226875       7.74610428       5.34483870       0.00000000 NULL      -0.06192100       0.45693400       0.01369900
P        2.62004599       4.30708091       2.92997829       0.00000000 NULL       0.06192100      -0.16802200      -0.42514100
P        2.62004599       1.67510284       1.27067322       0.00000000 NULL       0.06192000       0.16802300       0.42514100
P        4.98000488       5.57155605       5.14556589       0.00000000 NULL       0.95401600       0.07797900      -0.31206300
P        7.59410980       3.38880699       7.53376559       0.00000000 NULL       0.95401600      -0.07797700       0.31206300
P        5.47641477       3.72755090       7.77162941       0.00000000 NULL      -0.95401500      -0.26705200       0.17929700
P        2.86230986       5.23281214       4.90770207       0.00000000 NULL      -0.95401600       0.26705100      -0.17929800
P        6.14266730       5.85671047       8.04382995       0.00000000 NULL       0.43236000       0.57595600       0.29506300
P        3.52856238       3.10365256       4.63550153       0.00000000 NULL       0.43235900      -0.57595600      -0.29506200
P        4.31375235       6.55047291       7.05583693       0.00000000 NULL      -0.43236000       0.47308300       0.44156600
P        6.92785727       2.40989013       5.62349455       0.00000000 NULL      -0.43235900      -0.47308300      -0.44156600
P        6.68384078       7.00285014       0.81741575       0.00000000 NULL       0.67966200      -0.02768000       0.09981700
P        4.06973587       7.96552184       3.30585881       0.00000000 NULL       0.67966000       0.02768100      -0.09981700
P        3.77257887       6.15044963       2.03132661       0.00000000 NULL      -0.67966200       0.08449000      -0.05992600
P        6.38668378       8.81792235       2.09194795       0.00000000 NULL      -0.67966200      -0.08449100       0.05992600
P        4.72957354       6.51519695       0.06382648       0.00000000 NULL      -0.65266200      -0.27360600      -0.37361700
P        7.34367845       8.45317502       4.05944808       0.00000000 NULL      -0.65266100       0.27360600       0.37361600
P        5.72684611       5.27605716       1.82849606       0.00000000 NULL       0.65266200      -0.44431800      -0.13050500
P        8.34095102       9.69231481       2.29477850       0.00000000 NULL       0.65266300       0.44431800       0.13050500
20
Lattice="5.3120476537284915 5.901216636558889e-17 -1.138012731699531e-16 2.6560238268642458 8.954181854137188 -0.1769350309413877 2.656023826864245 2.8736682564944496 8.482376402503608" Properties=species:S:1:pos:R:3:initial_magmoms:R:1:castep_labels:S:1:forces:R:3 n_minim_iter=8 energy=-103.028258566672 stress="-0.03348093191038988 -0.0 -0.0 -0.0 -0.015540905725955581 0.002655370671235233 -0.0 0.002655370671235233 -0.01745788284119727" free_energy=-103.028258566672 pbc="T T T"
P        5.29346602      10.01668466       7.14952538       0.00000000 NULL      -0.03880400      -0.22228000       0.00251900
P        5.29346602       7.72509050       5.30863667       0.00000000 NULL      -0.03880400       0.22228100      -0.00252000
P        2.67460546       4.21174967       2.84159101       0.00000000 NULL       0.03880400      -0.07309800      -0.20993300
P        2.67460546       1.70217538       1.31112967       0.00000000 NULL       0.03880300       0.07309900       0.20993700
P        5.05573828       5.53328217       5.09849999       0.00000000 NULL       0.69929700      -0.10405900      -0.27983000
P        7.71176210       3.25431113       7.53659710       0.00000000 NULL       0.69929800       0.10405800       0.27982900
P        5.56835703       3.63403375       7.80323591       0.00000000 NULL      -0.69929700      -0.29854000      -0.00287500
P        2.91233321       5.15355955       4.83186117       0.00000000 NULL      -0.69929700       0.29853800       0.00287100
P        6.19403842       5.74950719       8.05866728       0.00000000 NULL       0.66311500       0.61754700       0.16622600
P        3.53801459       3.03808612       4.57642980       0.00000000 NULL       0.66311200      -0.61754700      -0.16622500
P        4.43005689       6.49177928       7.00159124       0.00000000 NULL      -0.66311400       0.36602000       0.52442800
P        7.08608072       2.29581403       5.63350584       0.00000000 NULL      -0.66311200      -0.36601900      -0.52442800
P        6.77600425       7.00568795       0.67996513       0.00000000 NULL       0.25588800      -0.42518100       0.12567200
P        4.11998042       7.86241896       3.29582052       0.00000000 NULL       0.25588500       0.42518200      -0.12567200
P        3.84809106       6.05837938       2.02903537       0.00000000 NULL      -0.25588700      -0.02614900      -0.44259300
P        6.50411489       8.80972752       1.94675028       0.00000000 NULL      -0.25588700       0.02614900       0.44259400
P        4.78519789       6.41352890      -0.00626717       0.00000000 NULL      -0.26104500      -0.27046300       0.07695500
P        7.44122172       8.45457801       3.98205282       0.00000000 NULL      -0.26104300       0.27046300      -0.07695700
P        5.83889742       5.21186141       1.70503778       0.00000000 NULL       0.26104500      -0.01944300      -0.28052500
P        8.49492125       9.65624550       2.27074787       0.00000000 NULL       0.26104600       0.01944200       0.28052600
20
Lattice="5.3587057118902175 5.900393883857893e-17 -1.0851235054862899e-16 2.6793528559451087 8.960577525537278 -0.2535928729314278 2.679352855945108 2.803735322025464 8.514418781126057" Properties=species:S:1:pos:R:3:initial_magmoms:R:1:castep_labels:S:1:forces:R:3 n_minim_iter=9 energy=-103.217405750415 stress="-0.0253175701155682 -0.0 -0.0 -0.0 -0.012326128504496912 0.0024510247290755096 -0.0 0.0024510247290755096 -0.0140955792872475" free_energy=-103.217405750415 pbc="T T T"
P        5.32649069       9.94099797       7.08395489       0.00000000 NULL      -0.04553400      -0.04403700       0.03036300
P        5.32649069       7.70547130       5.30728397       0.00000000 NULL      -0.04553300       0.04404200      -0.03036400
P        2.71156788       4.15614580       2.81497011       0.00000000 NULL       0.04553300       0.01360700      -0.05173500
P        2.71156788       1.72601061       1.31544284       0.00000000 NULL       0.04553300      -0.01360700       0.05173400
P        5.09759692       5.50091968       5.10080865       0.00000000 NULL       0.49620500      -0.07656700      -0.30384400
P        7.77694978       3.18497206       7.54402308       0.00000000 NULL       0.49620500       0.07656300       0.30384300
P        5.61981450       3.58705338       7.82636203       0.00000000 NULL      -0.49620500      -0.31179100       0.03114200
P        2.94046165       5.09883837       4.81846970       0.00000000 NULL      -0.49620500       0.31179100      -0.03114100
P        6.24456211       5.69928825       8.09246064       0.00000000 NULL       0.45841300       0.58806900       0.06478200
P        3.56520925       2.98660349       4.55237109       0.00000000 NULL       0.45841200      -0.58807100      -0.06478000
P        4.47284932       6.46835085       6.99723201       0.00000000 NULL      -0.45841300       0.26059200       0.53114500
P        7.15220217       2.21754089       5.64759972       0.00000000 NULL      -0.45841000      -0.26059300      -0.53114300
P        6.81935187       6.99186743       0.60186439       0.00000000 NULL       0.39626600       0.02172200       0.09816500
P        4.13999901       7.85086651       3.27495568       0.00000000 NULL       0.39626300      -0.02172000      -0.09816600
P        3.89805956       6.01838983       1.98820217       0.00000000 NULL      -0.39626600       0.09971000      -0.01289800
P        6.57741242       8.82434411       1.88861790       0.00000000 NULL      -0.39626600      -0.09971000       0.01289700
P        4.82475275       6.34076680      -0.01521518       0.00000000 NULL      -0.35915500       0.00816900      -0.48118800
P        7.50410560       8.50196715       3.89203525       0.00000000 NULL      -0.35915200      -0.00816900       0.48118600
P        5.89265868       5.21690527       1.58528563       0.00000000 NULL       0.35915500      -0.44983100       0.17105400
P        8.57201153       9.62582867       2.29153444       0.00000000 NULL       0.35915600       0.44983100      -0.17105500
20
Lattice="5.35273509791153 5.243096617895238e-17 -1.1598868507591024e-16 2.676367548955765 8.958363005327572 -0.27987464554100394 2.676367548955764 2.778262818666512 8.521258901292317" Properties=species:S:1:pos:R:3:initial_magmoms:R:1:castep_labels:S:1:forces:R:3 n_minim_iter=10 energy=-103.323209913287 stress="-0.02068476995617076 0.0 0.0 0.0 -0.009006100308414368 0.0023401334599188086 0.0 0.0023401334599188086 -0.010695461825973" free_energy=-103.323209913287 pbc="T T T"
P        5.30540290       9.93182403       7.04776670       0.00000000 NULL      -0.04744400      -0.14120100       0.03872500
P        5.30540290       7.67311470       5.31430968       0.00000000 NULL      -0.04744600       0.14120100      -0.03872500
P        2.72369975       4.13283600       2.82834841       0.00000000 NULL       0.04744600      -0.01151500      -0.14596200
P        2.72369975       1.73547691       1.29234371       0.00000000 NULL       0.04744400       0.01151400       0.14596100
P        5.09677319       5.48964978       5.09451151       0.00000000 NULL       0.33331300      -0.15609100      -0.17859000
P        7.77314074       3.15692594       7.54743951       0.00000000 NULL       0.33331300       0.15609100       0.17859000
P        5.60869701       3.56567498       7.83446049       0.00000000 NULL      -0.33331300      -0.22097600      -0.08618300
P        2.93232946       5.08090075       4.80749053       0.00000000 NULL      -0.33331300       0.22097700       0.08618500
P        6.24151861       5.71463987       8.07882653       0.00000000 NULL       0.51105900       0.24693000       0.20622500
P        3.56515106       2.93193586       4.56312450       0.00000000 NULL       0.51105900      -0.24692900      -0.20622500
P        4.46395159       6.44910974       7.03286170       0.00000000 NULL      -0.51105900       0.27781200       0.16224500
P        7.14031913       2.19746599       5.60908932       0.00000000 NULL      -0.51105900      -0.27781200      -0.16224400
P        6.81098225       6.97899065       0.58055478       0.00000000 NULL       0.28768000       0.00840200       0.07421600
P        4.13461471       7.84768527       3.26026270       0.00000000 NULL       0.28768100      -0.00840300      -0.07421600
P        3.89448794       6.00560311       1.96676429       0.00000000 NULL      -0.28768000       0.07266000      -0.01729400
P        6.57085549       8.82107280       1.87405319       0.00000000 NULL      -0.28768000      -0.07266000       0.01729400
P        4.80558140       6.31205407      -0.04799473       0.00000000 NULL      -0.19595600       0.04808600      -0.36931700
P        7.48194895       8.51462184       3.88881221       0.00000000 NULL      -0.19595500      -0.04808600       0.36931600