48
Lattice="5.033445456735232 3.468991026824825e-18 0.368103778195511 1.0537277423030336e-17 17.204703139069977 4.83317673914102e-16 0.06632253318546545 -3.0697786620387767e-16 10.652827829391766" Properties=species:S:1:pos:R:3:initial_magmoms:R:1:castep_labels:S:1:forces:R:3 n_minim_iter=1 energy=-262.438871777364 stress="0.0002452436368352063 0.0 -0.00012506189174774914 0.0 0.00027926368144261954 0.0 -0.00012506189174774914 0.0 0.000118793614481863" free_energy=-262.438871777364 pbc="T T T"
P        3.71217953      10.26819287       7.25286696       0.00000000 NULL       0.01791800       0.00314600      -0.00679800
P        3.93747245       1.66584130       9.27853045       0.00000000 NULL      -0.01792000       0.00314600       0.00679800
P        1.38758846       6.93651027       3.76806465       0.00000000 NULL      -0.01791800      -0.00314600       0.00679800
P        1.16229553      15.53886184       1.74240116       0.00000000 NULL       0.01792000      -0.00314600      -0.00679800
P        1.25407369      13.76676505       7.25530343       0.00000000 NULL       0.00274900       0.01123800      -0.01216400
P        1.36213284       5.16441348       8.90799021       0.00000000 NULL      -0.00274800       0.01123800       0.01216300
P        3.84569430       3.43793809       3.76562818       0.00000000 NULL      -0.00274900      -0.01123800       0.01216400
P        3.73763515      12.04028966       2.11294140       0.00000000 NULL       0.00274800      -0.01123800      -0.01216300
P        3.72556441       6.99908582       7.29754182       0.00000000 NULL       0.02766700      -0.01262700      -0.00946200
P        3.92408757      15.60143739       9.23385560       0.00000000 NULL      -0.02767000      -0.01262700       0.00946200
P        1.37420358      10.20561732       3.72338979       0.00000000 NULL      -0.02766700       0.01262700       0.00946200
P        1.17568041       1.60326575       1.78707601       0.00000000 NULL       0.02767000       0.01262700      -0.00946300
P        1.36045142      13.55937943       3.62877857       0.00000000 NULL       0.01876000      -0.01093900       0.01118900
P        1.18943257       4.95702786       1.88168723       0.00000000 NULL      -0.01875700      -0.01093900      -0.01119000
P        3.73931657       3.64532371       7.39215304       0.00000000 NULL      -0.01876000       0.01093900      -0.01118900
P        3.91033542      12.24767528       9.13924438       0.00000000 NULL       0.01875700       0.01093900       0.01119000
P        3.74098910      13.89603284      10.68134031       0.00000000 NULL      -0.00721300      -0.00114800      -0.00402700
P        3.90866289       5.29368127       5.85005710       0.00000000 NULL       0.00721200      -0.00114800       0.00402800
P        1.35877889       3.30867030       0.33959130       0.00000000 NULL       0.00721300       0.00114800       0.00402700
P        1.19110510      11.91102187       5.17087450       0.00000000 NULL      -0.00721200       0.00114800      -0.00402800
P        1.17283767       1.68106905       8.71652017       0.00000000 NULL       0.01084100      -0.00779800       0.02689300
P        1.44336886      10.28342062       7.44677347       0.00000000 NULL      -0.01083900      -0.00779800      -0.02689300
P        3.92693032      15.52363409       2.30441144       0.00000000 NULL      -0.01084100       0.00779800      -0.02689300
P        3.65639913       6.92128252       3.57415814       0.00000000 NULL       0.01083900       0.00779800       0.02689300
P        1.44182644       3.50432678       7.37303364       0.00000000 NULL       0.00398800       0.01460900      -0.02417000
P        1.17438009      12.10667835       8.79025999       0.00000000 NULL      -0.00398600       0.01460900       0.02417000
P        3.65794155      13.70037635       3.64789797       0.00000000 NULL      -0.00398800      -0.01460900       0.02417000
P        3.92538790       5.09802479       2.23067162       0.00000000 NULL       0.00398600      -0.01460900      -0.02417000
P        1.11929831       5.25627341       5.24143585       0.00000000 NULL      -0.00534200       0.00321600       0.01428900
P        1.43058568      13.85862498       0.26902995       0.00000000 NULL       0.00534300       0.00321500      -0.01429000
P        3.98046968      11.94842973       5.77949576       0.00000000 NULL       0.00534200      -0.00321600      -0.01428900
P        3.66918231       3.34607816      10.75190166       0.00000000 NULL      -0.00534300      -0.00321500       0.01429000
P        1.45424482      17.19714232      10.90774921       0.00000000 NULL      -0.01507100      -0.02217300       0.00113400
P        1.16196171       8.59479076       5.25554442       0.00000000 NULL       0.01507100      -0.02217300      -0.00113500
P        3.64552317       0.00756081       0.11318239       0.00000000 NULL       0.01507000       0.02217400      -0.00113400
P        3.93780628       8.60991238       5.76538719       0.00000000 NULL      -0.01507100       0.02217300       0.00113500
P        3.81627468       8.55839644       2.08546112       0.00000000 NULL      -0.00891000       0.01685800      -0.00826800
P        3.76705477      -0.04395513       3.79310846       0.00000000 NULL       0.00890900       0.01685800       0.00826900
P        1.28349331       8.64630670       8.93547049       0.00000000 NULL       0.00891000      -0.01685800       0.00826800
P        1.33271322      17.24865826       7.22782315       0.00000000 NULL      -0.00890900      -0.01685800      -0.00826900
P        3.95110389       1.63597415       2.36019359       0.00000000 NULL      -0.03554800       0.00596700      -0.00326800
P        3.63222556      10.23832572       3.51837600       0.00000000 NULL       0.03554600       0.00596700       0.00326700
P        1.14866410      15.56872899       8.66073802       0.00000000 NULL       0.03554800      -0.00596700       0.00326800
P        1.46754242       6.96637742       7.50255561       0.00000000 NULL      -0.03554600      -0.00596700      -0.00326700
P        3.97404108      13.60385797       7.32230165       0.00000000 NULL       0.00754200      -0.01081500       0.03491800
P        3.67561090       5.00150640       9.20909577       0.00000000 NULL      -0.00754300      -0.01081500      -0.03491800
P        1.12572691       3.60084517       3.69862996       0.00000000 NULL      -0.00754200       0.01081500      -0.03491800
P        1.42415708      12.20319673       1.81183584       0.00000000 NULL       0.00754300       0.01081600       0.03491800
48
Lattice="5.032441297802248 3.91317080638712e-18 0.36859872201789645 1.2090999655008893e-17 17.200643269232213 4.833393336646331e-16 0.0674344950436941 -3.068385839084794e-16 10.65176550288063" Properties=species:S:1:pos:R:3:initial_magmoms:R:1:castep_labels:S:1:forces:R:3 n_minim_iter=2 energy=-262.438963222371 stress="-4.746081748774002e-05 0.0 -7.47176930088198e-05 0.0 -5.922294052311043e-05 -0.0 -7.47176930088198e-05 -0.0 -0.00013524271357274616" free_energy=-262.438963222371 pbc="T T T"
P        3.71219311      10.26577272       7.25252496       0.00000000 NULL       0.01853800       0.00211900      -0.00350000
P        3.93762057       1.66545108       9.27802138       0.00000000 NULL      -0.01854100       0.00211900       0.00350100
P        1.38768268       6.93487055       3.76783926       0.00000000 NULL      -0.01853800      -0.00211900       0.00350000
P        1.16225522      15.53519218       1.74234285       0.00000000 NULL       0.01854100      -0.00211900      -0.00350100
P        1.25458301      13.76352675       7.25469651       0.00000000 NULL       0.00644800       0.01269100      -0.01525100
P        1.36278937       5.16320511       8.90725111       0.00000000 NULL      -0.00644700       0.01269100       0.01525100
P        3.84529278       3.43711652       3.76566772       0.00000000 NULL      -0.00644800      -0.01269100       0.01525100
P        3.73708642      12.03743816       2.11311312       0.00000000 NULL       0.00644700      -0.01269100      -0.01525100
P        3.72558887       6.99742265       7.29719430       0.00000000 NULL       0.02862700      -0.01133500      -0.00597000
P        3.92422481      15.59774428       9.23335203       0.00000000 NULL      -0.02863000      -0.01133600       0.00597100
P        1.37428692      10.20322062       3.72316992       0.00000000 NULL      -0.02862700       0.01133500       0.00597000
P        1.17565098       1.60289899       1.78701219       0.00000000 NULL       0.02863000       0.01133600      -0.00597100
P        1.36057015      13.55616974       3.62856833       0.00000000 NULL       0.01588400      -0.00643400       0.01292400
P        1.18936774       4.95584810       1.88161378       0.00000000 NULL      -0.01588200      -0.00643400      -0.01292500
P        3.73930564       3.64447353       7.39179589       0.00000000 NULL      -0.01588400       0.00643400      -0.01292400
P        3.91050805      12.24479517       9.13875044       0.00000000 NULL       0.01588200       0.00643400       0.01292500
P        3.74133598      13.89275268      10.68065974       0.00000000 NULL      -0.00531400      -0.00149100      -0.00154200
P        3.90847771       5.29243105       5.84988660       0.00000000 NULL       0.00530900      -0.00149000       0.00154400
P        1.35853981       3.30789059       0.33970449       0.00000000 NULL       0.00531400       0.00149100       0.00154200
P        1.19139808      11.90821222       5.17047763       0.00000000 NULL      -0.00530900       0.00149000      -0.00154400
P        1.17352565       1.68066522       8.71579378       0.00000000 NULL       0.01238900      -0.00714900       0.02798500
P        1.44384674      10.28098685       7.44615384       0.00000000 NULL      -0.01238800      -0.00714900      -0.02798500
P        3.92635014      15.51997805       2.30457044       0.00000000 NULL      -0.01238900       0.00714900      -0.02798500
P        3.65602905       6.91965642       3.57421039       0.00000000 NULL       0.01238800       0.00714900       0.02798500
P        1.44231043       3.50351324       7.37242375       0.00000000 NULL       0.00258100       0.01306200      -0.02670900
P        1.17506196      12.10383487       8.78952387       0.00000000 NULL      -0.00257900       0.01306200       0.02670900
P        3.65756536      13.69713003       3.64794048       0.00000000 NULL      -0.00258100      -0.01306200       0.02670900
P        3.92481383       5.09680840       2.23084036       0.00000000 NULL       0.00257900      -0.01306200      -0.02670900
P        1.11961534       5.25503601       5.24104109       0.00000000 NULL      -0.00330600       0.00261400       0.01632800
P        1.43032255      13.85535764       0.26914103       0.00000000 NULL       0.00331200       0.00261300      -0.01633100
P        3.98026045      11.94560726       5.77932314       0.00000000 NULL       0.00330600      -0.00261400      -0.01632800
P        3.66955324       3.34528562      10.75122320       0.00000000 NULL      -0.00331200      -0.00261300       0.01633000
P        1.45508230      17.19306392      10.90680900       0.00000000 NULL      -0.01587700      -0.02212700      -0.00169900
P        1.16229009       8.59274229       5.25513862       0.00000000 NULL       0.01588200      -0.02212600       0.00169600
P        3.64479349       0.00757935       0.11355523       0.00000000 NULL       0.01587700       0.02212700       0.00169900
P        3.93758570       8.60790098       5.76522561       0.00000000 NULL      -0.01588200       0.02212600      -0.00169600
P        3.81569606       8.55639233       2.08564748       0.00000000 NULL      -0.00821300       0.01657100      -0.01294000
P        3.76668313      -0.04392931       3.79313336       0.00000000 NULL       0.00821200       0.01657000       0.01294000
P        1.28417973       8.64425094       8.93471675       0.00000000 NULL       0.00821300      -0.01657100       0.01294000
P        1.33319266      17.24457258       7.22723087       0.00000000 NULL      -0.00821200      -0.01657000      -0.01294000
P        3.95050195       1.63559357       2.36037119       0.00000000 NULL      -0.03732300       0.00690600      -0.00459000
P        3.63187724      10.23591520       3.51840964       0.00000000 NULL       0.03732100       0.00690500       0.00459000
P        1.14937384      15.56504970       8.65999303       0.00000000 NULL       0.03732300      -0.00690600       0.00459100
P        1.46799855       6.96472807       7.50195458       0.00000000 NULL      -0.03732100      -0.00690500      -0.00459000
P        3.97399823      13.60063790       7.32201858       0.00000000 NULL       0.00541400      -0.00641300       0.03345700
P        3.67581545       5.00031627       9.20852776       0.00000000 NULL      -0.00541500      -0.00641300      -0.03345600
P        1.12587756       3.60000537       3.69834565       0.00000000 NULL      -0.00541400       0.00641300      -0.03345700
P        1.42406034      12.20032700       1.81183646       0.00000000 NULL       0.00541500       0.00641300       0.03345600
48
Lattice="5.032073870012725 4.208980666710346e-18 0.3712268654443555 1.3285545261185877e-17 17.19889894227998 4.840397844264234e-16 0.07264650857200512 -3.0647686835646187e-16 10.656488097376272" Properties=species:S:1:pos:R:3:initial_magmoms:R:1:castep_labels:S:1:forces:R:3 n_minim_iter=3 energy=-262.439123186666 stress="-0.00010930621658178837 0.0 0.00010906755672025607 0.0 3.681870772911767e-05 0.0 0.00010906755672025607 0.0 0.000183128051023935" free_energy=-262.439123186666 pbc="T T T"
P        3.71545599      10.26474616       7.25751076       0.00000000 NULL       0.01618500       0.00219300      -0.00764800
P        3.94162458       1.66529669       9.28406168       0.00000000 NULL      -0.01618300       0.00219300       0.00764800
P        1.38926439       6.93415278       3.77020420       0.00000000 NULL      -0.01618500      -0.00219300       0.00764800
P        1.16309580      15.53360225       1.74365328       0.00000000 NULL       0.01618300      -0.00219300      -0.00764800
P        1.25803568      13.76220717       7.25841547       0.00000000 NULL       0.01002800       0.01201200      -0.01126500
P        1.36697102       5.16275770       8.91193011       0.00000000 NULL      -0.01002800       0.01201200       0.01126500
P        3.84668470       3.43669177       3.76929949       0.00000000 NULL      -0.01002800      -0.01201200       0.01126500
P        3.73774936      12.03614124       2.11578486       0.00000000 NULL       0.01002800      -0.01201200      -0.01126500
P        3.72893388       6.99664134       7.30219087       0.00000000 NULL       0.02515900      -0.00947600      -0.01029200
P        3.92814668      15.59609082       9.23938158       0.00000000 NULL      -0.02515700      -0.00947600       0.01029200
P        1.37578649      10.20225760       3.72552410       0.00000000 NULL      -0.02515900       0.00947600       0.01029200
P        1.17657369       1.60280813       1.78833339       0.00000000 NULL       0.02515700       0.00947500      -0.01029200
P        1.36230198      13.55474901       3.63090988       0.00000000 NULL       0.01405100      -0.00634200       0.01273300
P        1.19005821       4.95529954       1.88294760       0.00000000 NULL      -0.01405200      -0.00634200      -0.01273300
P        3.74241840       3.64414993       7.39680508       0.00000000 NULL      -0.01405100       0.00634200      -0.01273300
P        3.91466217      12.24359940       9.14476737       0.00000000 NULL       0.01405200       0.00634200       0.01273300
P        3.74612664      13.89133510      10.68718221       0.00000000 NULL      -0.00528400      -0.00172800      -0.00590300
P        3.91095393       5.29188563       5.85439023       0.00000000 NULL       0.00528800      -0.00172900       0.00590200
P        1.35859374       3.30756384       0.34053275       0.00000000 NULL       0.00528400       0.00172800       0.00590300
P        1.19376645      11.90701331       5.17332473       0.00000000 NULL      -0.00528800       0.00172900      -0.00590200
P        1.17774290       1.68044980       8.72037719       0.00000000 NULL       0.01257900      -0.00667400       0.02217000
P        1.44726379      10.27989927       7.44996839       0.00000000 NULL      -0.01257900      -0.00667400      -0.02217000
P        3.92697748      15.51844914       2.30733778       0.00000000 NULL      -0.01257900       0.00667400      -0.02217000
P        3.65745658       6.91899967       3.57774657       0.00000000 NULL       0.01258000       0.00667400       0.02217000
P        1.44578361       3.50324064       7.37621506       0.00000000 NULL       0.00495100       0.01213900      -0.01923000
P        1.17922308      12.10269011       8.79413052       0.00000000 NULL      -0.00495200       0.01213900       0.01922900
P        3.65893676      13.69565831       3.65149990       0.00000000 NULL      -0.00495100      -0.01213900       0.01923000
P        3.92549729       5.09620884       2.23358444       0.00000000 NULL       0.00495200      -0.01213900      -0.01922900
P        1.12203834       5.25452005       5.24399498       0.00000000 NULL      -0.00309900       0.00013000       0.00953600
P        1.43032185      13.85396952       0.26986251       0.00000000 NULL       0.00309500       0.00013000      -0.00953600
P        3.98268204      11.94437889       5.78371999       0.00000000 NULL       0.00309900      -0.00013000      -0.00953600
P        3.67439853       3.34492942      10.75785246       0.00000000 NULL      -0.00309500      -0.00013000       0.00953500
P        1.46017140      17.19118390      10.91231726       0.00000000 NULL      -0.01422900      -0.02002400       0.00144500
P        1.16483529       8.59173443       5.25802832       0.00000000 NULL       0.01422600      -0.02002400      -0.00144500
P        3.64454897       0.00771504       0.11539771       0.00000000 NULL       0.01422900       0.02002400      -0.00144500
P        3.93988508       8.60716451       5.76968664       0.00000000 NULL      -0.01422600       0.02002400       0.00144500
P        3.81625084       8.55562717       2.08836207       0.00000000 NULL      -0.00612100       0.01523200      -0.00607100
P        3.76818322      -0.04382230       3.79672228       0.00000000 NULL       0.00612100       0.01523200       0.00607100
P        1.28846954       8.64327177       8.93935290       0.00000000 NULL       0.00612100      -0.01523200       0.00607100
P        1.33653716      17.24272124       7.23099268       0.00000000 NULL      -0.00612100      -0.01523200      -0.00607100
P        3.95100071       1.63546895       2.36331948       0.00000000 NULL      -0.03576600       0.00734200      -0.00049600
P        3.63343335      10.23491842       3.52176487       0.00000000 NULL       0.03576700       0.00734300       0.00049600
P        1.15371967      15.56342999       8.66439549       0.00000000 NULL       0.03576600      -0.00734200       0.00049500
P        1.47128703       6.96398052       7.50595009       0.00000000 NULL      -0.03576700      -0.00734300      -0.00049600
P        3.97718975      13.59921294       7.32739788       0.00000000 NULL       0.00676200      -0.00737900       0.03515500
P        3.67989082       4.99976347       9.21417456       0.00000000 NULL      -0.00676100      -0.00737900      -0.03515500
P        1.12753063       3.59968600       3.70031708       0.00000000 NULL      -0.00676200       0.00737900      -0.03515500
P        1.42482956      12.19913547       1.81354040       0.00000000 NULL       0.00676100       0.00737900       0.03515500
48
Lattice="5.03452036329994 4.387960067232564e-18 0.37203264280352477 1.395374921959106e-17 17.19478074858234 4.839923432336804e-16 0.07452822989689294 -3.0637095560270547e-16 10.65451724951137" Properties=species:S:1:pos:R:3:initial_magmoms:R:1:castep_labels:S:1:forces:R:3 n_minim_iter=4 energy=-262.439364453772 stress="0.0004588234704097012 0.0 0.00019572432741334463 0.0 -0.00026269777958038944 -0.0 0.00019572432741334463 -0.0 -3.9702435201066415e-05" free_energy=-262.439364453772 pbc="T T T"
P        3.71873284      10.26232186       7.25672577       0.00000000 NULL       0.00695100       0.00152400      -0.00236300
P        3.94484005       1.66493149       9.28309907       0.00000000 NULL      -0.00695300       0.00152300       0.00236300
P        1.39031575       6.93245889       3.76982413       0.00000000 NULL      -0.00695100      -0.00152400       0.00236300
P        1.16420854      15.52984926       1.74345082       0.00000000 NULL       0.00695300      -0.00152300      -0.00236300
P        1.25999752      13.75909296       7.25708526       0.00000000 NULL       0.00659400       0.00913400      -0.01181400
P        1.36905500       5.16170259       8.91070693       0.00000000 NULL      -0.00659300       0.00913400       0.01181300
P        3.84905107       3.43568779       3.76946463       0.00000000 NULL      -0.00659400      -0.00913400       0.01181400
P        3.73999359      12.03307816       2.11584296       0.00000000 NULL       0.00659300      -0.00913400      -0.01181300
P        3.73236720       6.99480649       7.30136223       0.00000000 NULL       0.01261100      -0.00569500      -0.00444400
P        3.93120568      15.59219687       9.23846261       0.00000000 NULL      -0.01261400      -0.00569400       0.00444500
P        1.37668139      10.19997426       3.72518767       0.00000000 NULL      -0.01261100       0.00569500       0.00444400
P        1.17784291       1.60258388       1.78808728       0.00000000 NULL       0.01261400       0.00569400      -0.00444500
P        1.36380637      13.55140079       3.63065804       0.00000000 NULL       0.01841100       0.00049400       0.01399400
P        1.19071792       4.95401041       1.88261691       0.00000000 NULL      -0.01840900       0.00049400      -0.01399500
P        3.74524222       3.64337996       7.39589185       0.00000000 NULL      -0.01841100      -0.00049400      -0.01399400
P        3.91833067      12.24077033       9.14393299       0.00000000 NULL       0.01840900      -0.00049400       0.01399500
P        3.74967084      13.88798619      10.68579307       0.00000000 NULL      -0.01139600      -0.00058400       0.00039900
P        3.91390205       5.29059582       5.85403177       0.00000000 NULL       0.01139100      -0.00058400      -0.00039800
P        1.35937776       3.30679456       0.34075682       0.00000000 NULL       0.01139600       0.00058400      -0.00039900
P        1.19514654      11.90418493       5.17251812       0.00000000 NULL      -0.01139100       0.00058400       0.00039800
P        1.17999386       1.67994329       8.71933889       0.00000000 NULL       0.00530400      -0.00482900       0.01958600
P        1.44905866      10.27733366       7.44845331       0.00000000 NULL      -0.00530200      -0.00482900      -0.01958600
P        3.92905473      15.51483746       2.30721100       0.00000000 NULL      -0.00530400       0.00482900      -0.01958600
P        3.65998993       6.91744709       3.57809659       0.00000000 NULL       0.00530200       0.00482900       0.01958600
P        1.44780001       3.50259242       7.37474428       0.00000000 NULL       0.00962600       0.01074900      -0.01645900
P        1.18125251      12.09998279       8.79304792       0.00000000 NULL      -0.00962500       0.01074800       0.01645900
P        3.66124858      13.69218833       3.65180562       0.00000000 NULL      -0.00962600      -0.01074900       0.01645900
P        3.92779608       5.09479795       2.23350197       0.00000000 NULL       0.00962500      -0.01074800      -0.01645900
P        1.12342736       5.25328797       5.24341444       0.00000000 NULL      -0.00852200      -0.00183400       0.01023500
P        1.43109694      13.85067834       0.26986051       0.00000000 NULL       0.00852600      -0.00183400      -0.01023500
P        3.98562123      11.94149278       5.78313545       0.00000000 NULL       0.00852200       0.00183400      -0.01023500
P        3.67795166       3.34410241      10.75668939       0.00000000 NULL      -0.00852600       0.00183400       0.01023500
P        1.46253015      17.18675223      10.91053701       0.00000000 NULL      -0.00448100      -0.01573100      -0.00269400
P        1.16652238       8.58936186       5.25725518       0.00000000 NULL       0.00448400      -0.01573300       0.00269400
P        3.64651845       0.00802852       0.11601288       0.00000000 NULL       0.00448100       0.01573100       0.00269400
P        3.94252621       8.60541889       5.76929471       0.00000000 NULL      -0.00448400       0.01573300      -0.00269400
P        3.81830813       8.55381646       2.08849149       0.00000000 NULL      -0.00447700       0.01250800      -0.00784500
P        3.77073653      -0.04357392       3.79681610       0.00000000 NULL       0.00447700       0.01250900       0.00784500
P        1.29074046       8.64096429       8.93805840       0.00000000 NULL       0.00447700      -0.01250800       0.00784500
P        1.33831206      17.23835466       7.22973380       0.00000000 NULL      -0.00447700      -0.01250900      -0.00784500
P        3.95274088       1.63518003       2.36352291       0.00000000 NULL      -0.02437800       0.00825700      -0.00339600
P        3.63630377      10.23257040       3.52178468       0.00000000 NULL       0.02437600       0.00825900       0.00339700
P        1.15630771      15.55960072       8.66302698       0.00000000 NULL       0.02437800      -0.00825700       0.00339600
P        1.47274482       6.96221035       7.50476521       0.00000000 NULL      -0.02437600      -0.00825900      -0.00339700
P        3.98043449      13.59584878       7.32723212       0.00000000 NULL       0.01166200      -0.00262100       0.03106700
P        3.68313840       4.99845840       9.21259272       0.00000000 NULL      -0.01166300      -0.00262100      -0.03106600
P        1.12861410       3.59893197       3.69931777       0.00000000 NULL      -0.01166200       0.00262100      -0.03106700
P        1.42591019      12.19632235       1.81395718       0.00000000 NULL       0.01166300       0.00262100       0.03106600
48
Lattice="5.031577083176175 5.9159891660742864e-18 0.36973298832974777 2.5608877397466907e-17 17.205382257117446 3.8617074234464423e-16 0.06999840958173391 -3.65961012245995e-16 10.649376238750643" Properties=species:S:1:pos:R:3:initial_magmoms:R:1:castep_labels:S:1:forces:R:3 n_minim_iter=5 energy=-262.440367846507 stress="-1.063514183292874e-06 -0.0 5.63011386012595e-05 -0.0 0.00012239094856303096 -0.0 5.63011386012595e-05 -0.0 -9.484810165285429e-05" free_energy=-262.440367846507 pbc="T T T"
P        3.71475127      10.26879915       7.25132847       0.00000000 NULL       0.00125400       0.00732900       0.00393100
P        3.93761197       1.66610802       9.27733537       0.00000000 NULL      -0.00125400       0.00733000      -0.00393200
P        1.38682422       6.93658311       3.76778076       0.00000000 NULL      -0.00125400      -0.00732900      -0.00393100
P        1.16396352      15.53927424       1.74177386       0.00000000 NULL       0.00125400      -0.00733000       0.00393200
P        1.25673894      13.76839421       7.25216883       0.00000000 NULL       0.00966300      -0.00061700       0.00234300
P        1.36404721       5.16570308       8.90676202       0.00000000 NULL      -0.00966300      -0.00061700      -0.00234300
P        3.84483655       3.43698805       3.76694039       0.00000000 NULL      -0.00966300       0.00061700      -0.00234300
P        3.73752828      12.03967918       2.11234721       0.00000000 NULL       0.00966300       0.00061700       0.00234300
P        3.72899188       6.99841413       7.29576660       0.00000000 NULL      -0.00622700       0.00228100       0.00222400
P        3.92337136      15.60110526       9.23289724       0.00000000 NULL       0.00622600       0.00228000      -0.00222500
P        1.37258362      10.20696813       3.72334262       0.00000000 NULL       0.00622700      -0.00228100      -0.00222400
P        1.17820413       1.60427700       1.78621199       0.00000000 NULL      -0.00622600      -0.00228000       0.00222500
P        1.36260067      13.55932974       3.62921499       0.00000000 NULL       0.00849000       0.01008500       0.01826300
P        1.18818708       4.95663861       1.88033962       0.00000000 NULL      -0.00849000       0.01008500      -0.01826300
P        3.73897483       3.64605252       7.38989424       0.00000000 NULL      -0.00849000      -0.01008500      -0.01826300
P        3.91338841      12.24874365       9.13876961       0.00000000 NULL       0.00849000      -0.01008500       0.01826300
P        3.74268007      13.89644978      10.67887685       0.00000000 NULL       0.00005000       0.00532700       0.01314800
P        3.90968317       5.29375865       5.84978699       0.00000000 NULL      -0.00005300       0.00532800      -0.01314800
P        1.35889543       3.30893248       0.34023238       0.00000000 NULL      -0.00005000      -0.00532700      -0.01314800
P        1.19189232      11.91162360       5.16932223       0.00000000 NULL       0.00005300      -0.00532800       0.01314800
P        1.17646292       1.68051181       8.71637676       0.00000000 NULL       0.00385800      -0.00245700      -0.00730000
P        1.44432324      10.28320294       7.44255409       0.00000000 NULL      -0.00385800      -0.00245700       0.00730000
P        3.92511257      15.52487044       2.30273247       0.00000000 NULL      -0.00385800       0.00245700       0.00730000
P        3.65725226       6.92217932       3.57655514       0.00000000 NULL       0.00385800       0.00245700      -0.00730000