12
Lattice="7.108308542381579 -5.323772804668436e-14 3.617510384747787e-40 -3.5541542711907437 6.155975775640408 -4.5053276244294964e-38 -2.3941328743210674e-40 3.429155168361537e-38 4.70440533741212" Properties=species:S:1:pos:R:3:initial_magmoms:R:1:castep_labels:S:1:forces:R:3 n_minim_iter=1 energy=-63.530082931044 stress="-0.001864245497303508 4.857715551771916e-08 -0.0 4.857715551771916e-08 -0.001864245497303508 0.0 -0.0 0.0 -0.0013826515775008403" free_energy=-63.530082931044 pbc="T T T"
P        1.67527123       1.94628191       3.91743014       0.00000000 NULL      -0.04761000      -0.12083300      -0.07197900
P        4.40204824       3.73200738       0.78115991       0.00000000 NULL      -0.08083700       0.10164800      -0.07197600
P        4.58514335       0.47768649       2.34929503       0.00000000 NULL       0.12844800       0.01918400      -0.07197600
P        1.07663025       4.20684431       4.47909689       0.00000000 NULL       0.07819900       0.05382300       0.09655400
P        6.65907319       3.12016447       1.34282666       0.00000000 NULL       0.00750900      -0.09463400       0.09655600
P        2.92675938      -1.17103301       2.91096177       0.00000000 NULL      -0.08571100       0.04081300       0.09655500
P       -0.18824479       0.93061817       4.76020420       0.00000000 NULL       0.03121400      -0.03026900       0.00357800
P       -2.65409289       5.85369145       1.62393398       0.00000000 NULL      -0.04182300      -0.01190000       0.00357800
P        2.84233769       5.52764192       3.19206909       0.00000000 NULL       0.01060800       0.04216900       0.00357600
P       -2.15360741       2.67396758       2.75466990       0.00000000 NULL      -0.01989500      -0.01052100      -0.02815700
P       -0.16162671       6.68407072       4.32280501       0.00000000 NULL       0.00083600       0.02249000      -0.02815600
P        2.31523413       2.95391325       1.18653479       0.00000000 NULL       0.01906100      -0.01197000      -0.02815200
12
Lattice="7.120798625665545 -5.3185836424397584e-14 3.622612719037389e-40 -3.560399312832727 6.166792505059705 -4.5132690633393986e-38 -2.3980708301859938e-40 3.4335993733401825e-38 4.710534694774596" Properties=species:S:1:pos:R:3:initial_magmoms:R:1:castep_labels:S:1:forces:R:3 n_minim_iter=2 energy=-63.531222266884 stress="0.0005537310105650526 0.0 -0.0 0.0 0.0005537793544633034 0.0 -0.0 0.0 0.000742030494252051" free_energy=-63.531222266884 pbc="T T T"
P        1.67799669       1.94914802       3.92220446       0.00000000 NULL      -0.04290500      -0.11827900      -0.03827600
P        4.40941267       3.73903073       0.78184800       0.00000000 NULL      -0.08097900       0.09629500      -0.03827700
P        4.59378858       0.47861375       2.35202623       0.00000000 NULL       0.12388300       0.02198200      -0.03827700
P        1.07888037       4.21448284       4.48537496       0.00000000 NULL       0.07296000       0.03663000       0.10327400
P        6.67080833       3.12521328       1.34501850       0.00000000 NULL      -0.00475800      -0.08150100       0.10327300
P        2.93150924      -1.17290362       2.91519673       0.00000000 NULL      -0.06820200       0.04487100       0.10327400
P       -0.18843251       0.93211466       4.76642265       0.00000000 NULL       0.05336400      -0.03741300       0.00026300
P       -2.65894808       5.86392251       1.62606618       0.00000000 NULL      -0.05908200      -0.02750900       0.00026600
P        2.84738059       5.53754783       3.19624441       0.00000000 NULL       0.00571800       0.06492400       0.00026700
P       -2.15748271       2.67861782       2.75812999       0.00000000 NULL      -0.00128800      -0.01016800      -0.06526200
P       -0.16190687       6.69591843       4.32830822       0.00000000 NULL      -0.00816200       0.00619900      -0.06526300
P        2.31938959       2.95904875       1.18795176       0.00000000 NULL       0.00945000       0.00396800      -0.06526300
12
Lattice="7.139901616755844 -5.1521342929723666e-14 3.6310579339475785e-40 -3.569950808377879 6.183336180632172 -4.525402291105397e-38 -2.3862032234528347e-40 3.4153513570973314e-38 4.685534396501881" Properties=species:S:1:pos:R:3:initial_magmoms:R:1:castep_labels:S:1:forces:R:3 n_minim_iter=3 energy=-63.540663528643 stress="0.0006986405063409812 0.0 -0.0 0.0 0.0006985921642079655 -0.0 -0.0 -0.0 -0.0018223533882878473" free_energy=-63.540663528643 pbc="T T T"
P        1.67603866       1.93697560       3.89453525       0.00000000 NULL       0.02426800      -0.02843900      -0.04082900
P        4.40940156       3.76335633       0.77084565       0.00000000 NULL      -0.03676100      -0.00679700      -0.04082600
P        4.62441221       0.48300425       2.33269045       0.00000000 NULL       0.01249600       0.03523600      -0.04082700
P        1.09265171       4.23181746       4.47628482       0.00000000 NULL      -0.00867900       0.03672600       0.02283800
P        6.68848639       3.12116331       1.35259523       0.00000000 NULL       0.03614200      -0.01084700       0.02284000
P        2.92871434      -1.16964460       2.91444003       0.00000000 NULL      -0.02746700      -0.02587900       0.02283800
P       -0.18199512       0.92942086       4.74129223       0.00000000 NULL      -0.02205600       0.04788600       0.04205400
P       -2.67405117       5.87623814       1.61760263       0.00000000 NULL       0.05249500      -0.00484200       0.04205300
P        2.85604629       5.56101335       3.17944743       0.00000000 NULL      -0.03044000      -0.04304400       0.04204900
P       -2.16418437       2.68430259       2.73546287       0.00000000 NULL      -0.01667200      -0.02125400      -0.02406600
P       -0.16318438       6.71542353       4.29730766       0.00000000 NULL      -0.01007000       0.02506700      -0.02406300
P        2.32736876       2.96694623       1.17361807       0.00000000 NULL       0.02674400      -0.00381200      -0.02406100
12
Lattice="7.1269470804658 -5.224979709347896e-14 3.6350718728590377e-40 -3.563473540232856 6.172117223110747 -4.516979942405462e-38 -2.3885915334007584e-40 3.4294801547385077e-38 4.704627273240513" Properties=species:S:1:pos:R:3:initial_magmoms:R:1:castep_labels:S:1:forces:R:3 n_minim_iter=4 energy=-63.542151732858 stress="-0.0001923181161411855 -0.0 0.0 -0.0 -0.0001923181161411855 -0.0 0.0 -0.0 7.702388872589188e-05" free_energy=-63.542151732858 pbc="T T T"
P        1.67233414       1.93038394       3.90880483       0.00000000 NULL       0.01506300       0.01733000      -0.02900300
P        4.39906801       3.75864141       0.77238664       0.00000000 NULL       0.00747600      -0.02171000      -0.02900100
P        4.61901848       0.48309187       2.34059574       0.00000000 NULL      -0.02253700       0.00438000      -0.02900100
P        1.09222857       4.22556453       4.49712539       0.00000000 NULL      -0.00359200       0.03061400       0.01158300
P        6.67680549       3.11343727       1.36070721       0.00000000 NULL       0.02830800      -0.01219600       0.01158400
P        2.92138657      -1.16688458       2.92891630       0.00000000 NULL      -0.02471700      -0.01841800       0.01158300
P       -0.18088201       0.92758350       4.76120581       0.00000000 NULL      -0.04057000       0.04308000       0.04329300
P       -2.66972166       5.86497389       1.62478763       0.00000000 NULL       0.05759300       0.01359600       0.04329100
P        2.85060367       5.55167706       3.19299672       0.00000000 NULL      -0.01702400      -0.05667700       0.04328900
P       -2.16061721       2.67890945       2.74501571       0.00000000 NULL      -0.02780600       0.00584900      -0.02587300
P       -0.16316129       6.70381189       4.31322480       0.00000000 NULL       0.01896900       0.02115700      -0.02587200
P        2.32377851       2.96151310       1.17680662       0.00000000 NULL       0.00883800      -0.02700500      -0.02587200
12
Lattice="7.123289164998114 -5.2260313227593304e-14 3.6324790521476134e-40 -3.561644582499013 6.168949375390834 -4.514675568089399e-38 -2.3836304056308504e-40 3.4216821550417257e-38 4.693948076813389" Properties=species:S:1:pos:R:3:initial_magmoms:R:1:castep_labels:S:1:forces:R:3 n_minim_iter=5 energy=-63.545854170786 stress="-0.00012634102409041692 -0.0 -0.0 -0.0 -0.00012634102409041692 -0.0 -0.0 -0.0 -8.217499456379765e-05" free_energy=-63.545854170786 pbc="T T T"
P        1.67341977       1.92591802       3.88918385       0.00000000 NULL      -0.05436700       0.02075800      -0.00351800
P        4.39282864       3.75676633       0.75988513       0.00000000 NULL       0.04515900       0.03670500      -0.00351700
P        4.61868535       0.48626502       2.32453449       0.00000000 NULL       0.00920900      -0.05746200      -0.00351800
P        1.09487244       4.23440437       4.49661098       0.00000000 NULL       0.00212000       0.04031900      -0.02012400
P        6.68131012       3.10355984       1.36731226       0.00000000 NULL       0.03385800      -0.02199500      -0.02012400
P        2.90875119      -1.16901484       2.93196162       0.00000000 NULL      -0.03597800      -0.01832500      -0.02012500
P       -0.18853615       0.93716622       4.76250286       0.00000000 NULL       0.02580500      -0.00433300       0.01290300
P       -2.65576675       5.86364336       1.63320414       0.00000000 NULL      -0.01665600      -0.02018000       0.01290200
P        2.84430291       5.53708917       3.19785350       0.00000000 NULL      -0.00915100       0.02451200       0.01290100
P       -2.16712601       2.67780911       2.72773457       0.00000000 NULL      -0.01442200       0.00843700       0.01073900
P       -0.15903086       6.70683100       4.29238393       0.00000000 NULL       0.01451800       0.00827200       0.01074100
P        2.32615688       2.95325864       1.16308521       0.00000000 NULL      -0.00009600      -0.01670700       0.01073900
12
Lattice="7.1171046542008485 -5.300847878674842e-14 3.629298300785849e-40 -3.558552327100379 6.163593431930423 -4.510756610074464e-38 -2.3834237932193965e-40 3.421348183799989e-38 4.6934909376352225" Properties=species:S:1:pos:R:3:initial_magmoms:R:1:castep_labels:S:1:forces:R:3 n_minim_iter=6 energy=-63.547097681622 stress="-7.819744445270814e-05 4.856984127497401e-08 -4.856984127497401e-08 4.856984127497401e-08 -7.824601429398312e-05 0.0 -4.856984127497401e-08 0.0 -1.4765231747592098e-05" free_energy=-63.547097681622 pbc="T T T"
P        1.66586475       1.92586770       3.88499381       0.00000000 NULL      -0.00420700       0.01373700       0.00455100
P        4.39347030       3.75797839       0.75599986       0.00000000 NULL       0.01400100      -0.00322500       0.00455100
P        4.61632193       0.47974734       2.32049683       0.00000000 NULL      -0.00979400      -0.01051000       0.00454900
P        1.09504569       4.23943207       4.49676200       0.00000000 NULL       0.01477800       0.00027000       0.00411200
P        6.68248536       3.09554001       1.36776804       0.00000000 NULL      -0.00715500      -0.01293400       0.00411200
P        2.89812594      -1.17137865       2.93226502       0.00000000 NULL      -0.00762400       0.01266000       0.00411100
P       -0.18762821       0.93928869       4.76777489       0.00000000 NULL      -0.00190500      -0.01342800       0.00707000
P       -2.65129035       5.85643989       1.63878093       0.00000000 NULL      -0.01068100       0.00836100       0.00707300
P        2.83891857       5.53145829       3.20327791       0.00000000 NULL       0.01258600       0.00506500       0.00707100
P       -2.16950496       2.67658900       2.72495539       0.00000000 NULL       0.01414400      -0.01967000      -0.01573500
P       -0.15580577       6.70414533       4.28945237       0.00000000 NULL      -0.02410700      -0.00241000      -0.01573200
P        2.32531073       2.94645252       1.16045841       0.00000000 NULL       0.00996400       0.02208300      -0.01573400
12
Lattice="7.116579524873782 -5.305782312391098e-14 3.629407738718069e-40 -3.558289762436846 6.163138656592911 -4.510415005605274e-38 -2.3854134222610512e-40 3.424553982586345e-38 4.697879274174033" Properties=species:S:1:pos:R:3:initial_magmoms:R:1:castep_labels:S:1:forces:R:3 n_minim_iter=7 energy=-63.547670160677 stress="-3.926208838589584e-05 0.0 -0.0 0.0 -3.926208838589584e-05 -0.0 -0.0 -0.0 4.057244238641399e-05" free_energy=-63.547670160677 pbc="T T T"
P        1.66234289       1.93062508       3.88820799       0.00000000 NULL      -0.00677300      -0.00602600      -0.00217100
P        4.39908869       3.75819494       0.75628848       0.00000000 NULL      -0.00183000       0.00887900      -0.00216900
P        4.61343771       0.47431862       2.32224824       0.00000000 NULL       0.00860600      -0.00285500      -0.00216900
P        1.09861330       4.24313431       4.50176611       0.00000000 NULL       0.01085200       0.00099200      -0.00086100
P        6.68364522       3.09014448       1.36984659       0.00000000 NULL      -0.00457000      -0.00989400      -0.00085900
P        2.89261078      -1.17014013       2.93580635       0.00000000 NULL      -0.00628500       0.00890400      -0.00086000
P       -0.18814610       0.93776393       4.77697265       0.00000000 NULL       0.00019300       0.01779000      -0.00731200
P       -2.65208932       5.85719600       1.64505314       0.00000000 NULL       0.01530900      -0.00906300      -0.00731300
P        2.84023543       5.53131738       3.21101289       0.00000000 NULL      -0.01550500      -0.00872600      -0.00731500
P       -2.16775711       2.67188876       2.72238162       0.00000000 NULL       0.00470200      -0.01578700       0.01034200
P       -0.16048766       6.70452700       4.28834138       0.00000000 NULL      -0.01602200       0.00382200       0.01034200
P        2.32824477       2.94986155       1.15642186       0.00000000 NULL       0.01132300       0.01196400       0.01034600
12
Lattice="7.1169844917851215 -5.23604824968714e-14 3.6292667737455476e-40 -3.5584922458925163 6.1634893682258225 -4.510678556571298e-38 -2.3831129678653687e-40 3.420932474041487e-38 4.6929198310666305" Properties=species:S:1:pos:R:3:initial_magmoms:R:1:castep_labels:S:1:forces:R:3 n_minim_iter=8 energy=-63.548261472946 stress="-5.406664221614191e-05 -0.0 0.0 -0.0 -5.406664221614191e-05 0.0 0.0 0.0 -9.623182230923372e-05" free_energy=-63.548261472946 pbc="T T T"
P        1.65670833       1.93410106       3.88295404       0.00000000 NULL       0.00444000       0.00589800      -0.02320600
P        4.40511874       3.76168734       0.75434082       0.00000000 NULL       0.00288500      -0.00679400      -0.02320800
P        4.61364968       0.46770096       2.31864743       0.00000000 NULL      -0.00732900       0.00089800      -0.02320800
P        1.10627241       4.24784821       4.49688940       0.00000000 NULL       0.02219100       0.00339300      -0.00156600
P        6.68410050       3.08150526       1.36827618       0.00000000 NULL      -0.00815400      -0.02091400      -0.00156800
P        2.88510383      -1.16586410       2.93258279       0.00000000 NULL      -0.01403400       0.01751900      -0.00156700
P       -0.18915724       0.94435885       4.77417586       0.00000000 NULL      -0.01755500      -0.01330700       0.00192000
P       -2.64607486       5.85512492       1.64556264       0.00000000 NULL      -0.00274600       0.02185800       0.00192100
P        2.83523211       5.52749496       3.20986925       0.00000000 NULL       0.02030400      -0.00855200       0.00192200
P       -2.16430156       2.66073000       2.71853511       0.00000000 NULL       0.00411700       0.01114800       0.02285500
P       -0.17208169       6.70746450       4.28284172       0.00000000 NULL       0.00759500      -0.00914000       0.02285400
P        2.33638326       2.95878423       1.15422850       0.00000000 NULL      -0.01171500      -0.00200700       0.02285100
12
Lattice="7.104494205430066 -5.201820471502365e-14 3.6222773453525755e-40 -3.552247102714989 6.152672462941801 -4.50277446383045e-38 -2.3791174487119168e-40 3.4145995712289185e-38 4.684248351774304" Properties=species:S:1:pos:R:3:initial_magmoms:R:1:castep_labels:S:1:forces:R:3 n_minim_iter=9 energy=-63.549391884174 stress="-0.0002768660225891432 0.0 -0.0 0.0 -0.00027691486118900017 -0.0 -0.0 -0.0 -0.0005274080398553815" free_energy=-63.549391884174 pbc="T T T"
P        1.64459115       1.93899954       3.86644432       0.00000000 NULL      -0.00275300       0.00802200       0.01933900
P        4.40917439       3.75891497       0.74361209       0.00000000 NULL       0.00832400      -0.00162600       0.01934100
P        4.60297577       0.45475794       2.30502820       0.00000000 NULL      -0.00557100      -0.00639500       0.01934000
P        1.12584720       4.24946833       4.48785567       0.00000000 NULL       0.03068400      -0.00873200      -0.01038000
P        6.66947103       3.05292602       1.36502343       0.00000000 NULL      -0.02290400      -0.02220700      -0.01037900
P        2.86142308      -1.14972190       2.92643955       0.00000000 NULL      -0.00778000       0.03093800      -0.01038000
P       -0.19609479       0.94968691       4.76992715       0.00000000 NULL      -0.01620800       0.01464500      -0.00834900
P       -2.63174671       5.84765208       1.64709491       0.00000000 NULL       0.02078600       0.00671300      -0.00835000
P        2.82784151       5.50800593       3.20851103       0.00000000 NULL      -0.00457700      -0.02136100      -0.00835200
P       -2.15220069       2.63916502       2.71899835       0.00000000 NULL      -0.03706900       0.01239000      -0.00061000
P       -0.19056280       6.69695043       4.28041447       0.00000000 NULL       0.02926400       0.02590900      -0.00060900
P        2.34276350       2.96922947       1.15758223       0.00000000 NULL       0.00780400      -0.03829800      -0.00060900
12
Lattice="7.081535911393965 -5.193738998065708e-14 3.6106727435715775e-40 -3.5407679556969387 6.132789997078986 -4.488221673348403e-38 -2.37946338489858e-40 3.4151478371145745e-38 4.684999079160053" Properties=species:S:1:pos:R:3:initial_magmoms:R:1:castep_labels:S:1:forces:R:3 n_minim_iter=10 energy=-63.551962313763 stress="-0.0009055499959281842 0.0 -0.0 0.0 -0.0009055499959281842 -0.0 -0.0 -0.0 -0.0015443252087954085" free_energy=-63.551962313763 pbc="T T T"
P        1.62520735       1.94563116       3.86069328       0.00000000 NULL      -0.00564900       0.01490300       0.00955100
P        4.41313030       3.75250356       0.73736056       0.00000000 NULL       0.01573100      -0.00256000       0.00955200
P        4.58396622       0.43465527       2.29902692       0.00000000 NULL      -0.01008200      -0.01234400       0.00955200
P        1.16088073       4.24509643       4.48637299       0.00000000 NULL       0.01388200      -0.01881400      -0.01397300
P        6.63668895       3.00488958       1.36304027       0.00000000 NULL      -0.02323500      -0.00261500      -0.01397200
P        2.82473419      -1.11719602       2.92470663       0.00000000 NULL       0.00935300       0.02142900      -0.01397300
P       -0.20797042       0.95808027       4.77429350       0.00000000 NULL      -0.02509500       0.02192800      -0.01206400
P       -2.60706089       5.83385753       1.65096078       0.00000000 NULL       0.03153700       0.01076800      -0.01206500
P        2.81503132       5.47364219       3.21262714       0.00000000 NULL      -0.00644300      -0.03269600      -0.01206500
P       -2.14209198       2.61036498       2.72440505       0.00000000 NULL      -0.05830600       0.01023900       0.01648500
P       -0.20907957       6.68271358       4.28607141       0.00000000 NULL       0.03802100       0.04537500       0.01648500
P        2.35117156       2.97250143       1.16273869       0.00000000 NULL       0.02028600      -0.05561400       0.01648600
12
Lattice="7.050999662108603 -5.252413888537158e-14 3.5958386900996627e-40 -3.525499831054257 6.106344829461569 -4.46885321262745e-38 -2.3838805501209946e-40 3.4221137649867156e-38 4.694538208520578" Properties=species:S:1:pos:R:3:initial_magmoms:R:1:castep_labels:S:1:forces:R:3 n_minim_iter=11 energy=-63.554105527117 stress="-0.0016432715849408995 0.0 -0.0 0.0 -0.0016432715849408995 -0.0 -0.0 -0.0 -0.0027597958399144425" free_energy=-63.554105527117 pbc="T T T"
P        1.59999178       1.95459682       3.86004486       0.00000000 NULL      -0.01397000       0.00065900      -0.01510300
P        4.41823445       3.74341289       0.73035272       0.00000000 NULL       0.00755700       0.01176900      -0.01510100
P        4.55827327       0.40833511       2.29519879       0.00000000 NULL       0.00641500      -0.01242900      -0.01510100
P        1.19554881       4.22693276       4.49602675       0.00000000 NULL      -0.04570600      -0.02577500      -0.00713500
P        6.58835659       2.95750281       1.36633462       0.00000000 NULL       0.00052800       0.05247000      -0.00713300
P        2.79259411      -1.07809075       2.93118068       0.00000000 NULL       0.04517500      -0.02669400      -0.00713400
P       -0.22266287       0.96390144       4.78326836       0.00000000 NULL      -0.03286900       0.00774000      -0.02498200
P       -2.57940526       5.81722581       1.65357622       0.00000000 NULL       0.02313700       0.02459500      -0.02498300
P        2.80206814       5.43156240       3.21842229       0.00000000 NULL       0.00973100      -0.03233500      -0.02498400
P       -2.13713424       2.57731961       2.73868796       0.00000000 NULL      -0.08331300      -0.01960300       0.04721600
P       -0.22490845       6.66849757       4.30353403       0.00000000 NULL       0.02468100       0.08195400       0.04721800
P        2.36204270       2.96687248       1.17384189       0.00000000 NULL       0.05863500      -0.06235100       0.04722000
12
Lattice="6.929096262322475 -5.459096186893187e-14 3.536199959293676e-40 -3.464548131161192 6.000773388439094 -4.3915344380863203e-38 -2.403091560869112e-40 3.4517653567511963e-38 4.7351589252942965" Properties=species:S:1:pos:R:3:initial_magmoms:R:1:castep_labels:S:1:forces:R:3 n_minim_iter=12 energy=-63.569536954624 stress="-0.004911685898227229 0.0 -0.0 0.0 -0.004911685898227229 -0.0 -0.0 -0.0 -0.009436653669893246" free_energy=-63.569536954624 pbc="T T T"
P        1.50704505       1.96982113       3.86870631       0.00000000 NULL      -0.31366200      -0.12342500      -0.40385600
P        4.41694075       3.71072352       0.71193370       0.00000000 NULL       0.04994000       0.33335200      -0.40385700
P        4.46965860       0.32022873       2.29032000       0.00000000 NULL       0.26371900      -0.20992500      -0.40385700
P        1.27359492       4.12865166       4.54486121       0.00000000 NULL      -0.30032800      -0.12536600       0.26567100
P        6.40326790       2.83348201       1.38808859       0.00000000 NULL       0.04159700       0.32277500       0.26566900
P        2.71678159      -0.96136028       2.96647490       0.00000000 NULL       0.25873400      -0.19741200       0.26566900
P       -0.29442018       0.94543443       4.79305387       0.00000000 NULL       0.03384300       0.08894900      -0.04633900
P       -2.49856780       5.78303153       1.63628125       0.00000000 NULL       0.06011100      -0.07378300      -0.04633800
P        2.79298799       5.27308081       3.21466756       0.00000000 NULL      -0.09395200      -0.01516700      -0.04633800
P       -2.16705119       2.44795537       2.80879461       0.00000000 NULL       0.08942400      -0.04752500       0.18452500
P       -0.26103099       6.65351708       4.38718092       0.00000000 NULL      -0.08587100      -0.05368100       0.18452600
P        2.42808219       2.90007431       1.23040830       0.00000000 NULL      -0.00355500       0.10120700       0.18452400
12
Lattice="6.844111123188398 -5.362768898544892e-14 3.4941638564151355e-40 -3.4220555615941537 5.927174099004828 -4.337646496047837e-38 -2.419102582764738e-40 3.47572043127973e-38 4.767994881737303" Properties=species:S:1:pos:R:3:initial_magmoms:R:1:castep_labels:S:1:forces:R:3 n_minim_iter=13 energy=-63.577412483405 stress="-0.014299583901461762 -5.170106478896588e-08 0.0 -5.170106478896588e-08 -0.014299583901461762 -0.0 0.0 -0.0 -0.01945971207485408" free_energy=-63.577412483405 pbc="T T T"
P        1.43800935       1.98113246       3.87476992       0.00000000 NULL      -0.51141200      -0.50990800      -0.82616300
P        4.41876193       3.69125524       0.69610666       0.00000000 NULL      -0.18588900       0.69784900      -0.82616400
P        4.40939541       0.25478639       2.28543829       0.00000000 NULL       0.69730300      -0.18794000      -0.82616500
P        1.32448353       4.05693927       4.58819326       0.00000000 NULL      -0.61640900       0.11027800       0.48450300
P        6.27322627       2.75166808       1.40953001       0.00000000 NULL       0.40371000       0.47868700       0.48450200
P        2.66845689      -0.88143326       2.99886163       0.00000000 NULL       0.21269800      -0.58896800       0.48450300
P       -0.34345696       0.93525974       4.80434343       0.00000000 NULL       0.07126800       0.06910900      -0.10380300
P       -2.44036838       5.75698668       1.62568018       0.00000000 NULL       0.02421600      -0.09627200      -0.10380400
P        2.78382535       5.16210177       3.21501180       0.00000000 NULL      -0.09548500       0.02716500      -0.10380300
P       -2.18403587       2.36159430       2.85916797       0.00000000 NULL       0.03991100      -0.24671100       0.44546500
P       -0.28483696       6.63780750       4.44849960       0.00000000 NULL      -0.23361300       0.08879200       0.44546600
P        2.46887284       2.85494639       1.26983634       0.00000000 NULL       0.19370200       0.15792000       0.44546400
12
Lattice="6.695902587919944 -4.9866347697545934e-14 3.4193453508274203e-40 -3.347951293959929 5.798821742404663 -4.2436322449471516e-38 -2.4441052827988648e-40 3.5117906755257514e-38 4.817472370637953" Properties=species:S:1:pos:R:3:initial_magmoms:R:1:castep_labels:S:1:forces:R:3 n_minim_iter=14 energy=-63.61396616887 stress="-0.04079559981186713 5.3460358815184295e-08 -5.3460358815184295e-08 5.3460358815184295e-08 -0.04079559981186713 -0.0 -5.3460358815184295e-08 -0.0 -0.03880388068384863" free_energy=-63.61396616887 pbc="T T T"
P        1.31605119       1.99218731       3.87275432       0.00000000 NULL      -1.01763700      -1.17367000      -1.59330400
P        4.41521052       3.66299432       0.66110608       0.00000000 NULL      -0.50760400       1.46813200      -1.59330100
P        4.31259217       0.14364011       2.26693020       0.00000000 NULL       1.52524100      -0.29446700      -1.59330100
P        1.40557142       3.94508687       4.66642606       0.00000000 NULL      -1.15823100       0.72690000       0.89233900
P        6.06171104       2.60901775       1.45477781       0.00000000 NULL       1.20862100       0.63961000       0.89234200
P        2.57657143      -0.75528289       3.06060194       0.00000000 NULL      -0.05039300      -1.36650200       0.89234000
P       -0.43640065       0.91132170       4.81086957       0.00000000 NULL       0.16849100       0.11956400      -0.20786900
P       -2.34052322       5.72109494       1.59922132       0.00000000 NULL       0.01930000      -0.20570200      -0.20786700
P        2.77692388       4.96522684       3.20504545       0.00000000 NULL      -0.18779100       0.08613700      -0.20786800
P       -2.22807535       2.20173225       2.94376823       0.00000000 NULL      -0.08181300      -0.49975600       0.90882900
P       -0.32715755       6.62752547       4.54959235       0.00000000 NULL      -0.39189400       0.32073000       0.90882800
P        2.55523291       2.76838575       1.33794410       0.00000000 NULL       0.47371000       0.17902400       0.90883200
12
Lattice="6.661874099455061 -4.980729077209639e-14 3.401914145033926e-40 -3.330937049727488 5.76935220694169 -4.2219479460169553e-38 -2.451882970253712e-40 3.522716563797805e-38 4.832467490586931" Properties=species:S:1:pos:R:3:initial_magmoms:R:1:castep_labels:S:1:forces:R:3 n_minim_iter=15 energy=-63.630381035743 stress="-0.04705525727594668 0.0 -0.0 0.0 -0.04705525727594668 -0.0 -0.0 -0.0 -0.04161383125395205" free_energy=-63.630381035743 pbc="T T T"
P        1.28539926       1.99669698       3.87462190       0.00000000 NULL      -1.09282200      -1.29592500      -1.70332000
P        4.41742774       3.65781530       0.65297691       0.00000000 NULL      -0.57589400       1.59437600      -1.70331900
P        4.28998416       0.11483992       2.26379940       0.00000000 NULL       1.66871600      -0.29844800      -1.70332000
P        1.42451824       3.92137733       4.69297612       0.00000000 NULL      -1.25145900       0.89677100       0.93189400
P        6.01469032       2.57499455       1.47133112       0.00000000 NULL       1.40235500       0.63541100       0.93189800
P        2.55360259      -0.72701968       3.08215362       0.00000000 NULL      -0.15089700      -1.53218000       0.93189500
P       -0.46052302       0.90607352       4.81156168       0.00000000 NULL       0.21007200       0.15377500      -0.19656000
P       -2.31599285       5.71514008       1.58991669       0.00000000 NULL       0.02813800      -0.25881600      -0.19655700
P        2.77651587       4.91749081       3.20073919       0.00000000 NULL      -0.23820900       0.10503900      -0.19655800
P       -2.24157072       2.16484309       2.96537486       0.00000000 NULL      -0.07081500      -0.54153000       0.96798200
P       -0.33534257       6.62818785       4.57619735       0.00000000 NULL      -0.43357100       0.33209200       0.96798200