8
Lattice="4.515489999999997 1.0581346982252823e-31 -1.7806060993648114e-31 2.2577449999999986 6.320466685196624 2.5256860765841147e-14 2.2577449999999986 1.1560360543360721 6.213845810748404" Properties=species:S:1:pos:R:3:initial_magmoms:R:1:castep_labels:S:1 n_minim_iter=1 pbc="T T T"
P        4.61790289       1.92304197       1.21725884       0.00000000 NULL
P        4.41307711       5.92804673       4.54588493       0.00000000 NULL
P        6.87564789       5.92804673       4.54588493       0.00000000 NULL
P        2.15533211       1.92304197       1.21725884       0.00000000 NULL
P        4.62739220       1.09341336       3.05805474       0.00000000 NULL
P        4.40358780       4.27004554       5.69820659       0.00000000 NULL
P        6.88513720       4.27004554       5.69820659       0.00000000 NULL
P        2.14584280       1.09341336       3.05805474       0.00000000 NULL
8
Lattice="4.525973123400171 -2.5437242173360443e-18 8.509921934328972e-19 2.2629865617000857 6.331259424786608 -0.013910568128920291 2.2629865617000857 1.1443341764390926 6.227000778905394" Properties=species:S:1:pos:R:3:initial_magmoms:R:1:castep_labels:S:1 n_minim_iter=2 pbc="T T T"
P        4.62833807       1.92363971       1.21593282       0.00000000 NULL
P        4.42360817       5.92833191       4.54429914       0.00000000 NULL
P        6.89132463       5.92833191       4.54429914       0.00000000 NULL
P        2.16062161       1.92363971       1.21593282       0.00000000 NULL
P        4.63781197       1.08860422       3.06358269       0.00000000 NULL
P        4.41413427       4.26458131       5.70319008       0.00000000 NULL
P        6.90079854       4.26458131       5.70319008       0.00000000 NULL
P        2.15114771       1.08860422       3.06358269       0.00000000 NULL
8
Lattice="4.731015794219674 2.7811281702681655e-17 -4.3535187903930074e-17 2.365507897109837 6.54568755929634 -0.29192306747460156 2.365507897109837 0.9102311863382034 6.488661178445676" Properties=species:S:1:pos:R:3:initial_magmoms:R:1:castep_labels:S:1 n_minim_iter=3 pbc="T T T"
P        4.83228821       1.93535799       1.18914425       0.00000000 NULL
P        4.62974338       5.93285042       4.51152670       0.00000000 NULL
P        7.19779610       5.93285042       4.51152670       0.00000000 NULL
P        2.26423548       1.93535799       1.18914425       0.00000000 NULL
P        4.84143276       0.99207044       3.17345557       0.00000000 NULL
P        4.62059883       4.15454341       5.80183947       0.00000000 NULL
P        7.20694065       4.15454341       5.80183947       0.00000000 NULL
P        2.25509093       0.99207044       3.17345557       0.00000000 NULL
8
Lattice="4.835975456067511 8.042565346472418e-17 -9.260558977547993e-17 2.4179877280337556 6.6349431944417185 -0.4465813015977738 2.4179877280337556 0.7745070807223201 6.604698693681359" Properties=species:S:1:pos:R:3:initial_magmoms:R:1:castep_labels:S:1 n_minim_iter=4 pbc="T T T"
P        4.93703164       1.93250203       1.16870975       0.00000000 NULL
P        4.73491927       5.90699409       4.47197623       0.00000000 NULL
P        7.35501937       5.90699409       4.47197623       0.00000000 NULL
P        2.31693154       1.93250203       1.16870975       0.00000000 NULL
P        4.94594945       0.93348723       3.21985941       0.00000000 NULL
P        4.72600146       4.07316897       5.82930114       0.00000000 NULL
P        7.36393718       4.07316897       5.82930114       0.00000000 NULL
P        2.30801373       0.93348723       3.21985941       0.00000000 NULL
8
Lattice="4.883023221094789 1.370848031350511e-16 -1.2619103688507084e-16 2.4415116105473946 6.692596769279309 -0.5979793675340468 2.4415116105473946 0.6362080167232647 6.689070951905155" Properties=species:S:1:pos:R:3:initial_magmoms:R:1:castep_labels:S:1 n_minim_iter=5 pbc="T T T"
P        4.98406456       1.92009808       1.14351548       0.00000000 NULL
P        4.78198188       5.85338660       4.41253700       0.00000000 NULL
P        7.42557617       5.85338660       4.41253700       0.00000000 NULL
P        2.34047027       1.92009808       1.14351548       0.00000000 NULL
P        4.99265429       0.87168008       3.25046926       0.00000000 NULL
P        4.77339215       3.97373474       5.82863850       0.00000000 NULL
P        7.43416590       3.97373474       5.82863850       0.00000000 NULL
P        2.33188054       0.87168008       3.25046926       0.00000000 NULL
8
Lattice="4.8816729473581155 1.3573403211595098e-16 -1.2714126885237245e-16 2.4408364736790578 6.647836111801345 -0.6313142531124368 2.4408364736790578 0.595248577198062 6.651162438769379" Properties=species:S:1:pos:R:3:initial_magmoms:R:1:castep_labels:S:1 n_minim_iter=6 pbc="T T T"
P        4.98302096       1.89910320       1.12711254       0.00000000 NULL
P        4.78032493       5.78763278       4.35893416       0.00000000 NULL
P        7.42385743       5.78763278       4.35893416       0.00000000 NULL
P        2.33948846       1.89910320       1.12711254       0.00000000 NULL
P        4.99131819       0.84919771       3.22943601       0.00000000 NULL
P        4.77202770       3.91280519       5.77565115       0.00000000 NULL
P        7.43215467       3.91280519       5.77565115       0.00000000 NULL
P        2.33119122       0.84919771       3.22943601       0.00000000 NULL
8
Lattice="4.8773097062046995 1.2691713235603584e-16 -1.337878900669042e-16 2.4386548531023498 6.551001357535554 -0.709961979404036 2.4386548531023498 0.500216146571892 6.570346155671005" Properties=species:S:1:pos:R:3:initial_magmoms:R:1:castep_labels:S:1 n_minim_iter=7 pbc="T T T"
P        4.97913662       1.85261454       1.09000917       0.00000000 NULL
P        4.77548279       5.64074600       4.23838825       0.00000000 NULL
P        7.41779148       5.64074600       4.23838825       0.00000000 NULL
P        2.33682793       1.85261454       1.09000917       0.00000000 NULL
P        4.98685880       0.79723924       3.18410122       0.00000000 NULL
P        4.76776061       3.77501143       5.65897723       0.00000000 NULL
P        7.42551365       3.77501143       5.65897723       0.00000000 NULL
P        2.32910576       0.79723924       3.18410122       0.00000000 NULL
8
Lattice="4.875102171847976 7.272343160171118e-17 -1.852842136768695e-16 2.437551085923988 6.15019643236804 -1.020092097441291 2.437551085923988 0.12200899857749507 6.233026379555991" Properties=species:S:1:pos:R:3:initial_magmoms:R:1:castep_labels:S:1 n_minim_iter=8 pbc="T T T"
P        4.97874509       1.66132483       0.93711855       0.00000000 NULL
P        4.77145925       5.04703299       3.75103693       0.00000000 NULL
P        7.41629617       5.04703299       3.75103693       0.00000000 NULL
P        2.33390817       1.66132483       0.93711855       0.00000000 NULL
P        4.98358985       0.59006547       2.99808483       0.00000000 NULL
P        4.76661449       3.21677063       5.18118319       0.00000000 NULL
P        7.42114094       3.21677063       5.18118319       0.00000000 NULL
P        2.32906341       0.59006547       2.99808483       0.00000000 NULL
8
Lattice="4.795179583179548 1.354606741000209e-16 -1.343380728369431e-16 2.397589791589774 5.958983654276915 -1.1773750653970563 2.397589791589774 -0.0675942438324167 6.073806817372355" Properties=species:S:1:pos:R:3:initial_magmoms:R:1:castep_labels:S:1 n_minim_iter=9 pbc="T T T"
P        4.89679889       1.57250074       0.86449361       0.00000000 NULL
P        4.69356028       4.75386304       3.50857674       0.00000000 NULL
P        7.29438868       4.75386304       3.50857674       0.00000000 NULL
P        2.29597049       1.57250074       0.86449361       0.00000000 NULL
P        4.90130027       0.48151090       2.90611398       0.00000000 NULL
P        4.68905889       2.94622902       4.95458221       0.00000000 NULL
P        7.29889007       2.94622902       4.95458221       0.00000000 NULL
P        2.29146910       0.48151090       2.90611398       0.00000000 NULL
8
Lattice="4.927330471203978 1.2674724066116194e-16 -1.7118786406892805e-16 2.463665235601989 5.6920875854295865 -1.3368007768209154 2.463665235601989 -0.27314682912610583 5.840572592379018" Properties=species:S:1:pos:R:3:initial_magmoms:R:1:castep_labels:S:1 n_minim_iter=10 pbc="T T T"
P        5.02820382       1.46088269       0.77686364       0.00000000 NULL
P        4.82645712       4.38798145       3.20962411       0.00000000 NULL
P        7.49186906       4.38798145       3.20962411       0.00000000 NULL
P        2.36279189       1.46088269       0.77686364       0.00000000 NULL
P        5.03224436       0.35805884       2.77736943       0.00000000 NULL
P        4.82241658       2.62293292       4.65974396       0.00000000 NULL
P        7.49590959       2.62293292       4.65974396       0.00000000 NULL
P        2.35875135       0.35805884       2.77736943       0.00000000 NULL
8
Lattice="4.926108500258606 1.2720741729793456e-16 -1.70461382308705e-16 2.463054250129303 5.691346241986492 -1.3379978172828633 2.463054250129303 -0.2744592709158968 5.840062697765819" Properties=species:S:1:pos:R:3:initial_magmoms:R:1:castep_labels:S:1 n_minim_iter=11 pbc="T T T"
P        5.02695854       1.46043247       0.77644400       0.00000000 NULL
P        4.82525846       4.38642258       3.20828305       0.00000000 NULL
P        7.49001279       4.38642258       3.20828305       0.00000000 NULL
P        2.36220421       1.46043247       0.77644400       0.00000000 NULL
P        5.03099509       0.35735035       2.77702159       0.00000000 NULL
P        4.82122190       2.62135070       4.65866994       0.00000000 NULL
P        7.49404934       2.62135070       4.65866994       0.00000000 NULL
P        2.35816765       0.35735035       2.77702159       0.00000000 NULL
8
Lattice="4.841111580974314 1.8290721513365e-16 -1.1737557499733597e-16 2.420555790487157 5.6395677556578026 -1.4218446266371951 2.420555790487157 -0.36636212730566614 5.80449355281133" Properties=species:S:1:pos:R:3:initial_magmoms:R:1:castep_labels:S:1 n_minim_iter=12 pbc="T T T"
P        4.94033173       1.42894365       0.74707606       0.00000000 NULL
P        4.74189143       4.27737317       3.11445323       0.00000000 NULL
P        7.36088752       4.27737317       3.11445323       0.00000000 NULL
P        2.32133564       1.42894365       0.74707606       0.00000000 NULL
P        4.94409074       0.30773878       2.75272412       0.00000000 NULL
P        4.73813242       2.51063109       4.58358456       0.00000000 NULL
P        7.36464653       2.51063109       4.58358456       0.00000000 NULL
P        2.31757663       0.30773878       2.75272412       0.00000000 NULL
8
Lattice="4.815017142924044 1.6365359255508446e-16 -1.2829470262679586e-16 2.407508571462022 5.562492263409827 -1.4942058685405761 2.407508571462022 -0.45160008118461686 5.7419533892874215" Properties=species:S:1:pos:R:3:initial_magmoms:R:1:castep_labels:S:1 n_minim_iter=13 pbc="T T T"
P        4.91312486       1.39194621       0.71549938       0.00000000 NULL
P        4.71690942       4.15287070       3.01014966       0.00000000 NULL
P        7.32063344       4.15287070       3.01014966       0.00000000 NULL
P        2.30940085       1.39194621       0.71549938       0.00000000 NULL
P        4.91659508       0.25918565       2.71599310       0.00000000 NULL
P        4.71343920       2.39330958       4.48969900       0.00000000 NULL
P        7.32410365       2.39330958       4.48969900       0.00000000 NULL
P        2.30593063       0.25918565       2.71599310       0.00000000 NULL
8
Lattice="4.814507486095788 1.855254251547426e-16 -1.0085551927377628e-16 2.407253743047894 5.457737822947347 -1.5932053913796957 2.407253743047894 -0.5680895299797221 5.657073435008492" Properties=species:S:1:pos:R:3:initial_magmoms:R:1:castep_labels:S:1 n_minim_iter=14 pbc="T T T"
P        4.91135273       1.34138273       0.67228154       0.00000000 NULL
P        4.71766224       3.98336385       2.86807600       0.00000000 NULL
P        7.31860647       3.98336385       2.86807600       0.00000000 NULL
P        2.31040850       1.34138273       0.67228154       0.00000000 NULL
P        4.91435078       0.19286125       2.66608153       0.00000000 NULL
P        4.71466419       2.23326626       4.36189608       0.00000000 NULL
P        7.32160452       2.23326626       4.36189608       0.00000000 NULL
P        2.30741045       0.19286125       2.66608153       0.00000000 NULL
8
Lattice="4.874304505245043 9.511517523590866e-17 -9.606436990903677e-17 2.4371522526225213 5.243763445012597 -1.8622233238221597 2.4371522526225213 -0.8717060418134212 5.495912967988448" Properties=species:S:1:pos:R:3:initial_magmoms:R:1:castep_labels:S:1 n_minim_iter=15 pbc="T T T"
P        4.96854762       1.22507903       0.56784951       0.00000000 NULL
P        4.78006139       3.58971567       2.53313837       0.00000000 NULL
P        7.40569987       3.58971567       2.53313837       0.00000000 NULL
P        2.34290914       1.22507903       0.56784951       0.00000000 NULL
P        4.97003865       0.02493326       2.56497709       0.00000000 NULL
P        4.77857036       1.84578890       4.07832051       0.00000000 NULL
P        7.40719090       1.84578890       4.07832051       0.00000000 NULL
P        2.34141811       0.02493326       2.56497709       0.00000000 NULL
8
Lattice="5.203100844214393 3.583024244947965e-17 6.666771397401083e-17 2.6015504221071963 4.934844316968303 -2.5492466580617044 2.6015504221071963 -1.6036422971027944 5.31786407679775" Properties=species:S:1:pos:R:3:initial_magmoms:R:1:castep_labels:S:1 n_minim_iter=16 pbc="T T T"
P        5.29543262       1.00056540       0.34500653       0.00000000 NULL
P        5.11076906       2.80900845       1.84803363       0.00000000 NULL
P        7.89698305       2.80900845       1.84803363       0.00000000 NULL
P        2.50921864       1.00056540       0.34500653       0.00000000 NULL
P        5.29423314      -0.36569043       2.42140916       0.00000000 NULL
P        5.11196854       1.01752606       3.57102339       0.00000000 NULL
P        7.89578356       1.01752606       3.57102339       0.00000000 NULL
P        2.51041812      -0.36569043       2.42140916       0.00000000 NULL
8
Lattice="5.091219900871223 6.434983835552629e-17 -6.874432336654e-17 2.5456099504356113 5.276348163792805 -2.0507897377044073 2.5456099504356113 -1.0511316392737855 5.56243748466003" Properties=species:S:1:pos:R:3:initial_magmoms:R:1:castep_labels:S:1 n_minim_iter=17 pbc="T T T"
P        5.18706914       1.19939691       0.52633795       0.00000000 NULL
P        4.99537066       3.48838344       2.42875274       0.00000000 NULL
P        7.73267909       3.48838344       2.42875274       0.00000000 NULL
P        2.44976071       1.19939691       0.52633795       0.00000000 NULL
P        5.18877377      -0.06743264       2.58096874       0.00000000 NULL
P        4.99366603       1.70012019       4.05001131       0.00000000 NULL
P        7.73438372       1.70012019       4.05001131       0.00000000 NULL
P        2.44805608      -0.06743264       2.58096874       0.00000000 NULL
8
Lattice="4.9874426267586225 9.953699489225652e-17 -7.620998922763781e-17 2.4937213133793112 5.160506346790319 -2.063991241230284 2.4937213133793112 -1.0852983290437517 5.45096442256903" Properties=species:S:1:pos:R:3:initial_magmoms:R:1:castep_labels:S:1 n_minim_iter=18 pbc="T T T"
P        5.08231568       1.16119222       0.50125317       0.00000000 NULL
P        4.89256957       3.37002433       2.33705028       0.00000000 NULL
P        7.57603699       3.37002433       2.33705028       0.00000000 NULL
P        2.39884826       1.16119222       0.50125317       0.00000000 NULL
P        5.08391381      -0.09386715       2.52436547       0.00000000 NULL
P        4.89097144       1.61059508       3.94097238       0.00000000 NULL
P        7.57763512       1.61059508       3.94097238       0.00000000 NULL
P        2.39725013      -0.09386715       2.52436547       0.00000000 NULL
8
Lattice="4.973229674794009 1.2102431154541836e-16 -5.945683090299218e-17 2.4866148373970045 5.108179212376029 -2.1022766862453444 2.4866148373970045 -1.132508752100225 5.40652254759912" Properties=species:S:1:pos:R:3:initial_magmoms:R:1:castep_labels:S:1 n_minim_iter=19 pbc="T T T"
P        5.06780896       1.13762527       0.48212831       0.00000000 NULL
P        4.87865038       3.29359949       2.27399435       0.00000000 NULL
P        7.55442380       3.29359949       2.27399435       0.00000000 NULL
P        2.39203555       1.13762527       0.48212831       0.00000000 NULL
P        5.06951805      -0.12212533       2.49866564       0.00000000 NULL
P        4.87694130       1.54149233       3.88132596       0.00000000 NULL
P        7.55613288       1.54149233       3.88132596       0.00000000 NULL
P        2.39032646      -0.12212533       2.49866564       0.00000000 NULL
8
Lattice="4.997157711871442 1.1947711358549546e-16 -5.60744739563842e-17 2.498578855935721 5.108124470021889 -2.116358681670467 2.498578855935721 -1.1463632088636082 5.40904437623526" Properties=species:S:1:pos:R:3:initial_magmoms:R:1:castep_labels:S:1 n_minim_iter=20 pbc="T T T"
P        5.09194558       1.13461501       0.47852412       0.00000000 NULL
P        4.90236985       3.28378427       2.26473445       0.00000000 NULL
P        7.59052443       3.28378427       2.26473445       0.00000000 NULL
P        2.40379099       1.13461501       0.47852412       0.00000000 NULL
P        5.09399369      -0.12996462       2.49797758       0.00000000 NULL
P        4.90032173       1.52969343       3.87734699       0.00000000 NULL
P        7.59257255       1.52969343       3.87734699       0.00000000 NULL
P        2.40174288      -0.12996462       2.49797758       0.00000000 NULL
