24
Lattice="4.624938769406458 8.574258138699644e-08 1.4851053605457485e-07 -1.541646444832048 10.160274662460145 1.42744912847383e-06 -1.5416464448320062 -5.080138653179876 8.799055203889763" Properties=species:S:1:pos:R:3:initial_magmoms:R:1:castep_labels:S:1:forces:R:3 n_minim_iter=1 energy=-125.44356063023 stress="0.006431031075502084 0.0 2.4185355259009138e-08 0.0 -0.0009112558154489462 -0.0 2.4185355259009138e-08 -0.0 -0.0009112558154489462" free_energy=-125.44356063023 pbc="T T T"
P       -1.43898501       7.22642379       4.44627003       0.00000000 NULL       0.08549400      -0.06767600      -0.07455100
P        1.64430760       2.69648152       4.03513398       0.00000000 NULL       0.08549500       0.09840200      -0.02133400
P        0.10266141       5.31750700       0.31765687       0.00000000 NULL       0.08549300      -0.03072600       0.09588500
P        1.86340117       3.90440334       0.11586082       0.00000000 NULL      -0.04337100      -0.16835100      -0.02448200
P        0.32175473       8.10773622       3.32338445       0.00000000 NULL      -0.04337000       0.10537700      -0.13355400
P       -1.21989150       3.22827276       5.35981564       0.00000000 NULL      -0.04337100       0.06297300       0.15803700
P        2.76328093       7.41123085       1.07265246       0.00000000 NULL       0.03193700      -0.00001200      -0.16310500
P        1.22163456       5.52571666       5.88199036       0.00000000 NULL       0.03193800       0.14125900       0.08154100
P       -0.32001151       2.30346487       1.84441817       0.00000000 NULL       0.03193700      -0.14124600       0.08156400
P        1.25542860       0.94363696       5.81310057       0.00000000 NULL       0.06440900      -0.12757700       0.24434500
P       -1.82786392      -0.42597362       6.70972085       0.00000000 NULL       0.06441000      -0.14782000      -0.23265800
P       -0.28621761      -0.51766436       5.07529320       0.00000000 NULL       0.06440800       0.27539700      -0.01168600
P       -1.20266376      -3.17637026       7.60259423       0.00000000 NULL      -0.34005800       0.09665300       0.09819600
P        0.33898261       0.08428296       2.24694318       0.00000000 NULL      -0.34006200      -0.13336900       0.03460500
P        1.88062863       3.09208630       7.74857727       0.00000000 NULL      -0.34005800       0.03671500      -0.13280400
P        0.14671346       4.46020549       4.13964248       0.00000000 NULL      -0.19428600       0.10591100      -0.27109500
P        3.23000605       4.34513801       1.79283249       0.00000000 NULL      -0.19428600       0.18181900       0.22726900
P        1.68835972       6.43506890       2.86658607       0.00000000 NULL      -0.19428600      -0.28773100       0.04382600
P        0.37924777       7.67430295       5.85892622       0.00000000 NULL       0.15019500      -0.11117100       0.18264400
P        3.46254047       1.24914589       3.71668068       0.00000000 NULL       0.15019500      -0.10258900      -0.18759900
P        1.92089426       6.31696356      -0.77654584       0.00000000 NULL       0.15019600       0.21376000       0.00495400
P        3.12273663      -0.93837666       1.48028300       0.00000000 NULL       0.24568300       0.07183400      -0.08331500
P        0.03944383       4.26736337       7.24625809       0.00000000 NULL       0.24568000       0.03623800       0.10386600
P        1.58109018      -3.32898764       8.87157371       0.00000000 NULL       0.24567900      -0.10806900      -0.02055000
24
Lattice="4.564169556203329 8.461596988678553e-08 1.4655918734775112e-07 -1.5213900407843592 10.17933448110351 1.430870217128023e-06 -1.5213900407843173 -5.089668564337697 8.815561489966349" Properties=species:S:1:pos:R:3:initial_magmoms:R:1:castep_labels:S:1:forces:R:3 n_minim_iter=2 energy=-125.466315421051 stress="-0.002677863071912066 -0.0 -2.4415681102063003e-08 -0.0 -0.004820632076791319 -2.4415681102063003e-08 -2.4415681102063003e-08 -2.4415681102063003e-08 -0.004820632076791319" free_energy=-125.466315421051 pbc="T T T"
P       -1.41965786       7.23964269       4.45423933       0.00000000 NULL       0.02501300      -0.10678900      -0.05610700
P        1.62312195       2.70203027       4.04259724       0.00000000 NULL       0.02501600       0.10198500      -0.06442900
P        0.10173216       5.32732908       0.31873061       0.00000000 NULL       0.02501300       0.00480500       0.12053600
P        1.83870418       3.91088870       0.11595616       0.00000000 NULL      -0.04976100      -0.27691500      -0.06559100
P        0.31731414       8.12347080       3.32895327       0.00000000 NULL      -0.04976100       0.19526100      -0.20702000
P       -1.20407568       3.23464255       5.37065777       0.00000000 NULL      -0.04976300       0.08165300       0.27261000
P        2.72712967       7.42513363       1.07385183       0.00000000 NULL       0.08306100      -0.00616400      -0.13432900
P        1.20573970       5.53678640       5.89343084       0.00000000 NULL       0.08306100       0.11941300       0.06182600
P       -0.31564996       2.30708207       1.84828462       0.00000000 NULL       0.08305900      -0.11325100       0.07250400
P        1.23924911       0.94477136       5.82522314       0.00000000 NULL       0.06640400      -0.08369800       0.24436000
P       -1.80353060      -0.42750937       6.72114828       0.00000000 NULL       0.06640500      -0.16977200      -0.19466600
P       -0.28214069      -0.51726302       5.08475578       0.00000000 NULL       0.06640100       0.25347100      -0.04969300
P       -1.18853069      -3.18184719       7.61734543       0.00000000 NULL      -0.20286900       0.10596800       0.05101100
P        0.33285928       0.08377643       2.25133071       0.00000000 NULL      -0.20286800      -0.09715700       0.06626700
P        1.85424890       3.09806976       7.76245113       0.00000000 NULL      -0.20286700      -0.00880800      -0.11727600
P        0.14383202       4.46910027       4.14605710       0.00000000 NULL      -0.18650200       0.20147100      -0.28901600
P        3.18661180       4.35419521       1.79732828       0.00000000 NULL      -0.18650000       0.14955800       0.31898700
P        1.66522187       6.44570665       2.87218195       0.00000000 NULL      -0.18650100      -0.35103100      -0.02997200
P        0.37500193       7.68814528       5.87082727       0.00000000 NULL       0.15008700      -0.11633100       0.24733400
P        3.41778182       1.25097794       3.72271796       0.00000000 NULL       0.15008600      -0.15602900      -0.22441400
P        1.89639202       6.32987892      -0.77797788       0.00000000 NULL       0.15008600       0.27236300      -0.02292100
P        3.08291154      -0.93977900       1.48264468       0.00000000 NULL       0.11456700       0.03015900      -0.13709200
P        0.04013155       4.27554917       7.26036908       0.00000000 NULL       0.11456600       0.10364500       0.09466500
P        1.56152149      -3.33577110       8.88811362       0.00000000 NULL       0.11456900      -0.13380300       0.04242800
24
Lattice="4.531574640438717 8.401168682521085e-08 1.4551253818644916e-07 -1.5105250704754971 10.266321849761582 1.443864057532909e-06 -1.5105250704754547 -5.133162259315446 8.890894754884565" Properties=species:S:1:pos:R:3:initial_magmoms:R:1:castep_labels:S:1:forces:R:3 n_minim_iter=3 energy=-125.484846627593 stress="-0.0008538839277972845 -0.0 -2.417633363904087e-08 -0.0 0.0013323819231811813 -0.0 -2.417633363904087e-08 -0.0 0.0013324060995148206" free_energy=-125.484846627593 pbc="T T T"
P       -1.40908695       7.30084504       4.49179077       0.00000000 NULL       0.02919700      -0.09506700      -0.10167200
P        1.61196291       2.72589598       4.07682433       0.00000000 NULL       0.02920000       0.13558400      -0.03149400
P        0.10143810       5.37274207       0.32228539       0.00000000 NULL       0.02919700      -0.04051700       0.13316700
P        1.82522760       3.94261746       0.11661086       0.00000000 NULL      -0.03152600      -0.26144900       0.00846900
P        0.31470254       8.19402681       3.35610384       0.00000000 NULL      -0.03152600       0.12339000      -0.23065600
P       -1.19582231       3.26283883       5.41818581       0.00000000 NULL      -0.03152700       0.13805900       0.22218700
P        2.70806628       7.48856300       1.08186657       0.00000000 NULL       0.03585500       0.04237000      -0.13207600
P        1.19754127       5.58511813       5.94435494       0.00000000 NULL       0.03585600       0.09319500       0.10273100
P       -0.31298341       2.32580203       1.86467909       0.00000000 NULL       0.03585500      -0.13556400       0.02934300
P        1.23088663       0.95201223       5.87689665       0.00000000 NULL       0.06707000      -0.12806400       0.27608700
P       -1.79016313      -0.43238669       6.77691559       0.00000000 NULL       0.06707200      -0.17506600      -0.24895100
P       -0.27963820      -0.51962658       5.12798153       0.00000000 NULL       0.06706700       0.30313000      -0.02713500
P       -1.18211463      -3.20825521       7.68303247       0.00000000 NULL      -0.21859100       0.11603200      -0.03612100
P        0.32841036       0.08358747       2.27095045       0.00000000 NULL      -0.21859000      -0.02673200       0.11854800
P        1.83893501       3.12466673       7.82781090       0.00000000 NULL      -0.21858800      -0.08930000      -0.08242400
P        0.14138098       4.50845227       4.17932189       0.00000000 NULL      -0.18527400       0.17813100      -0.16832500
P        3.16243081       4.39269844       1.81477574       0.00000000 NULL      -0.18527300       0.05670700       0.23842800
P        1.65190586       6.49833247       2.89680301       0.00000000 NULL      -0.18527400      -0.23484000      -0.07010500
P        0.37344469       7.75296408       5.92264257       0.00000000 NULL       0.18863100      -0.16529900       0.30503400
P        3.39449464       1.26068256       3.75294506       0.00000000 NULL       0.18862900      -0.18151600      -0.29567000
P        1.88396981       6.38583656      -0.78468696       0.00000000 NULL       0.18863100       0.34681700      -0.00936200
P        3.06228294      -0.94740148       1.49447722       0.00000000 NULL       0.11463600      -0.08981700      -0.13789900
P        0.04123290       4.31260682       7.32318483       0.00000000 NULL       0.11463400       0.16433200      -0.00883500
P        1.55175787      -3.36520628       8.96413189       0.00000000 NULL       0.11463700      -0.07451500       0.14673100
24
Lattice="4.516771361883312 8.373724614767322e-08 1.4503719289836006e-07 -1.5055906446865301 10.287691071478799 1.4471288440397243e-06 -1.5055906446864877 -5.143846872727002 8.90940104227683" Properties=species:S:1:pos:R:3:initial_magmoms:R:1:castep_labels:S:1:forces:R:3 n_minim_iter=4 energy=-125.594016035648 stress="-0.0004871079843901656 -2.41549134379731e-08 -4.83098268759462e-08 -2.41549134379731e-08 -0.00032355506550164973 -2.41549134379731e-08 -4.83098268759462e-08 -2.41549134379731e-08 -0.00032357922041508766" free_energy=-125.594016035648 pbc="T T T"
P       -1.40040785       7.30554839       4.49095349       0.00000000 NULL       0.03530400      -0.07117200      -0.21281300
P        1.61077316       2.74563863       4.08131619       0.00000000 NULL       0.03530200       0.21988800       0.04476800
P        0.10518278       5.38034991       0.33713711       0.00000000 NULL       0.03530500      -0.14871500       0.16804400
P        1.81535480       3.92261211       0.11582083       0.00000000 NULL      -0.00974600      -0.16550400       0.22714400
P        0.30976416       8.22608290       3.33917372       0.00000000 NULL      -0.00974600      -0.11396100      -0.25690300
P       -1.19582627       3.28284193       5.45441226       0.00000000 NULL      -0.00974400       0.27946600       0.02976000
P        2.70381633       7.50726133       1.06849601       0.00000000 NULL       0.14293300      -0.05299900       0.09498700
P        1.19822575       5.60871743       5.96723345       0.00000000 NULL       0.14293200      -0.05576200      -0.09339300
P       -0.30736451       2.31555822       1.87367744       0.00000000 NULL       0.14293400       0.10876100      -0.00159200
P        1.23398272       0.94028544       5.91928714       0.00000000 NULL       0.05785900       0.05884300       0.12620800
P       -1.77719819      -0.45254992       6.76407094       0.00000000 NULL       0.05785700      -0.13872100      -0.01214400
P       -0.27160768      -0.48773656       5.13544828       0.00000000 NULL       0.05786000       0.07987800      -0.11406500
P       -1.20357986      -3.20231207       7.69907384       0.00000000 NULL       0.12500400       0.09493800      -0.02516900
P        0.30201071       0.07740828       2.28658297       0.00000000 NULL       0.12501000      -0.02566500       0.09480700
P        1.80760093       3.12490278       7.83314960       0.00000000 NULL       0.12500200      -0.06926900      -0.06963200
P        0.12090704       4.53712923       4.16473429       0.00000000 NULL      -0.11253500       0.06992700       0.10029900
P        3.13208803       4.41236242       1.84690453       0.00000000 NULL      -0.11253500      -0.12182600       0.01040900
P        1.62649750       6.48204536       2.89776813       0.00000000 NULL      -0.11253600       0.05189800      -0.11071100
P        0.39103194       7.75226403       5.96622200       0.00000000 NULL      -0.01236300       0.02648800       0.16949000
P        3.40221304       1.24466091       3.73054909       0.00000000 NULL      -0.01236400      -0.16002500      -0.06180600
P        1.89662264       6.43461209      -0.78736412       0.00000000 NULL      -0.01236500       0.13353800      -0.10768300
P        3.06693189      -0.95429579       1.48297747       0.00000000 NULL      -0.22646000      -0.16548400      -0.12178400
P        0.05575070       4.33669767       7.34147036       0.00000000 NULL      -0.22645300       0.18820500      -0.08242000
P        1.56134124      -3.38240282       8.99435870       0.00000000 NULL      -0.22645500      -0.02272500       0.20419800
24
Lattice="4.33519020353829 8.037087998663317e-08 1.3920647459065151e-07 -1.4450635956440783 10.489383953247199 1.4783915764744622e-06 -1.445063595644035 -5.244693337319156 9.084072187962958" Properties=species:S:1:pos:R:3:initial_magmoms:R:1:castep_labels:S:1:forces:R:3 n_minim_iter=5 energy=-125.835562646547 stress="-0.0035682545209807983 -2.4208132490592195e-08 -4.841626498118439e-08 -2.4208132490592195e-08 -0.0038431136572789825 -2.4208132490592195e-08 -4.841626498118439e-08 -2.4208132490592195e-08 -0.003843137865411473" free_energy=-125.835562646547 pbc="T T T"
P       -1.32589336       7.40868162       4.49152263       0.00000000 NULL      -0.26911100      -0.24411900      -0.26220200
P        1.56423354       2.89527204       4.17034766       0.00000000 NULL      -0.26911200       0.34913300      -0.08031300
P        0.11917021       5.43012259       0.42220775       0.00000000 NULL      -0.26911100      -0.10501400       0.34251400
P        1.73338337       3.90045532       0.19182696       0.00000000 NULL      -0.19422900      -0.37031500       0.10289100
P        0.28831979       8.37303097       3.28198236       0.00000000 NULL      -0.19422900       0.09605100      -0.37214800
P       -1.15674360       3.46058998       5.61026875       0.00000000 NULL      -0.19422700       0.27426400       0.26925800
P        2.64266872       7.64203631       1.09357661       0.00000000 NULL       0.17875700      -0.05603900       0.03657200
P        1.19760520       5.72130242       6.07141176       0.00000000 NULL       0.17875500      -0.00365100      -0.06681700
P       -0.24745801       2.37073759       1.91908979       0.00000000 NULL       0.17875700       0.05969200       0.03024800
P        1.21233437       0.95408098       6.12749746       0.00000000 NULL       0.04154700       0.08686300      -0.18123000
P       -1.67779243      -0.53891668       6.84658426       0.00000000 NULL       0.04154600       0.11351800       0.16584000
P       -0.23272898      -0.41516537       5.19406700       0.00000000 NULL       0.04154800      -0.20038100       0.01538900
P       -1.16287211      -3.21288989       7.84381080       0.00000000 NULL       0.04476300      -0.25723700       0.46261300
P        0.28219140       0.05819775       2.37972502       0.00000000 NULL       0.04476700      -0.27201200      -0.45407700
P        1.72725457       3.15469110       7.94461295       0.00000000 NULL       0.04476100       0.52925100      -0.00853100
P        0.05153027       4.67905359       4.23981527       0.00000000 NULL       0.45538800       0.26733200       0.17466200
P        2.94165715       4.47807110       1.93227418       0.00000000 NULL       0.45538800      -0.28492900       0.14418600
P        1.49659368       6.57695163       2.91198874       0.00000000 NULL       0.45538600       0.01759500      -0.31884900
P        0.40139734       7.88512080       6.18940305       0.00000000 NULL      -0.36020000       0.14238400      -0.15025200
P        3.29152435       1.18664498       3.73401594       0.00000000 NULL      -0.36020000       0.05893100       0.19843300
P        1.84646099       6.66231058      -0.83934078       0.00000000 NULL      -0.36020000      -0.20131300      -0.04818200
P        2.90501084      -1.03373271       1.44886007       0.00000000 NULL       0.10308300      -0.00056500       0.04955200
P        0.01488374       4.50680909       7.46440586       0.00000000 NULL       0.10308700      -0.04263500      -0.02526500
P        1.45994723      -3.47307735       9.25488296       0.00000000 NULL       0.10308600       0.04319700      -0.02429200
24
Lattice="4.2184309136547915 7.820625825425206e-08 1.3545723906671246e-07 -1.4061438345305535 10.607025282613744 1.4967422972252134e-06 -1.4061438345305095 -5.303514015729997 9.185952559803741" Properties=species:S:1:pos:R:3:initial_magmoms:R:1:castep_labels:S:1:forces:R:3 n_minim_iter=6 energy=-126.053344792161 stress="-0.00908933834946188 -0.0 -4.865877942403877e-08 -0.0 -0.0072389422855245345 -2.4329389712019383e-08 -4.865877942403877e-08 -2.4329389712019383e-08 -0.0072389179561348225" free_energy=-126.053344792161 pbc="T T T"
P       -1.29613333       7.44004155       4.45412046       0.00000000 NULL      -0.32412600      -0.36262600      -0.20218300
P        1.51615404       3.02962466       4.21620728       0.00000000 NULL      -0.32412700       0.35640900      -0.21295200
P        0.11001048       5.44087204       0.51563075       0.00000000 NULL      -0.32412800       0.00621700       0.41513600
P        1.66581574       3.83742515       0.25498680       0.00000000 NULL      -0.33420400      -0.10616500       0.10121400
P        0.25967192       8.46748937       3.19581674       0.00000000 NULL      -0.33420500      -0.03457100      -0.14254800
P       -1.14647171       3.60562374       5.73515496       0.00000000 NULL      -0.33420400       0.14073600       0.04133500
P        2.61320087       7.71786892       1.10491841       0.00000000 NULL       0.29009100      -0.21038600      -0.05637200
P        1.20705710       5.79120517       6.13141386       0.00000000 NULL       0.29009200       0.15401100      -0.15401400
P       -0.19908634       2.40146422       1.94962633       0.00000000 NULL       0.29009200       0.05637500       0.21038500
P        1.20270616       0.96143978       6.25177787       0.00000000 NULL       0.05648500       0.04722700      -0.35993000
P       -1.60958111      -0.59140540       6.89269736       0.00000000 NULL       0.05648600       0.28809500       0.22086400
P       -0.20343742      -0.37003545       5.22743429       0.00000000 NULL       0.05648400      -0.33532300       0.13906600
P       -1.14611869      -3.23458565       7.96962029       0.00000000 NULL       0.25351600      -0.31510100       0.54934700
P        0.26002507       0.01891208       2.39991159       0.00000000 NULL       0.25351900      -0.31819100      -0.54755400
P        1.66616847       3.21567252       8.00237768       0.00000000 NULL       0.25351700       0.63329500      -0.00178500
P        0.03716818       4.79526997       4.29580888       0.00000000 NULL       0.53365900       0.34573000       0.19455600
P        2.84945554       4.48911237       2.00492374       0.00000000 NULL       0.53366000      -0.34135700       0.20213200
P        1.44331183       6.62615598       2.88522600       0.00000000 NULL       0.53365900      -0.00437400      -0.39669200
P        0.38774662       7.96609954       6.32606995       0.00000000 NULL      -0.54473400       0.21937700      -0.43922100
P        3.20003411       1.14543994       3.73581217       0.00000000 NULL      -0.54473300       0.27068900       0.40959500
P        1.79389051       6.79899886      -0.87592347       0.00000000 NULL      -0.54473300      -0.49006500       0.02962700
P        2.81925286      -1.09021821       1.42473436       0.00000000 NULL       0.06931000       0.14368000      -0.10993000
P        0.00696528       4.61476599       7.52943123       0.00000000 NULL       0.06931100       0.02335700       0.17939600
P        1.41310901      -3.52454876       9.41774409       0.00000000 NULL       0.06931400      -0.16704000      -0.06947300
24
Lattice="4.079685573662831 7.563403313095728e-08 1.3100201363198318e-07 -1.3598953900737039 10.726077815239224 1.5155334821058218e-06 -1.3598953900736592 -5.363040295744156 9.289055069531765" Properties=species:S:1:pos:R:3:initial_magmoms:R:1:castep_labels:S:1:forces:R:3 n_minim_iter=7 energy=-126.444128401897 stress="-0.019324415482937916 2.460145141233524e-08 2.460145141233524e-08 2.460145141233524e-08 -0.01235339741364143 2.460145141233524e-08 2.460145141233524e-08 2.460145141233524e-08 -0.012353372812190016" free_energy=-126.444128401897 pbc="T T T"
P       -1.25748415       7.38978593       4.34082188       0.00000000 NULL      -0.42584500      -0.52542700       0.36900100
P        1.46230631       3.27192446       4.22933394       0.00000000 NULL      -0.42584300      -0.05685100      -0.63953300
P        0.10241119       5.42740666       0.71890523       0.00000000 NULL      -0.42584500       0.58227700       0.27053300
P        1.54501893       3.75881217       0.38943401       0.00000000 NULL      -0.21889400      -0.25922900      -0.02446700
P        0.18512357       8.50941370       3.06051233       0.00000000 NULL      -0.21889300       0.15080400      -0.21226500
P       -1.17477162       3.82089118       5.83911473       0.00000000 NULL      -0.21889400       0.10842500       0.23673200
P        2.62254090       7.74273010       1.07258892       0.00000000 NULL       0.06606900       0.01966700       0.09615100
P        1.26264558       5.92582528       6.16910904       0.00000000 NULL       0.06607000      -0.09310400      -0.03104400
P       -0.09724942       2.42056173       2.04736321       0.00000000 NULL       0.06606800       0.07343600      -0.06510800
P        1.21378918       0.93347840       6.40633955       0.00000000 NULL       0.10712500       0.58765300      -0.42398400
P       -1.50600119      -0.65175278       6.89430379       0.00000000 NULL       0.10712800       0.07335500       0.72091200
P       -0.14610595      -0.28172669       5.27747125       0.00000000 NULL       0.10712200      -0.66100800      -0.29692900
P       -1.12036516      -3.24268783       8.14819999       0.00000000 NULL       0.10108000      -0.24980600       0.54975400
P        0.23953015      -0.07216511       2.40670758       0.00000000 NULL       0.10107400      -0.35120000      -0.49121700
P        1.59942510       3.31485189       8.02320705       0.00000000 NULL       0.10108200       0.60100600      -0.05854000
P       -0.00068836       4.98992388       4.35730686       0.00000000 NULL       0.66854600       0.78471600       0.10901300
P        2.71910211       4.45757915       2.14274999       0.00000000 NULL       0.66854800      -0.48676500       0.62507600
P        1.35920686       6.64161409       2.78900433       0.00000000 NULL       0.66854800      -0.29795000      -0.73408900
P        0.35190568       8.04782993       6.46226764       0.00000000 NULL      -0.61498000       0.24141700      -0.46092500
P        3.07169628       1.10567663       3.73849394       0.00000000 NULL      -0.61497800       0.27846200       0.43953500
P        1.71180113       6.93561058      -0.91170037       0.00000000 NULL      -0.61498000      -0.51988200       0.02138900
P        2.72225053      -1.15316645       1.30475903       0.00000000 NULL       0.31690000      -0.06698200       0.08691600
P        0.00245984       4.80966806       7.63800666       0.00000000 NULL       0.31689500      -0.04177600      -0.10146700
P        1.36235512      -3.65650261       9.63534905       0.00000000 NULL       0.31689600       0.10876100       0.01455500
24
Lattice="3.9986803597303435 7.413226270021599e-08 1.2840087046822345e-07 -1.3328936533619422 10.794351278827016 1.5263251257415675e-06 -1.3328936533618971 -5.397177035382119 9.348181618874369" Properties=species:S:1:pos:R:3:initial_magmoms:R:1:castep_labels:S:1:forces:R:3 n_minim_iter=8 energy=-126.707148390645 stress="-0.025249922748686152 -2.478332705030997e-08 -4.956665410061994e-08 -2.478332705030997e-08 -0.01623332705122353 -0.0 -4.956665410061994e-08 -0.0 -0.01623335183455058" free_energy=-126.707148390645 pbc="T T T"
P       -1.23208199       7.33318849       4.30296699       0.00000000 NULL      -0.46361900      -0.30156300       0.59100600
P        1.43370499       3.40127996       4.19924658       0.00000000 NULL      -0.46362100      -0.36104400      -0.55666400
P        0.10081161       5.45705880       0.84597407       0.00000000 NULL      -0.46361900       0.66260700      -0.03434200
P        1.47805489       3.71059475       0.48563494       0.00000000 NULL      -0.20985000      -0.22154700      -0.06738900
P        0.14516127       8.51848343       2.97065436       0.00000000 NULL      -0.20985000       0.16913400      -0.15817200
P       -1.18773220       3.96244907       5.89189835       0.00000000 NULL      -0.20984800       0.05241400       0.22556100
P        2.62026359       7.76343506       1.06260614       0.00000000 NULL       0.09484300      -0.16555500       0.19316200
P        1.28737000       5.99239163       6.19203147       0.00000000 NULL       0.09484300      -0.08450600      -0.23995600
P       -0.04552325       2.43570062       2.09355015       0.00000000 NULL       0.09484600       0.25006200       0.04679400
P        1.22729080       0.95799789       6.49706110       0.00000000 NULL       0.17070500       0.19563900      -0.63310200
P       -1.43849608      -0.70844296       6.92930408       0.00000000 NULL       0.17070400       0.45046300       0.48598000
P       -0.10560259      -0.24955601       5.27000253       0.00000000 NULL       0.17070700      -0.64610300       0.14712300
P       -1.11468710      -3.23425491       8.25897763       0.00000000 NULL       0.05589100      -0.21163000       0.57454200
P        0.21820648      -0.13818108       2.41774845       0.00000000 NULL       0.05589500      -0.39174800      -0.47054400
P        1.55109969       3.37243493       8.01964167       0.00000000 NULL       0.05589000       0.60337800      -0.10399200
P       -0.02500122       5.14508132       4.39659073       0.00000000 NULL       0.79245600       0.84295100      -0.04926000
P        2.64078577       4.41425307       2.25747836       0.00000000 NULL       0.79245500      -0.37881500       0.75464700
P        1.30789226       6.63219292       2.69411867       0.00000000 NULL       0.79245500      -0.46413600      -0.70538800
P        0.32420351       8.10033896       6.53470836       0.00000000 NULL      -0.65529000       0.22162000      -0.41165100
P        2.98999064       1.08496009       3.74774774       0.00000000 NULL      -0.65529100       0.24569000       0.39775200
P        1.65709723       7.00622829      -0.93426831       0.00000000 NULL      -0.65528800      -0.46730700       0.01389700
P        2.67826207      -1.21289266       1.23281253       0.00000000 NULL       0.21486100       0.10996900       0.26028800
P        0.01247484       4.93597539       7.68138206       0.00000000 NULL       0.21486400      -0.28040300      -0.03490800
P        1.34536839      -3.72308374       9.78217327       0.00000000 NULL       0.21486300       0.17043300      -0.22538600
24
Lattice="3.9693783538426386 7.358902748467435e-08 1.274599592976402e-07 -1.3231263184969393 10.81759389297816 1.5300174311376056e-06 -1.3231263184968942 -5.408798345112085 9.3683103116471" Properties=species:S:1:pos:R:3:initial_magmoms:R:1:castep_labels:S:1:forces:R:3 n_minim_iter=9 energy=-126.880930551694 stress="-0.03038422039356282 -0.0 0.0 -0.0 -0.020191761835874626 2.4859109330985892e-08 0.0 2.4859109330985892e-08 -0.020191811554093293" free_energy=-126.880930551694 pbc="T T T"
P       -1.22199873       7.30872092       4.29765687       0.00000000 NULL      -0.55247500      -0.14615000       0.59977400
P        1.42425358       3.44135506       4.18071212       0.00000000 NULL      -0.55247700      -0.44634400      -0.42645700
P        0.10112753       5.47631519       0.88994737       0.00000000 NULL      -0.55247500       0.59249400      -0.17331700
P        1.44885391       3.67900996       0.55366035       0.00000000 NULL      -0.21767700      -0.14075800      -0.14740400
P        0.12572763       8.49860670       2.90928844       0.00000000 NULL      -0.21767600       0.19803400      -0.04819800
P       -1.19739850       4.04877450       5.90536756       0.00000000 NULL      -0.21767500      -0.05727600       0.19560200