13
Lattice="5.461165756259425 0.1124681027667165 0.23574059971302108 2.6860784181117485 5.469945719647982 1.8680660030845944 1.117146615360436 4.742859896141656 10.56588418991324" Properties=species:S:1:pos:R:3:initial_magmoms:R:1:castep_labels:S:1:forces:R:3 n_minim_iter=1 energy=-68.383325089542 stress="-0.006376718249470574 0.001745178195195857 0.001960001186310493 0.001745178195195857 0.00046034035462456946 -0.002019810073698389 0.001960001186310493 -0.002019810073698389 0.0055725708314967185" free_energy=-68.383325089542 pbc="T T T"
P        4.24735692       8.03259940       7.85668923       0.00000000 NULL      -0.16338700      -0.10116200      -0.18363800
P        3.75731751       5.45335468       2.99892333       0.00000000 NULL      -0.20716400      -0.03284400      -0.02837200
P        6.49411070       7.37606635       8.25846974       0.00000000 NULL      -0.00946200      -0.00857400       0.02953300
P        3.86285437       3.73885873       5.12200063       0.00000000 NULL       0.10078100      -0.13588700      -0.34513300
P        3.35753622       3.92307206       1.43133635       0.00000000 NULL      -0.46575700       0.18332300      -0.06785300
P        7.33430785       5.98545884       6.70220967       0.00000000 NULL      -0.00140900       0.29272600       0.16915100
P        9.32639358       7.12817611       6.11294999       0.00000000 NULL      -0.28203600      -0.13155300       0.46130400
P        4.82516968       1.31156242       0.62033017       0.00000000 NULL       0.04745900      -0.11737200      -0.34645700
P        3.07751413       4.81496406       8.15638490       0.00000000 NULL       0.02146200       0.20641900      -0.49855400
P        3.04400745       6.75459362       9.29678681       0.00000000 NULL       0.26414100       0.08949700      -0.35357000
P        3.67134404       1.84609013       2.43071672       0.00000000 NULL      -0.34136000       0.03116100       0.70078400
P        4.75139467       5.09485368       6.57399779       0.00000000 NULL       0.25962700      -0.20001900       0.52652100
P        5.35437318       3.12664633       1.82067826       0.00000000 NULL       0.77710500      -0.07571600      -0.06371500
13
Lattice="5.584742595361874 0.07946248490453449 0.19353508599879485 2.7003279969086975 5.457602614279345 1.8516256907286828 1.0386821355677482 4.803807136779113 10.38444223933332" Properties=species:S:1:pos:R:3:initial_magmoms:R:1:castep_labels:S:1:forces:R:3 n_minim_iter=2 energy=-68.448971103464 stress="0.0038753718385499047 -0.0012865308790842925 -0.00022380167172950387 -0.0012865308790842925 -0.00011999706891120286 -8.081205235691839e-05 -0.00022380167172950387 -8.081205235691839e-05 0.0003320770482486293" free_energy=-68.448971103464 pbc="T T T"
P        4.23711266       8.04777612       7.72757821       0.00000000 NULL      -0.04424100       0.01269100      -0.07030500
P        3.78558960       5.44193186       2.95226861       0.00000000 NULL      -0.25764700       0.12241300       0.00877900
P        6.53909196       7.38221458       8.10378152       0.00000000 NULL       0.06218200      -0.30007000       0.22014800
P        3.89374243       3.74325405       5.01643530       0.00000000 NULL       0.12405100       0.08079000      -0.49919700
P        3.39371011       3.90832057       1.40685854       0.00000000 NULL      -0.09502200       0.07748500      -0.17059800
P        7.41846260       5.98143589       6.56410064       0.00000000 NULL       0.07103100       0.31188500       0.00457300
P        9.44956358       7.09989073       5.98441845       0.00000000 NULL      -0.34533600      -0.18816400       0.14252700
P        4.92449311       1.28180280       0.57904275       0.00000000 NULL       0.01879800      -0.14502100      -0.16153600
P        3.06106134       4.84888933       8.00246145       0.00000000 NULL       0.10179300       0.13936000      -0.37765300
P        3.00983879       6.79221840       9.13644902       0.00000000 NULL       0.20239800       0.07234400      -0.20712500
P        3.72250593       1.83784289       2.37963802       0.00000000 NULL      -0.09796800      -0.00477600       0.57798700
P        4.78610509       5.10106627       6.45481975       0.00000000 NULL       0.09862400      -0.14708100       0.62501400
P        5.45598490       3.09975493       1.76873588       0.00000000 NULL       0.16133800      -0.03185600      -0.09261400
13
Lattice="5.538526725776093 0.09849689574417367 0.18151285244817272 2.6924584644451244 5.47213256650958 1.8467987050436732 1.0255397768726058 4.842247233781549 10.29566427147881" Properties=species:S:1:pos:R:3:initial_magmoms:R:1:castep_labels:S:1:forces:R:3 n_minim_iter=3 energy=-68.477449537439 stress="-0.003846944635202311 0.0009746230884788108 -0.0001700271078259524 0.0009746230884788108 -0.004756243331815513 0.002402613529290293 -0.0001700271078259524 0.002402613529290293 -0.006968317817696979" free_energy=-68.477449537439 pbc="T T T"
P        4.21183091       8.08681893       7.66815371       0.00000000 NULL      -0.06088400       0.17285600      -0.05859600
P        3.76065955       5.46579985       2.93453961       0.00000000 NULL      -0.05204600       0.02066000       0.05321000
P        6.49463919       7.42538893       8.03994717       0.00000000 NULL      -0.00018600      -0.22837800       0.29920900
P        3.86707810       3.77323510       4.96188366       0.00000000 NULL       0.15965000       0.18340100      -0.44671800
P        3.37148286       3.92616639       1.39676707       0.00000000 NULL      -0.19635100       0.12901600      -0.22156400
P        7.36530239       6.03468835       6.50656553       0.00000000 NULL      -0.13873900       0.27002600      -0.22051800
P        9.37536466       7.14672161       5.93654243       0.00000000 NULL      -0.24186600      -0.12256900      -0.10513400
P        4.88765087       1.29656907       0.56385309       0.00000000 NULL      -0.16386000      -0.01355400      -0.17633400
P        3.03814024       4.88923705       7.92475735       0.00000000 NULL       0.16090500      -0.05502800      -0.11928200
P        2.99472289       6.83424597       9.05775222       0.00000000 NULL       0.21238200       0.00765200       0.06495800
P        3.68922898       1.85835749       2.36884764       0.00000000 NULL      -0.10901100       0.00696500       0.53530700
P        4.75387875       5.13481708       6.41233811       0.00000000 NULL       0.24899500      -0.28120500       0.49686900
P        5.42518083       3.12232173       1.74959728       0.00000000 NULL       0.18101200      -0.08984200      -0.10140800
13
Lattice="5.529219622751173 0.11025771471411062 0.16992155976168125 2.6946861560017465 5.533126163241843 1.8410827022115537 1.0097220114219576 4.885975672829031 10.314225547333008" Properties=species:S:1:pos:R:3:initial_magmoms:R:1:castep_labels:S:1:forces:R:3 n_minim_iter=4 energy=-68.513139053268 stress="-0.0002484839178673208 0.0014386787422546554 -0.00042173389898163613 0.0014386787422546554 0.005793580790469998 0.0022410857648773787 -0.00042173389898163613 0.0022410857648773787 -0.00020583369315875082" free_energy=-68.513139053268 pbc="T T T"
P        4.20056109       8.17405698       7.66774627       0.00000000 NULL      -0.06549300       0.08361200      -0.05826500
P        3.75055948       5.53061726       2.92970961       0.00000000 NULL      -0.00865200      -0.14299200      -0.01475700
P        6.48149844       7.50023161       8.04643862       0.00000000 NULL       0.00687000       0.06210700       0.09582600
P        3.86213154       3.81806415       4.94557957       0.00000000 NULL       0.21195200       0.08988200      -0.02692000
P        3.36314754       3.97687145       1.38397760       0.00000000 NULL       0.02273000       0.01556200      -0.02672800
P        7.35059342       6.11824024       6.50119882       0.00000000 NULL      -0.16465400       0.25536200      -0.23725500
P        9.34818460       7.22865404       5.93055278       0.00000000 NULL      -0.09347600      -0.25931500      -0.04690500
P        4.88042551       1.31487077       0.54616149       0.00000000 NULL      -0.28222600       0.20788900       0.11346500
P        3.02872358       4.94350793       7.92056964       0.00000000 NULL       0.11850600       0.00183800       0.00708900
P        2.99118079       6.90603601       9.06093110       0.00000000 NULL       0.23044500      -0.03030900      -0.00629400
P        3.67518172       1.88357588       2.38698925       0.00000000 NULL       0.12517700       0.26952600       0.15427900
P        4.74762462       5.18540509       6.43435492       0.00000000 NULL       0.06464900      -0.27964400       0.20389100
P        5.42982335       3.16199460       1.73614997       0.00000000 NULL      -0.16582900      -0.27351800      -0.15742600
13
Lattice="5.5281512551761125 0.09367876468025693 0.16878477797584146 2.6798657160415758 5.4664863835373865 1.8103390353146052 0.9954927681587238 4.7751851029040795 10.307151653799018" Properties=species:S:1:pos:R:3:initial_magmoms:R:1:castep_labels:S:1:forces:R:3 n_minim_iter=5 energy=-68.53402418354 stress="-0.00035990868412576926 -0.00020681035627845062 0.00016224080077176668 -0.00020681035627845062 0.0003861552001463721 -0.002521265470739645 0.00016224080077176668 -0.002521265470739645 -0.0012062731151065422" free_energy=-68.53402418354 pbc="T T T"
P        4.17566332       8.04480373       7.63124394       0.00000000 NULL       0.03880700       0.23353900       0.04558800
P        3.73079786       5.45441534       2.90149325       0.00000000 NULL      -0.02029000      -0.01725500       0.07919700
P        6.46095216       7.36266437       8.02205528       0.00000000 NULL      -0.03136200       0.24257300       0.08032200
P        3.85622193       3.74541988       4.92256178       0.00000000 NULL       0.17106200      -0.06281300       0.02877300
P        3.34830215       3.92737545       1.35824259       0.00000000 NULL       0.10154400      -0.18691700      -0.07269400
P        7.33149116       6.01350482       6.47440852       0.00000000 NULL      -0.15087100       0.05122900      -0.27263000
P        9.31957001       7.09771869       5.90034232       0.00000000 NULL       0.00044000      -0.25607500      -0.11295300
P        4.87316090       1.28681366       0.53535072       0.00000000 NULL      -0.32700100       0.08973000       0.10568700
P        3.01797400       4.84450410       7.90017262       0.00000000 NULL       0.00460900      -0.19178800      -0.05321000
P        2.97892705       6.78156230       9.03423692       0.00000000 NULL       0.19567500       0.11174300       0.09840100
P        3.66714842       1.84528555       2.39405002       0.00000000 NULL       0.16612200       0.28806500       0.04791000
P        4.73683092       5.08027602       6.42980300       0.00000000 NULL       0.05992900      -0.19731000       0.09369100
P        5.42555325       3.10539030       1.71613896       0.00000000 NULL      -0.20866200      -0.10472200      -0.06808200
13
Lattice="5.53175553284885 0.09014611549179737 0.16736327911128535 2.676604390727063 5.437324593923404 1.8476382054590679 0.9862361354915687 4.796217740305214 10.393851859877758" Properties=species:S:1:pos:R:3:initial_magmoms:R:1:castep_labels:S:1:forces:R:3 n_minim_iter=6 energy=-68.546875643776 stress="-0.0002653205685233028 -0.0007179083179311076 0.0006959284230225727 -0.0007179083179311076 -0.0014817572827594304 0.0012990232171160299 0.0006959284230225727 0.0012990232171160299 0.0023851042981164446" free_energy=-68.546875643776 pbc="T T T"
P        4.16705647       8.03178230       7.71559353       0.00000000 NULL       0.07388200       0.22839800      -0.13547500
P        3.72436977       5.43022234       2.94603261       0.00000000 NULL      -0.01860700      -0.06040600      -0.03368100
P        6.45499802       7.35126263       8.10923886       0.00000000 NULL      -0.02638700       0.10184100       0.01649300
P        3.85870087       3.74371900       4.96368334       0.00000000 NULL       0.21175400       0.06780500       0.14286300
P        3.34597979       3.90468912       1.38137158       0.00000000 NULL       0.09906800      -0.07588500      -0.01237000
P        7.32513494       6.00807037       6.53552408       0.00000000 NULL      -0.16890600       0.04041200      -0.11149100
P        9.31223201       7.06714661       5.96751842       0.00000000 NULL       0.07579800      -0.06614800       0.00712300
P        4.86856426       1.27865817       0.54216448       0.00000000 NULL      -0.37907900       0.11541000       0.20178200
P        3.01388628       4.84983367       7.96621827       0.00000000 NULL      -0.03183400      -0.21003400      -0.01097300
P        2.97760299       6.78319355       9.12113004       0.00000000 NULL       0.14895000       0.00919000       0.04400300
P        3.66771846       1.84865292       2.42540847       0.00000000 NULL       0.16993800       0.16522000      -0.00557600
P        4.73572367       5.06963030       6.50216722       0.00000000 NULL       0.02123700      -0.25948900      -0.02187700
P        5.42588723       3.08589184       1.73646084       0.00000000 NULL      -0.17581500      -0.05631300      -0.08082100
13
Lattice="5.544735464438146 0.1311651653773604 0.11787092040928446 2.708402863602053 5.466389887932893 1.8046097585141625 0.9326842000004912 4.8032886288504235 10.299588546007106" Properties=species:S:1:pos:R:3:initial_magmoms:R:1:castep_labels:S:1:forces:R:3 n_minim_iter=7 energy=-68.593313005149 stress="0.00037131680062471193 0.0007621665315684714 -0.0012657033047442311 0.0007621665315684714 -0.0014556428952635014 0.000491304801156004 -0.0012657033047442311 0.000491304801156004 0.0015465035124227501" free_energy=-68.593313005149 pbc="T T T"
P        4.17163569       8.09219964       7.60392274       0.00000000 NULL      -0.08060000       0.00171700      -0.05628200
P        3.73963678       5.46344925       2.88724608       0.00000000 NULL       0.02238400      -0.04194000      -0.00214100
P        6.45375946       7.41191598       7.99490679       0.00000000 NULL       0.02797900       0.15512700      -0.07908200
P        3.87680602       3.77953672       4.87760685       0.00000000 NULL       0.14586100      -0.01209100       0.14942600
P        3.37430343       3.92981946       1.32824647       0.00000000 NULL      -0.09277800       0.10711800      -0.08605100
P        7.31634856       6.08605033       6.39743440       0.00000000 NULL      -0.08931000      -0.00422300      -0.09282700
P        9.32666499       7.12284308       5.83318390       0.00000000 NULL       0.14161400      -0.11070200       0.00740400
P        4.85111999       1.32423856       0.50242798       0.00000000 NULL      -0.37222500      -0.10944400       0.06046200
P        2.99230285       4.86185595       7.85914503       0.00000000 NULL       0.03218700      -0.06127400       0.09197600
P        2.98101575       6.81643998       9.01638441       0.00000000 NULL       0.23052900      -0.00281400      -0.03865600
P        3.67933552       1.89926082       2.39656215       0.00000000 NULL       0.05710700       0.13247900      -0.01835300
P        4.73771970       5.08003458       6.42986511       0.00000000 NULL       0.01271500      -0.09904300       0.02622700
P        5.43917145       3.11842386       1.66187762       0.00000000 NULL      -0.03546100       0.04509000       0.03789900
13
Lattice="5.536845609331145 0.12064307523602524 0.13785698475117603 2.7003446711045362 5.4857934041068575 1.8063578840020549 0.962402207518272 4.825057470163874 10.247447555731316" Properties=species:S:1:pos:R:3:initial_magmoms:R:1:castep_labels:S:1:forces:R:3 n_minim_iter=8 energy=-68.604676312002 stress="-0.0005721673085762988 -0.0016282049746934116 0.0020685400299875626 -0.0016282049746934116 0.0002982704730508596 0.0009657862252800608 0.0020685400299875626 0.0009657862252800608 -0.00035360936076580775" free_energy=-68.604676312002 pbc="T T T"
P        4.17769689       8.12719579       7.57729792       0.00000000 NULL      -0.00977800      -0.01873100      -0.11319000
P        3.73171633       5.47985524       2.88763897       0.00000000 NULL      -0.07274500       0.00075700      -0.04605300
P        6.46119239       7.43775163       7.97960698       0.00000000 NULL       0.05265200       0.13862000      -0.05095900
P        3.89197674       3.79047743       4.86415600       0.00000000 NULL       0.16614500      -0.02969700       0.13567700
P        3.36512036       3.94101821       1.33024453       0.00000000 NULL      -0.08664100       0.13268200      -0.04807700
P        7.31318713       6.10564417       6.38430016       0.00000000 NULL      -0.06493400      -0.05528400      -0.04246400
P        9.32026122       7.12824315       5.83771444       0.00000000 NULL       0.26601200      -0.13658000      -0.05065900
P        4.82763919       1.32038867       0.52055930       0.00000000 NULL      -0.22968600      -0.19011200       0.02453400
P        3.01151659       4.87534789       7.82492840       0.00000000 NULL      -0.11977400       0.05241900       0.17966700
P        3.01021088       6.84488358       8.97819706       0.00000000 NULL       0.09309300      -0.10165800       0.02623700
P        3.68285230       1.90958875       2.40535498       0.00000000 NULL      -0.05143300       0.10163200       0.08993300
P        4.74919628       5.08485049       6.42229231       0.00000000 NULL       0.03763900       0.02237300      -0.09596800
P        5.42911845       3.11878695       1.67130188       0.00000000 NULL       0.01945000       0.08357900      -0.00867700
13
Lattice="5.507736936316686 0.17792584265155226 0.10300669666511134 2.732400398822908 5.535533406299241 1.7613380846970594 0.9425479494500758 4.827866946087772 10.158590543837919" Properties=species:S:1:pos:R:3:initial_magmoms:R:1:castep_labels:S:1:forces:R:3 n_minim_iter=9 energy=-68.662025521276 stress="0.0011396556159230496 0.0009757558142291982 0.00266200144239552 0.0009757558142291982 -0.00018713759741210352 0.0011049919272934975 0.00266200144239552 0.0011049919272934975 0.0001330190100416891" free_energy=-68.662025521276 pbc="T T T"
P        4.17947650       8.19547128       7.46305038       0.00000000 NULL       0.05396700      -0.16096200      -0.13502200
P        3.73627121       5.53396937       2.83055182       0.00000000 NULL      -0.11797400       0.05470800      -0.03952800
P        6.46338505       7.54609120       7.86650625       0.00000000 NULL       0.00953000       0.09476500      -0.07466700
P        3.92424468       3.83114825       4.79810938       0.00000000 NULL       0.12274100      -0.02228200       0.05388000
P        3.35884179       4.01075175       1.26667575       0.00000000 NULL      -0.03268200       0.06879800      -0.01063700
P        7.27765567       6.20692565       6.25219330       0.00000000 NULL       0.01482800      -0.09271000      -0.01442600
P        9.32800211       7.19466780       5.71671361       0.00000000 NULL       0.13675600      -0.04047300      -0.12124200
P        4.73650540       1.34640422       0.48857223       0.00000000 NULL      -0.02749000       0.07665800       0.21796400
P        2.99759071       4.90499369       7.74483949       0.00000000 NULL      -0.03607300       0.06135500       0.15256600
P        3.06448355       6.88274517       8.87054331       0.00000000 NULL      -0.01519900      -0.06909900       0.16704700
P        3.66971942       1.98944683       2.39778795       0.00000000 NULL      -0.06057700       0.22547500      -0.06861000
P        4.75095902       5.11334335       6.36423588       0.00000000 NULL       0.19042700       0.03898000       0.04011400
P        5.42327123       3.18588337       1.61307720       0.00000000 NULL      -0.23825300      -0.23521300      -0.16743800
13
Lattice="5.4472171051929985 0.15794901094753436 0.041524284313106556 2.6628965374116156 5.559837701311529 1.7195644075404466 0.79564697084502 4.842691915128753 10.11027629797828" Properties=species:S:1:pos:R:3:initial_magmoms:R:1:castep_labels:S:1:forces:R:3 n_minim_iter=10 energy=-68.692370322528 stress="-0.001277654011473664 -0.0010933265114162858 0.0005046840286381133 -0.0010933265114162858 0.0007737477360003498 0.0012780040003978236 0.0005046840286381133 0.0012780040003978236 0.0004855901884422962" free_energy=-68.692370322528 pbc="T T T"
P        4.01175896       8.22438145       7.37567766       0.00000000 NULL       0.14016000      -0.13786100      -0.12805700
P        3.63370207       5.55304242       2.77509771       0.00000000 NULL      -0.09562000       0.06842400       0.00878900
P        6.27979434       7.57745454       7.76134181       0.00000000 NULL       0.06143000       0.00725400      -0.16441500
P        3.83592184       3.83241837       4.73495860       0.00000000 NULL       0.08061100      -0.12416300      -0.05701000
P        3.28198417       4.03419376       1.20930370       0.00000000 NULL      -0.10280100       0.05976800      -0.04851300
P        7.09547039       6.21839701       6.13121619       0.00000000 NULL      -0.11483700      -0.08713900      -0.01091400
P        9.14656206       7.17435384       5.58346408       0.00000000 NULL       0.12727500      -0.05627500      -0.15564000
P        4.63771174       1.32341861       0.43892211       0.00000000 NULL      -0.01892900       0.11154800       0.27593300
P        2.85763851       4.91623907       7.68541232       0.00000000 NULL      -0.02629200       0.07492400       0.16877600
P        2.93080249       6.90469283       8.79839789       0.00000000 NULL       0.01893900      -0.09906200       0.25403400
P        3.59446672       2.00993511       2.36512683       0.00000000 NULL      -0.14453100       0.19784500      -0.19871100
P        4.61825660       5.10840688       6.30282439       0.00000000 NULL       0.23227600       0.19715200       0.24793800
P        5.33175694       3.17972682       1.53967092       0.00000000 NULL      -0.15768200      -0.21241500      -0.19220900
13
Lattice="5.372268718578481 0.20381257814937384 -0.05654239812274058 2.6406179218032046 5.678194878304004 1.6123056211177487 0.6391611367256511 4.886820704023055 9.886585194449736" Properties=species:S:1:pos:R:3:initial_magmoms:R:1:castep_labels:S:1:forces:R:3 n_minim_iter=11 energy=-68.788468141652 stress="-0.0020980618404264953 0.0006187492381758436 0.00012802388175345465 0.0006187492381758436 0.0023172440882452366 0.0019008411885845548 0.00012802388175345465 0.0019008411885845548 0.00011173996947622129" free_energy=-68.788468141652 pbc="T T T"
P        3.88325815       8.35965653       7.09593575       0.00000000 NULL       0.10610700      -0.24404800      -0.04201100
P        3.54020489       5.68314597       2.63960907       0.00000000 NULL      -0.00522300      -0.07194800       0.04166800
P        6.13477004       7.77732053       7.45456669       0.00000000 NULL       0.07910300      -0.01965600      -0.12712900
P        3.80138358       3.88703957       4.54506087       0.00000000 NULL       0.26986100       0.14893500       0.23422400
P        3.20242057       4.16808698       1.06737790       0.00000000 NULL      -0.05703100       0.06358100      -0.04396500
P        6.90244738       6.37269333       5.82128841       0.00000000 NULL       0.02225800      -0.16438500      -0.03920100
P        9.01239711       7.27127264       5.25840278       0.00000000 NULL      -0.06115600      -0.09742500      -0.17823500
P        4.46476906       1.35078962       0.38054036       0.00000000 NULL       0.08047900       0.10444700       0.12007100
P        2.72101203       5.00002260       7.48745007       0.00000000 NULL       0.10098100       0.18590400       0.11811200
P        2.87111707       7.00801327       8.56097080       0.00000000 NULL       0.01926100      -0.01055600       0.32541500
P        3.50194277       2.15577791       2.28607141       0.00000000 NULL      -0.33914800       0.20667300      -0.19514000
P        4.53270739       5.19298545       6.16005488       0.00000000 NULL      -0.01625100      -0.01945700       0.03164900
P        5.23573472       3.23991351       1.37323248       0.00000000 NULL      -0.19923900      -0.08206600      -0.24545800
13
Lattice="5.350860157867899 0.24033201246887678 -0.11025994240848122 2.6494104887689423 5.762709642530092 1.5460609923714992 0.5688078911202207 4.923884499658429 9.724368539173481" Properties=species:S:1:pos:R:3:initial_magmoms:R:1:castep_labels:S:1:forces:R:3 n_minim_iter=12 energy=-68.848990627637 stress="-0.0030309395205234788 0.0015222735944450375 -0.0013819122805062154 0.0015222735944450375 0.0036632398657911293 0.0017267853449692398 -0.0013819122805062154 0.0017267853449692398 -0.0019114211717276566" free_energy=-68.848990627637 pbc="T T T"
P        3.85166265       8.44670069       6.91361384       0.00000000 NULL       0.05065300      -0.27949200      -0.07817400
P        3.50827330       5.77147703       2.56062867       0.00000000 NULL       0.07379700      -0.14642600       0.04792300
P        6.10359236       7.91906227       7.25219490       0.00000000 NULL       0.04636100      -0.01883400      -0.18625000
P        3.83526133       3.95593314       4.43700790       0.00000000 NULL       0.21319200      -0.16668700       0.10068900
P        3.17877725       4.26142790       0.97615667       0.00000000 NULL      -0.01669800       0.05747000       0.00408400
P        6.84490026       6.47270385       5.62180190       0.00000000 NULL       0.03773500      -0.04539300      -0.01365800
P        8.97479020       7.34156195       5.05023096       0.00000000 NULL      -0.14746500      -0.01303500      -0.12847000
P        4.38664619       1.36980297       0.34571565       0.00000000 NULL       0.10225300       0.24871400       0.16791200
P        2.67823159       5.07816108       7.34311274       0.00000000 NULL       0.03747800       0.19697500       0.26203600
P        2.87315835       7.09770146       8.41171106       0.00000000 NULL      -0.01823900      -0.01748700       0.25085400
P        3.44111353       2.26704702       2.23617093       0.00000000 NULL      -0.22298000       0.19505300      -0.35525000
P        4.50138124       5.24552102       6.05951282       0.00000000 NULL       0.17507100       0.19512100       0.16301300
P        5.19788219       3.29981896       1.26398506       0.00000000 NULL      -0.33115800      -0.20598100      -0.23470800
13
Lattice="5.3570308895977865 0.2710657560701045 -0.1347456396765017 2.674713528928365 5.83254076330361 1.5159779681981083 0.5505647232109107 4.954793908115409 9.682369204907939" Properties=species:S:1:pos:R:3:initial_magmoms:R:1:castep_labels:S:1:forces:R:3 n_minim_iter=13 energy=-68.894492349102 stress="-0.0013325265314693 0.0016128824014447543 -0.001659588705677858 0.0016128824014447543 0.004040351079413278 0.0015248998435128083 -0.001659588705677858 0.0015248998435128083 -0.0020365837358862554" free_energy=-68.894492349102 pbc="T T T"
P        3.86678522       8.50987817       6.83120934       0.00000000 NULL       0.04535000      -0.12044200       0.04252300
P        3.51229961       5.82682223       2.52892619       0.00000000 NULL      -0.02169300       0.01354100       0.06241500
P        6.13141848       8.03178144       7.17093047       0.00000000 NULL      -0.02269000      -0.02530000      -0.12983000
P        3.91058942       3.98311645       4.40747212       0.00000000 NULL       0.26829300      -0.05142600       0.21571900
P        3.19294327       4.33764880       0.92920979       0.00000000 NULL      -0.15999000       0.04444400      -0.01039700
P        6.86849223       6.56452464       5.54901186       0.00000000 NULL      -0.03730800      -0.07568900      -0.00440400
P        8.98241583       7.41580039       4.98131405       0.00000000 NULL      -0.04902700      -0.12081900      -0.27362900
P        4.34978721       1.39465907       0.33264559       0.00000000 NULL       0.21901300       0.29031100       0.21920700
P        2.66576473       5.15115011       7.30981320       0.00000000 NULL       0.22540400       0.18867000       0.18316300
P        2.91173177       7.17894655       8.36328471       0.00000000 NULL      -0.09868700      -0.02756600       0.23751300
P        3.42123048       2.35277971       2.21827523       0.00000000 NULL      -0.16472100       0.12794000      -0.43139000
P        4.52647508       5.30633962       6.04236532       0.00000000 NULL      -0.02279100       0.12392400       0.12853900
P        5.17607698       3.35473734       1.20910502       0.00000000 NULL      -0.18115300      -0.36758600      -0.23942900
13
Lattice="5.345518684427217 0.3333005805433943 -0.16107225859215796 2.720759532046154 5.978769136670009 1.4837717251603837 0.5497478772359209 5.028762662636703 9.683591019491365" Properties=species:S:1:pos:R:3:initial_magmoms:R:1:castep_labels:S:1:forces:R:3 n_minim_iter=14 energy=-68.984418202415 stress="0.00041863547759869057 0.001360488205422706 -0.0015021535258808263 0.001360488205422706 0.0067976610271851465 0.0024908039949391703 -0.0015021535258808263 0.0024908039949391703 0.0011199848219293146" free_energy=-68.984418202415 pbc="T T T"
P        3.90404260       8.68238188       6.75275200       0.00000000 NULL      -0.26212300      -0.20769500      -0.07421900
P        3.49687506       5.96983486       2.50674509       0.00000000 NULL       0.02670600      -0.07801300      -0.07757400
P        6.16984545       8.26792702       7.10164143       0.00000000 NULL       0.05210500      -0.07581600       0.00784300
P        4.08888791       4.03777670       4.43216118       0.00000000 NULL       0.34282800      -0.01085200       0.27121700
P        3.17605857       4.49702368       0.86758582       0.00000000 NULL       0.09762600      -0.17943200       0.26804800
P        6.89836260       6.75429732       5.50572168       0.00000000 NULL      -0.14969100      -0.03066100      -0.03393500