5
Lattice="3.5814468224134424 0.22560848893029029 -0.42798441364805745 -0.8947667926482809 3.4025511936434256 -0.3350240011971011 -1.673845786912119 -1.87703146426927 11.677540450038542" Properties=species:S:1:pos:R:3:initial_magmoms:R:1:castep_labels:S:1:forces:R:3 n_minim_iter=1 energy=-24.989334845023 stress="0.005954004422376975 -0.0023070995855439956 0.00578625971435975 -0.0023070995855439956 0.006763885630289048 0.002273163209627765 0.00578625971435975 0.002273163209627765 0.0019766324661567697" free_energy=-24.989334845023 pbc="T T T"
P        0.98604121       1.11113453       0.96371301       0.00000000 NULL      -0.04466800      -0.08668400      -0.27177800
P       -1.30770697       1.20078444       7.13798172       0.00000000 NULL       0.10205700       0.31594700       0.52016700
P       -1.00875998       0.77236866      11.11694828       0.00000000 NULL      -0.23486900       0.14244100       0.67083900
P       -0.25616341      -0.69370866       9.18853533       0.00000000 NULL       0.05179100       0.44855000      -0.31699300
P        0.62888130       1.45933583       8.55649292       0.00000000 NULL       0.12569000      -0.82025300      -0.60223400
5
Lattice="3.498973882191921 0.26088815491525874 -0.5212719938668344 -0.8260312109972021 3.2918391257561996 -0.3441207064155989 -1.9573146133196357 -1.9592697205554552 11.639598355102462" Properties=species:S:1:pos:R:3:initial_magmoms:R:1:castep_labels:S:1:forces:R:3 n_minim_iter=2 energy=-25.057252900877 stress="-0.010020334080205326 0.001686864669539138 0.007212707952023797 0.001686864669539138 -0.01880338315076007 -0.0036290518727310284 0.007212707952023797 -0.0036290518727310284 -0.023150625664181" free_energy=-25.057252900877 pbc="T T T"
P        0.94456598       1.07448292       0.90869613       0.00000000 NULL      -0.05091200      -0.00515600       0.48585300
P       -1.44563330       1.08524978       7.11466853       0.00000000 NULL      -0.00688800      -0.04409300      -0.53070000
P       -1.27550314       0.62569823      11.06085001       0.00000000 NULL      -0.27996100       0.20977200       0.11926100
P       -0.49732887      -0.75675370       9.11176330       0.00000000 NULL       0.10778800       0.92117700       0.25020400
P        0.40554690       1.30510144       8.43023428       0.00000000 NULL       0.22997200      -1.08170000      -0.32461700
5
Lattice="3.4625800956124126 0.3159715235132728 -0.7752812610447035 -0.737781244889652 3.2551191393140626 -0.3378328939178146 -2.7101106723405466 -2.0938835419130695 12.298991637904141" Properties=species:S:1:pos:R:3:initial_magmoms:R:1:castep_labels:S:1:forces:R:3 n_minim_iter=3 energy=-25.223491692814 stress="-0.024651137432521095 0.0010142936947560612 -0.0032107494707848427 0.0010142936947560612 -0.015265436192196705 -0.0036382654660289497 -0.0032107494707848427 -0.0036382654660289497 -0.021719000737542942" free_energy=-25.223491692814 pbc="T T T"
P        0.87720061       1.06474007       0.86987132       0.00000000 NULL      -0.07326200       0.02309700       0.16073600
P       -1.86277747       0.99656376       7.53170025       0.00000000 NULL      -0.86248300       0.04247700      -1.28028900
P       -1.98853586       0.49546254      11.66922071       0.00000000 NULL      -0.05343600       0.23948600       0.09156200
P       -1.09013532      -0.81162113       9.53675132       0.00000000 NULL       0.40677800       0.45344000       0.52021700
P       -0.12571272       1.14751671       8.71956620       0.00000000 NULL       0.58240300      -0.75850000       0.50777400
5
Lattice="3.5528904030229387 0.3582101691734853 -0.8417929579806841 -0.71199312606388 3.1855980526996017 -0.35774314237946986 -2.952646436619957 -2.172545915881038 12.58116542830158" Properties=species:S:1:pos:R:3:initial_magmoms:R:1:castep_labels:S:1:forces:R:3 n_minim_iter=4 energy=-25.292130226418 stress="-0.01506876016820529 0.002816558603165599 -4.2686437417485104e-05 0.002816558603165599 -0.022501349516927782 -0.00641550288794818 -4.2686437417485104e-05 -0.00641550288794818 -0.019453522959991577" free_energy=-25.292130226418 pbc="T T T"
P        0.89615593       1.04655544       0.85332846       0.00000000 NULL      -0.25612200       0.36185800       0.51009900
P       -1.99924052       0.91441463       7.69076116       0.00000000 NULL      -0.52232500       0.01766700      -1.02066200
P       -2.18683795       0.38695139      11.93895831       0.00000000 NULL       0.13211300      -0.09192100      -0.38299900
P       -1.23722349      -0.85871829       9.72882329       0.00000000 NULL       0.61174600       0.42924500       0.46070600
P       -0.21509760       1.02964909       8.86312942       0.00000000 NULL       0.03458900      -0.71685000       0.43285600
5
Lattice="3.6178501073355274 0.40962929202082804 -0.8940729686726805 -0.6676047634512638 3.1750444148880153 -0.305764380217933 -3.18870585122522 -2.073957978616293 12.563776509144924" Properties=species:S:1:pos:R:3:initial_magmoms:R:1:castep_labels:S:1:forces:R:3 n_minim_iter=5 energy=-25.384361282376 stress="-0.014734613437614438 -0.001549614324963476 0.00043763622381989256 -0.001549614324963476 -0.027710272991323743 0.004908267650294871 0.00043763622381989256 0.004908267650294871 -0.02049683601175271" free_energy=-25.384361282376 pbc="T T T"
P        0.88829579       1.09351394       0.83680515       0.00000000 NULL      -0.25152300      -0.60706600       1.06055900
P       -2.13898616       1.01288287       7.70907111       0.00000000 NULL      -0.45014600       0.02116700      -0.83773200
P       -2.35715674       0.49072671      11.96827144       0.00000000 NULL       0.20888200       0.85861700      -1.12839900
P       -1.33734444      -0.73878398       9.68791157       0.00000000 NULL       0.42400700       0.19325200       0.64445600
P       -0.32566371       1.06029469       8.85825171       0.00000000 NULL       0.06877900      -0.46596900       0.26111500
5
Lattice="3.723349063524444 0.5557936811821454 -0.9768015200071509 -0.5522396384616439 3.217397781207367 -0.32427338403443057 -3.5686892240332684 -2.3172378711722654 12.566659542344086" Properties=species:S:1:pos:R:3:initial_magmoms:R:1:castep_labels:S:1:forces:R:3 n_minim_iter=6 energy=-25.5194631791 stress="-0.011654879432432671 0.0007226395832509923 0.0026354417352539403 0.0007226395832509923 -0.027387475028229368 0.0017802359558081074 0.0026354417352539403 0.0017802359558081074 -0.018819892752079573" free_energy=-25.5194631791 pbc="T T T"
P        0.88600060       1.15599010       0.79356720       0.00000000 NULL      -0.46102400      -0.53036900       0.96790700
P       -2.33005165       0.96243451       7.68958159       0.00000000 NULL      -0.45996300      -0.12873200      -0.88616200
P       -2.58756821       0.34267900      11.94559248       0.00000000 NULL       0.44057100       0.82353100      -1.11892800
P       -1.48554109      -0.83277128       9.62496038       0.00000000 NULL      -0.31314300      -0.15889700       1.13369300
P       -0.47843292       0.89365906       8.79905375       0.00000000 NULL       0.79355900      -0.00553400      -0.09651000
5
Lattice="3.8355521026996904 0.6805290245940546 -1.0905780980844337 -0.45085403626932213 3.2898007249739925 -0.28384868996085294 -4.070832845880107 -2.416522203832572 12.402572432094738" Properties=species:S:1:pos:R:3:initial_magmoms:R:1:castep_labels:S:1:forces:R:3 n_minim_iter=7 energy=-25.65398210487 stress="-0.00023902064007427613 0.0012761318982968538 -0.00040703602841974236 0.0012761318982968538 -0.008785515544360615 0.00048399927264307233 -0.00040703602841974236 0.00048399927264307233 -0.0056774060950428576" free_energy=-25.65398210487 pbc="T T T"
P        0.83736390       1.22940384       0.74494227       0.00000000 NULL      -0.29064600      -0.62897200       0.37103600
P       -2.62441432       1.02930515       7.60123629       0.00000000 NULL      -0.28304900      -0.14566500      -0.60610300
P       -2.91420960       0.36976384      11.77835979       0.00000000 NULL       0.25575400       0.87524000      -0.67273300
P       -1.77384791      -0.83784571       9.47539571       0.00000000 NULL       0.08108600      -0.30084200       0.71668100
P       -0.67696320       0.85511340       8.59599829       0.00000000 NULL       0.23685500       0.20023900       0.19111900
5
Lattice="3.79979073766719 0.6793212027021054 -1.1091635459481128 -0.43704034407930503 3.281007823576056 -0.2525992490992198 -4.117115797845579 -2.3209252944919867 12.427605428611173" Properties=species:S:1:pos:R:3:initial_magmoms:R:1:castep_labels:S:1:forces:R:3 n_minim_iter=8 energy=-25.691638553906 stress="-0.003181197639121865 0.00044944150887580274 4.588743194613294e-05 0.00044944150887580274 -0.009258551821551827 0.0036841863058328 4.588743194613294e-05 0.0036841863058328 4.879529084843811e-05" free_energy=-25.691638553906 pbc="T T T"
P        0.79236474       1.21841061       0.75140416       0.00000000 NULL      -0.16427100      -0.34360500       0.07441500
P       -2.66644956       1.09959575       7.62542443       0.00000000 NULL      -0.22355500       0.04179600      -0.35394200
P       -2.93939616       0.49272152      11.81949335       0.00000000 NULL       0.17814400       0.49471200      -0.44861100
P       -1.80043541      -0.76011162       9.50771957       0.00000000 NULL      -0.21603300      -0.84883600       0.67836800
P       -0.72390060       0.88516846       8.62643876       0.00000000 NULL       0.42571500       0.65593300       0.04977000
5
Lattice="3.782235596760391 0.6306802765399601 -1.183111704873554 -0.47741054264058974 3.410319686247554 -0.2301423314196237 -4.347332067903616 -2.3775970968532345 12.206930338592764" Properties=species:S:1:pos:R:3:initial_magmoms:R:1:castep_labels:S:1:forces:R:3 n_minim_iter=9 energy=-25.754017762113 stress="-0.001145263167027946 0.001716971494857226 -0.002273694672727254 0.001716971494857226 0.00018053199619155646 0.0012554856918467092 -0.002273694672727254 0.0012554856918467092 -0.0003044613169446115" free_energy=-25.754017762113 pbc="T T T"
P        0.72919865       1.21894555       0.66337809       0.00000000 NULL      -0.40454800       0.16199600       0.31572900
P       -2.86381611       1.20008490       7.45622295       0.00000000 NULL      -0.43199100       0.15645200      -0.40816000
P       -3.20659467       0.58178434      11.62283227       0.00000000 NULL       0.44856400      -0.11935500      -0.75090100
P       -1.96725952      -0.84287989       9.33109857       0.00000000 NULL      -0.10597900      -0.67355100       0.70835400
P       -0.94279304       0.85891132       8.44072518       0.00000000 NULL       0.49395400       0.47445800       0.13497900
5
Lattice="3.7500613889899284 0.5289295613128774 -1.2606980827005723 -0.5629720148494508 3.419094918453527 -0.26057285494087673 -4.507757567527192 -2.471940607135885 12.359585469458231" Properties=species:S:1:pos:R:3:initial_magmoms:R:1:castep_labels:S:1:forces:R:3 n_minim_iter=10 energy=-25.810869955671 stress="0.0010643544056973602 -0.003906273358923714 -0.004510195507029183 -0.003906273358923714 -0.002777898175836471 -0.0037001278927827753 -0.004510195507029183 -0.0037001278927827753 -0.002318112592763669" free_energy=-25.810869955671 pbc="T T T"
P        0.64998252       1.18412008       0.62634986       0.00000000 NULL      -0.32724400       0.23188800       0.00701800
P       -3.04880047       1.18542218       7.48691859       0.00000000 NULL      -0.45371600      -0.15948300      -0.73785500
P       -3.44041368       0.47499378      11.71751754       0.00000000 NULL       0.42425700      -0.05835000      -0.41360600
P       -2.10470503      -1.01705671       9.44855173       0.00000000 NULL       0.00763800      -0.35075500       1.02575300
P       -1.14613443       0.69841821       8.50103386       0.00000000 NULL       0.34906500       0.33669900       0.11869000
5
Lattice="3.6494673626019645 0.5171997691404442 -1.3199263117813078 -0.5482378892821106 3.4266015890242683 -0.29673491596831497 -4.6080729692019435 -2.6082301126051166 12.619458528241568" Properties=species:S:1:pos:R:3:initial_magmoms:R:1:castep_labels:S:1:forces:R:3 n_minim_iter=11 energy=-25.884894285269 stress="-0.004608339187259065 0.0003309614097742275 -0.0043095291514372355 0.0003309614097742275 0.00045151075265724997 -0.00640654575822313 -0.0043095291514372355 -0.00640654575822313 0.0029114936676620136" free_energy=-25.884894285269 pbc="T T T"
P        0.59433828       1.19160203       0.58795208       0.00000000 NULL      -0.46836700       0.41101700      -0.14603500
P       -3.11868078       1.15941226       7.55541254       0.00000000 NULL      -0.39652900      -0.00925300      -0.42117400
P       -3.56441504       0.36161660      11.92468581       0.00000000 NULL       0.69240300      -0.22320300      -0.17696300
P       -2.20413023      -1.20966534       9.69852512       0.00000000 NULL       0.01136300       0.02543300       0.33169500
P       -1.28878524       0.56840392       8.65615773       0.00000000 NULL       0.16112900      -0.20399400       0.41247700
5
Lattice="3.6972349061832857 0.5078027543519369 -1.3864604308852722 -0.5590222778806443 3.4344772029006707 -0.2603382636105346 -4.876035391559765 -2.579009858056518 12.35349334660391" Properties=species:S:1:pos:R:3:initial_magmoms:R:1:castep_labels:S:1:forces:R:3 n_minim_iter=12 energy=-25.989833165411 stress="-0.0009391890794307587 0.00014446754787825585 -0.004848663947247319 0.00014446754787825585 0.004050567005697661 -0.0050185595837708135 -0.004848663947247319 -0.0050185595837708135 0.0014752791960901018" free_energy=-25.989833165411 pbc="T T T"
P        0.55014486       1.21853771       0.52303265       0.00000000 NULL      -0.30695500       0.28839300      -0.40155700
P       -3.28843588       1.24284904       7.35294358       0.00000000 NULL      -0.27317600      -0.06423800      -0.32095800
P       -3.76138398       0.44871575      11.61744879       0.00000000 NULL       0.45837900      -0.24313600       0.31099200
P       -2.40895853      -1.25928201       9.55037715       0.00000000 NULL       0.25578300       0.27412200       0.25147400
P       -1.49796680       0.52112948       8.46658763       0.00000000 NULL      -0.13403100      -0.25514200       0.16004800
5
Lattice="3.667153323861239 0.47682996363742236 -1.357859181826637 -0.5893523040936776 3.470503864998936 -0.28941606370653067 -4.75657195561084 -2.6599077622810774 12.276667216604926" Properties=species:S:1:pos:R:3:initial_magmoms:R:1:castep_labels:S:1:forces:R:3 n_minim_iter=13 energy=-26.006915096559 stress="0.0026626679517779074 -0.00282441775449118 -0.0004626901608994737 -0.00282441775449118 0.00850664094938925 -0.00585359827643389 -0.0004626901608994737 -0.00585359827643389 0.004180002921163504" free_energy=-26.006915096559 pbc="T T T"
P        0.52669330       1.22354020       0.49337224       0.00000000 NULL      -0.30814200       0.26888100      -0.34942800
P       -3.24014721       1.23504869       7.26910288       0.00000000 NULL      -0.09060800      -0.14239900      -0.09274700
P       -3.65306394       0.39107074      11.52961281       0.00000000 NULL       0.26822500      -0.19300900       0.20806100
P       -2.33098045      -1.34145068       9.53148845       0.00000000 NULL       0.30865800       0.22549700       0.04763800
P       -1.45829142       0.43550215       8.40642646       0.00000000 NULL      -0.17813300      -0.15897000       0.18647600
5
Lattice="3.707170882658685 0.4836245284495837 -1.4030917712624908 -0.5884834137623648 3.4579310483656185 -0.2945357001947988 -4.919214068937349 -2.710511727798164 12.30945220205239" Properties=species:S:1:pos:R:3:initial_magmoms:R:1:castep_labels:S:1:forces:R:3 n_minim_iter=14 energy=-26.025026614702 stress="0.0042895082464730816 -0.0025040624047944853 -0.002192258191027568 -0.0025040624047944853 0.009494645175689449 -0.006141301812287364 -0.002192258191027568 -0.006141301812287364 0.004906421722251728" free_energy=-26.025026614702 pbc="T T T"
P        0.50446587       1.22209868       0.46338765       0.00000000 NULL      -0.11221300       0.23359100      -0.45086100
P       -3.33907864       1.19519403       7.27051759       0.00000000 NULL      -0.09468800      -0.11527400      -0.09228100
P       -3.77139093       0.33626132      11.53588564       0.00000000 NULL       0.06480600      -0.13694700       0.34502500
P       -2.43476331      -1.38772814       9.56425398       0.00000000 NULL       0.29112200       0.27428600       0.00090400
P       -1.57277807       0.38784238       8.40022833       0.00000000 NULL      -0.14902800      -0.25565700       0.19721200
5
Lattice="3.7201781206971147 0.48931056712974147 -1.4110082479642212 -0.5844847200323418 3.453458627585891 -0.2876399114050262 -4.9688002268456755 -2.7115638172790253 12.185761746745237" Properties=species:S:1:pos:R:3:initial_magmoms:R:1:castep_labels:S:1:forces:R:3 n_minim_iter=15 energy=-26.042503881144 stress="0.0026117531109096513 -0.002431451120009052 -0.0024649390372721435 -0.002431451120009052 0.005926448048732741 -0.005478623264241763 -0.0024649390372721435 -0.005478623264241763 0.0011614218578063086" free_energy=-26.042503881144 pbc="T T T"
P        0.50250435       1.23048648       0.43506625       0.00000000 NULL      -0.09945600       0.18048800      -0.24556100
P       -3.37676629       1.18927711       7.19933425       0.00000000 NULL      -0.03953600      -0.12356200      -0.04608200
P       -3.80781002       0.33938692      11.40083136       0.00000000 NULL       0.15104500      -0.07334100       0.32957800
P       -2.45950362      -1.37896065       9.48707675       0.00000000 NULL       0.21799900       0.23474800      -0.03730200
P       -1.59935430       0.36864782       8.30512334       0.00000000 NULL      -0.23005400      -0.21833300      -0.00063200
5
Lattice="3.7661611337994927 0.5206148780404011 -1.3741382910472515 -0.5613653457904391 3.4143867541099584 -0.2386480892810283 -4.916055451342649 -2.534553610534876 12.031585220698249" Properties=species:S:1:pos:R:3:initial_magmoms:R:1:castep_labels:S:1:forces:R:3 n_minim_iter=16 energy=-26.062632047956 stress="0.005177494909167042 -0.0001855648475674564 -0.0010183640712878516 -0.0001855648475674564 0.002832581640807453 0.001005592709390542 -0.0010183640712878516 0.001005592709390542 0.002847709623054861" free_energy=-26.062632047956 pbc="T T T"
P        0.51471002       1.25110985       0.44000216       0.00000000 NULL      -0.01145600      -0.01351100      -0.19476600
P       -3.34364085       1.25464588       7.18618771       0.00000000 NULL      -0.08421400      -0.10764600       0.01009500
P       -3.69640415       0.52083692      11.28563392       0.00000000 NULL      -0.17867700      -0.18591800       0.12530000
P       -2.36713382      -1.22581490       9.40368898       0.00000000 NULL       0.32167500       0.19604700      -0.04307800
P       -1.51636663       0.48738835       8.21222016       0.00000000 NULL      -0.04732700       0.11102800       0.10245000
5
Lattice="3.7493363648645133 0.599105530874315 -1.2264836303196252 -0.4966591715724856 3.4616020824754425 -0.21589247756858423 -4.535982550685159 -2.4669836406867303 11.49740531033106" Properties=species:S:1:pos:R:3:initial_magmoms:R:1:castep_labels:S:1:forces:R:3 n_minim_iter=17 energy=-26.131809628151 stress="0.007713708401196937 0.003541383286076434 -0.0002646552642965464 0.003541383286076434 0.0033312226331076735 0.004685310253822149 -0.0002646552642965464 0.004685310253822149 0.0023919378766772722" free_energy=-26.131809628151 pbc="T T T"
P        0.49300945       1.28951408       0.45607925       0.00000000 NULL       0.06825000      -0.11365000      -0.08714300
P       -3.16030378       1.20913906       6.98052417       0.00000000 NULL       0.02809700      -0.01148500       0.29697400
P       -3.26860695       0.62984249      10.82928014       0.00000000 NULL      -0.23218200      -0.07574600       0.05227500
P       -1.94308784      -1.01189465       8.98570047       0.00000000 NULL       0.06286000      -0.44302500       0.30050000
P       -1.11851637       0.68581284       7.86134216       0.00000000 NULL       0.07297600       0.64390600      -0.56260600
5
Lattice="3.7523500642639562 0.5998032133138548 -1.1967665941481764 -0.4985560876597309 3.4684303447249407 -0.20415048892366128 -4.457976391250637 -2.4207047041230236 11.378587854346867" Properties=species:S:1:pos:R:3:initial_magmoms:R:1:castep_labels:S:1:forces:R:3 n_minim_iter=18 energy=-26.142282091767 stress="0.009831320401731182 0.003284989998491568 0.0007099485186773185 0.003284989998491568 0.003258269028937198 0.007783864501825201 0.0007099485186773185 0.007783864501825201 0.002110879810399974" free_energy=-26.142282091767 pbc="T T T"
P        0.48693291       1.29430594       0.46007964       0.00000000 NULL       0.05732600      -0.17781200      -0.05782800
P       -3.14034346       1.21322358       6.94256212       0.00000000 NULL       0.10725800       0.08786700       0.33852700
P       -3.19484494       0.68032813      10.73005515       0.00000000 NULL      -0.21720300      -0.03942900      -0.00711200
P       -1.84793985      -0.95355989       8.90125151       0.00000000 NULL      -0.06190400      -0.62346500       0.37263600
P       -1.04173380       0.74245953       7.77696884       0.00000000 NULL       0.11452300       0.75283900      -0.64622300
5
Lattice="3.6557433362662293 0.5752730498634026 -1.1652054322330236 -0.5063281760223206 3.497839581651809 -0.23593191767386434 -4.280858137795443 -2.485620016492529 11.479967159134704" Properties=species:S:1:pos:R:3:initial_magmoms:R:1:castep_labels:S:1:forces:R:3 n_minim_iter=19 energy=-26.202686550488 stress="0.00554225900683827 0.002843354787082551 -0.002174162276300428 0.002843354787082551 0.004378170985892626 0.005597710132256312 -0.002174162276300428 0.005597710132256312 0.004395060827987968" free_energy=-26.202686550488 pbc="T T T"
P        0.42515877       1.30720740       0.44253054       0.00000000 NULL       0.19222500      -0.16954400       0.02579200
P       -3.10314307       1.14480449       7.03219476       0.00000000 NULL       0.11415900       0.11960700       0.36015100
P       -3.06934782       0.62985114      10.83279229       0.00000000 NULL      -0.02958500       0.06773200      -0.10455700
P       -1.67869914      -1.01431587       8.99076961       0.00000000 NULL      -0.43208700      -0.50839900       0.14094900
P       -0.93831552       0.72812355       7.82204891       0.00000000 NULL       0.15528900       0.49060400      -0.42233600
5
Lattice="3.615403972047984 0.5490168215598958 -1.1332298078039538 -0.5256362085536774 3.4922611426199457 -0.2510090926794161 -4.142156719071851 -2.4868731169560654 11.494609645781823" Properties=species:S:1:pos:R:3:initial_magmoms:R:1:castep_labels:S:1:forces:R:3 n_minim_iter=20 energy=-26.226657111652 stress="0.0033312060849623295 0.0011080226877686508 0.0008789077100373418 0.0011080226877686508 0.0011319971300710466 0.005956446310670618 0.0008789077100373418 0.005956446310670618 0.00440346107725718" free_energy=-26.226657111652 pbc="T T T"
P        0.42862768       1.30081120       0.44344428       0.00000000 NULL      -0.02309000      -0.21918000       0.01960000
P       -3.04293485       1.10249012       7.04989540       0.00000000 NULL       0.09812800       0.21408100       0.31254100
P       -2.96352832       0.60507507      10.84240767       0.00000000 NULL       0.08372600       0.22945500      -0.19179300
P       -1.59367626      -1.01976103       9.01449319       0.00000000 NULL      -0.32900500      -0.53953000       0.18367200
P       -0.86738878       0.73482269       7.83969453       0.00000000 NULL       0.17024100       0.31517300      -0.32402000
5
Lattice="3.5663183462261214 0.4959827236316955 -1.1115244254854189 -0.5672310242626001 3.5157395534107474 -0.2507049285860404 -4.0360805053963915 -2.4618399145923906 11.37867108461901" Properties=species:S:1:pos:R:3:initial_magmoms:R:1:castep_labels:S:1:forces:R:3 n_minim_iter=21 energy=-26.256436048754 stress="-0.0006421167321127391 -0.00292795769560063 0.0007008493245527626 -0.00292795769560063 -0.0008170531383200034 0.005605296718225644 0.0007008493245527626 0.005605296718225644 0.0005739238563266717" free_energy=-26.256436048754 pbc="T T T"
P        0.41890290       1.29861079       0.43128984       0.00000000 NULL       0.01156000      -0.17324500       0.21922700
P       -3.04216005       1.13730085       6.99710041       0.00000000 NULL       0.07690800       0.15600200       0.18258800
P       -2.90395209       0.65260850      10.72460981       0.00000000 NULL       0.13449200       0.17909400      -0.24630900
P       -1.53326792      -1.04921026       8.95236501       0.00000000 NULL      -0.34021100      -0.35119300      -0.02271300
P       -0.84178098       0.72808349       7.74378791       0.00000000 NULL       0.11725100       0.18934300      -0.13279300
