30
Lattice="10.193296211711708 -1.3427131813460202e-15 -9.455670933748953e-41 -5.096648105855853 8.827653467642019 5.6382570655038526e-39 5.832364074161097e-41 -3.982075436827194e-39 6.287339633434068" Properties=species:S:1:pos:R:3:initial_magmoms:R:1:castep_labels:S:1:forces:R:3 n_minim_iter=1 energy=-161.323208848191 stress="0.001160824680506554 0.0 -0.0 0.0 0.001160824680506554 0.0 -0.0 0.0 0.00024385201590078904" free_energy=-161.323208848191 pbc="T T T"
P        1.14688716       2.33578492       4.06687875       0.00000000 NULL       0.13362800      -0.17361800      -0.24289200
P       -3.64724261       6.66652758       1.97109887       0.00000000 NULL      -0.21717100      -0.02891600      -0.24289200
P        2.50035544       8.65299443       6.16265863       0.00000000 NULL       0.08354400       0.20253300      -0.24289100
P       -1.51341747       6.30513512       2.53486214       0.00000000 NULL       0.23727100       0.20936300      -0.07059100
P        1.12046781       6.98574388       0.43908226       0.00000000 NULL       0.06267800      -0.31016400      -0.07059200
P        0.39294965       4.36442793       4.63064202       0.00000000 NULL      -0.29994900       0.10080000      -0.07059000
P       -1.04254331       7.37100290       6.04570642       0.00000000 NULL      -0.27453000      -0.13398200      -0.17117200
P        1.80809931       6.04502101       3.94992654       0.00000000 NULL       0.02123400       0.30474000      -0.17117300
P       -0.76555601       4.23928302       1.85414666       0.00000000 NULL       0.25329700      -0.17076000      -0.17117300
P        5.92902495       1.18282041       5.52089105       0.00000000 NULL       0.03119600      -0.11830200       0.11885800
P        3.15648815       3.10155703       3.42511118       0.00000000 NULL      -0.11805300       0.03213500       0.11885800
P        6.20443121       4.54327602       1.32933130       0.00000000 NULL       0.08685500       0.08617000       0.11885800
P        1.49355394       2.22494328       0.54925801       0.00000000 NULL      -0.16851400       0.08768300      -0.07292900
P        6.27672853       6.42172617       4.74081776       0.00000000 NULL       0.16019100       0.10209700      -0.07292700
P        7.51966183       0.18098402       2.64503788       0.00000000 NULL       0.00832200      -0.18977700      -0.07292900
P        6.80562016       7.88100362       6.38242647       0.00000000 NULL      -0.05333900      -0.08907000       0.18650000
P        8.51898736      -1.00668829       4.28664659       0.00000000 NULL      -0.05046600       0.09072700       0.18650200
P       -0.03466322       1.95333814       2.19086671       0.00000000 NULL       0.10380600      -0.00165800       0.18650200
P        6.38289749       2.11874235       2.32019175       0.00000000 NULL      -0.06749200       0.04961200      -0.03804600
P        3.74008406       2.24053091       0.22441187       0.00000000 NULL       0.07671100       0.03364500      -0.03804700
P        5.16696276       4.46838020       4.41597163       0.00000000 NULL      -0.00922000      -0.08325600      -0.03804400
P        1.15036772       4.46154192       6.85105890       0.00000000 NULL      -0.16054000      -0.08506100       0.36874200
P       -1.80802333       5.60063484       4.75527902       0.00000000 NULL       0.00660600       0.18156200       0.36874200
P        0.65765560       7.59313018       2.65949914       0.00000000 NULL       0.15393500      -0.09650300       0.36874200
P        2.79847398       4.95610445       2.27562895       0.00000000 NULL      -0.04066100      -0.07128700      -0.02421000
P        7.98952346       3.92605168       0.17984907       0.00000000 NULL      -0.04140400       0.07085700      -0.02421100
P        4.50194686      -0.05450266       4.37140882       0.00000000 NULL       0.08206600       0.00042800      -0.02421000
P        4.33361113       4.40413643       0.17747811       0.00000000 NULL       0.01876500       0.02834200      -0.05426400
P        6.74393656       2.87256792       4.36903786       0.00000000 NULL       0.01516300      -0.03042100      -0.05426100
P        4.21239662       1.55094912       2.27325799       0.00000000 NULL      -0.03392700       0.00208000      -0.05426100
30
Lattice="10.163484423480512 -9.774650785841114e-16 -9.424031916786687e-41 -5.081742211740255 8.801835701701563 5.621846847071076e-39 5.831292333185548e-41 -3.979553499855098e-39 6.283472383179649" Properties=species:S:1:pos:R:3:initial_magmoms:R:1:castep_labels:S:1:forces:R:3 n_minim_iter=2 energy=-161.329602187904 stress="-0.002162452341494832 1.779034768243083e-08 0.0 1.779034768243083e-08 -0.0021624345511471496 -0.0 0.0 -0.0 -0.0018362841070851453" free_energy=-161.329602187904 pbc="T T T"
P        1.14412713       2.32818154       4.06329469       0.00000000 NULL       0.11480400      -0.21631300      -0.21471100
P       -3.63754143       6.64690176       1.96880390       0.00000000 NULL      -0.24473400       0.00873300      -0.21471100
P        2.49341428       8.62858810       6.15778548       0.00000000 NULL       0.12993100       0.20758100      -0.21471100
P       -1.50793617       6.28762582       2.53298835       0.00000000 NULL       0.24653300       0.21684700      -0.06294300
P        1.11746956       6.96393382       0.43849756       0.00000000 NULL       0.06452900      -0.32192600      -0.06294100
P        0.39046661       4.35211176       4.62747915       0.00000000 NULL      -0.31106000       0.10507900      -0.06294400
P       -1.04071501       7.34884954       6.04122486       0.00000000 NULL      -0.25432700      -0.12500800      -0.14218600
P        1.80290568       6.02869657       3.94673407       0.00000000 NULL       0.01890300       0.28275900      -0.14218600
P       -0.76219068       4.22612529       1.85224328       0.00000000 NULL       0.23542500      -0.15775000      -0.14218500
P        5.91182337       1.17883502       5.51802499       0.00000000 NULL       0.01977300      -0.08864000       0.13028100
P        3.14673159       3.09262897       3.42353420       0.00000000 NULL      -0.08665100       0.02719300       0.13028200
P        6.18667166       4.53037172       1.32904340       0.00000000 NULL       0.06687200       0.06144500       0.13028400
P        1.48843649       2.21882601       0.54859512       0.00000000 NULL      -0.17497500       0.02023700      -0.08104100
P        6.25908365       6.40339888       4.73757671       0.00000000 NULL       0.10501000       0.14141400      -0.08104300
P        7.49770649       0.17961081       2.64308591       0.00000000 NULL       0.06996000      -0.16165300      -0.08104200
P        6.78547894       7.85755840       6.37933198       0.00000000 NULL      -0.07207000      -0.04587700       0.18024500
P        8.49384792      -1.00334064       4.28484119       0.00000000 NULL      -0.00369600       0.08535400       0.18024300
P       -0.03410024       1.94761794       2.19035039       0.00000000 NULL       0.07576700      -0.03947500       0.18024400
P        6.36392965       2.11276639       2.31859506       0.00000000 NULL      -0.03739000       0.06794100      -0.04934300
P        3.72948675       2.23412776       0.22410427       0.00000000 NULL       0.07753400      -0.00159000      -0.04934200
P        5.15181022       4.45494155       4.41308586       0.00000000 NULL      -0.04014400      -0.06635100      -0.04934600
P        1.14628941       4.44811524       6.84848842       0.00000000 NULL      -0.14441400      -0.02785900       0.34754600
P       -1.80270612       5.58506233       4.75399762       0.00000000 NULL       0.04808200       0.13899500       0.34754400
P        0.65641670       7.57049383       2.65950683       0.00000000 NULL       0.09633500      -0.11113500       0.34754500
P        2.79010862       4.94129260       2.27412133       0.00000000 NULL      -0.02463500      -0.04385600      -0.05354200
P        7.96597282       3.91488445       0.17963054       0.00000000 NULL      -0.02566000       0.04326200      -0.05354300
P        4.48914519      -0.05434135       4.36861213       0.00000000 NULL       0.05030000       0.00059500      -0.05354200
P        4.32102029       4.39138191       0.17712710       0.00000000 NULL      -0.00591500       0.06671600      -0.05430300
P        6.72428036       2.86403140       4.36610868       0.00000000 NULL       0.06073500      -0.02823700      -0.05430600
P        4.19992598       1.54642238       2.27161789       0.00000000 NULL      -0.05482100      -0.03848000      -0.05430500
30
Lattice="10.140362881696456 -4.908254017028815e-16 -9.425076870475664e-41 -5.070181440848227 8.781811859141909 5.608613865500432e-39 5.882417842036566e-41 -4.0244322649241224e-39 6.35369323479244" Properties=species:S:1:pos:R:3:initial_magmoms:R:1:castep_labels:S:1:forces:R:3 n_minim_iter=3 energy=-161.373060552744 stress="-0.0017618555780219687 1.767405230445568e-08 0.0 1.767405230445568e-08 -0.0017618555780219687 0.0 0.0 0.0 0.005577329989507861" free_energy=-161.373060552744 pbc="T T T"
P        1.14735587       2.31431431       4.09783805       0.00000000 NULL       0.00455000      -0.13225600      -0.16456200
P       -3.63960439       6.63101537       1.97994031       0.00000000 NULL      -0.11681200       0.06218700      -0.16456200
P        2.49224851       8.61829404       6.21573580       0.00000000 NULL       0.11226400       0.07006800      -0.16456200
P       -1.49351927       6.28300571       2.55812963       0.00000000 NULL       0.08213700       0.12025000      -0.01465700
P        1.11782075       6.93373463       0.44023188       0.00000000 NULL       0.06307100      -0.13125800      -0.01465600
P        0.37569851       4.34688337       4.67602737       0.00000000 NULL      -0.14520800       0.01100800      -0.01465700
P       -1.05060145       7.32613762       6.10121851       0.00000000 NULL      -0.07792500      -0.01300200      -0.09939300
P        1.79974057       6.02859059       3.98332076       0.00000000 NULL       0.02770200       0.07398600      -0.09939300
P       -0.74913913       4.20889551       1.86542302       0.00000000 NULL       0.05022200      -0.06098400      -0.09939300
P        5.89963164       1.17118280       5.58538878       0.00000000 NULL      -0.00980600       0.01417100      -0.03071400
P        3.13463968       3.08698958       3.46749103       0.00000000 NULL       0.01717500       0.00140300      -0.03071200
P        6.17627299       4.52363947       1.34959329       0.00000000 NULL      -0.00737200      -0.01557500      -0.03071200
P        1.47724935       2.21678931       0.55121365       0.00000000 NULL      -0.14930000      -0.10588100      -0.04086500
P        6.25135262       6.39408174       4.78700914       0.00000000 NULL      -0.01704500       0.18223800      -0.04086600
P        7.48194235       0.17094081       2.66911140       0.00000000 NULL       0.16634300      -0.07635900      -0.04086600
P        6.76732604       7.83624929       6.45919916       0.00000000 NULL      -0.11006500      -0.06910400       0.12734100
P        8.47290937      -0.99698906       4.34130142       0.00000000 NULL      -0.00481300       0.12987100       0.12734000
P       -0.02969110       1.94255162       2.22340368       0.00000000 NULL       0.11487800      -0.06076700       0.12734000
P        6.34681138       2.11049976       2.34256771       0.00000000 NULL       0.03452000       0.03761300       0.13801300
P        3.72452215       2.23006209       0.22466996       0.00000000 NULL       0.01531400      -0.04870200       0.13801300
P        5.13921078       4.44125001       4.46046545       0.00000000 NULL      -0.04983400       0.01108900       0.13801200
P        1.13657953       4.43495315       6.94184481       0.00000000 NULL      -0.05741200       0.08023900       0.20144100
P       -1.79768912       5.58002853       4.82394707       0.00000000 NULL       0.09819400       0.00960100       0.20144100
P        0.66110957       7.54864203       2.70604932       0.00000000 NULL      -0.04078100      -0.08983800       0.20144100
P        2.78213916       4.92719775       2.29796831       0.00000000 NULL      -0.05489100      -0.02614400      -0.00850400
P        7.94619028       3.90880979       0.18007056       0.00000000 NULL       0.00480300       0.06060900      -0.00850400
P        4.48221487      -0.05419569       4.41586605       0.00000000 NULL       0.05008900      -0.03446300      -0.00850400
P        4.31168288       4.38325561       0.17658361       0.00000000 NULL       0.06283500       0.09919500      -0.10809900
P        6.71035071       2.85615714       4.41237910       0.00000000 NULL       0.05448800      -0.10401500      -0.10810100
P        4.18851072       1.54239910       2.29448136       0.00000000 NULL      -0.11732300       0.00482000      -0.10810100
30
Lattice="10.172679446409196 3.5046401026662645e-16 -9.44848180484529e-41 -5.086339723204597 8.809798825146183 5.6266188550905117e-39 5.842109891409762e-41 -3.994001700059183e-39 6.305832373748935" Properties=species:S:1:pos:R:3:initial_magmoms:R:1:castep_labels:S:1:forces:R:3 n_minim_iter=4 energy=-161.4039324803 stress="-0.00024916656324653995 -0.0 0.0 -0.0 -0.00024913117278233335 -0.0 0.0 -0.0 -0.0002005400654266769" free_energy=-161.4039324803 pbc="T T T"
P        1.15512566       2.31504246       4.05861984       0.00000000 NULL       0.00495200       0.00392800       0.02766900
P       -3.65901697       6.65190942       1.95667571       0.00000000 NULL       0.00092500      -0.00625300       0.02766900
P        2.50389130       8.65264576       6.16056396       0.00000000 NULL      -0.00587900       0.00232600       0.02766800
P       -1.49017720       6.31040083       2.53659036       0.00000000 NULL      -0.00403000       0.06138300      -0.08085100
P        1.12371630       6.94512971       0.43464624       0.00000000 NULL       0.05517400      -0.02720100      -0.08085000
P        0.36646089       4.36406710       4.63853449       0.00000000 NULL      -0.05114300      -0.03418200      -0.08085200
P       -1.06292129       7.34521820       6.04955149       0.00000000 NULL       0.04887500       0.03781800       0.09205100
P        1.80626648       6.05770656       3.94760737       0.00000000 NULL       0.00831400      -0.06123500       0.09205100
P       -0.74334520       4.21667288       1.84566324       0.00000000 NULL      -0.05718800       0.02341800       0.09205200
P        5.91926857       1.17149589       5.54711791       0.00000000 NULL      -0.01730000       0.04633000      -0.02890700
P        3.14125064       3.09781392       3.44517379       0.00000000 NULL       0.04877400      -0.00818200      -0.02890800
P        6.19849995       4.54048901       1.34322966       0.00000000 NULL      -0.03147600      -0.03814900      -0.02890600
P        1.47576663       2.22545879       0.54442348       0.00000000 NULL      -0.04301800      -0.10294600      -0.06067200
P        6.27576025       6.41901803       4.74831173       0.00000000 NULL      -0.06764800       0.08872800      -0.06067400
P        7.50749228       0.16532200       2.64636761       0.00000000 NULL       0.11066400       0.01421800      -0.06067100
P        6.78645852       7.85848041       6.41712035       0.00000000 NULL      -0.09455100       0.02986200      -0.01951400
P        8.49875413      -0.99668686       4.31517623       0.00000000 NULL       0.07313600       0.06695300      -0.01951600
P       -0.02619349       1.94800528       2.21323210       0.00000000 NULL       0.02141400      -0.09681400      -0.01951600
P        6.36535105       2.11918786       2.32425459       0.00000000 NULL       0.00112200      -0.07334900       0.00993700
P        3.73893471       2.23764917       0.22231047       0.00000000 NULL      -0.06408200       0.03570300       0.00993800
P        5.15473339       4.45296179       4.42619872       0.00000000 NULL       0.06296100       0.03764600       0.00993500
P        1.13494290       4.44733691       6.90221760       0.00000000 NULL       0.02954100       0.09014600       0.08182500
P       -1.80230444       5.60324098       4.80027347       0.00000000 NULL       0.06330100      -0.07065700       0.08182400
P        0.66736152       7.56901976       2.69832935       0.00000000 NULL      -0.09284000      -0.01949000       0.08182400
P        2.78960312       4.94077194       2.27952960       0.00000000 NULL      -0.04815900      -0.01982800      -0.02283600
P        7.97037217       3.92354569       0.17758548       0.00000000 NULL       0.00691000       0.05162000      -0.02283700
P        4.49904387      -0.05451880       4.38147373       0.00000000 NULL       0.04125000      -0.03179300      -0.02283700
P        4.32607269       4.39900843       0.17297146       0.00000000 NULL       0.07472600       0.02792000       0.00130300
P        6.73295642       2.86380576       4.37685970       0.00000000 NULL      -0.01318400      -0.07867600       0.00130100
P        4.19999005       1.54698463       2.27491558       0.00000000 NULL      -0.06154300       0.05075500       0.00130100
30
Lattice="10.148409879417384 -9.01572148540558e-16 -9.426401507558209e-41 -5.0742049397086895 8.788780763592426 5.613189059150737e-39 5.843297943306388e-41 -3.994989996767697e-39 6.307381458071695" Properties=species:S:1:pos:R:3:initial_magmoms:R:1:castep_labels:S:1:forces:R:3 n_minim_iter=5 energy=-161.425008682757 stress="-0.0003926452448612464 -0.0 0.0 -0.0 -0.0003926274692605012 -0.0 0.0 -0.0 -0.000801519613202882" free_energy=-161.425008682757 pbc="T T T"
P        1.15832411       2.30471106       4.05772263       0.00000000 NULL       0.01886000      -0.04458400       0.02156100
P       -3.65742867       6.63328712       1.95526215       0.00000000 NULL      -0.04804100       0.00595800       0.02156100
P        2.49910455       8.63956334       6.16018312       0.00000000 NULL       0.02918000       0.03862600       0.02156000
P       -1.47953528       6.31845765       2.51367638       0.00000000 NULL       0.01711800      -0.05942500      -0.04982100
P        1.13750753       6.91086707       0.41121589       0.00000000 NULL      -0.06002200       0.01488700      -0.04981900
P        0.34202774       4.34823680       4.61613686       0.00000000 NULL       0.04290400       0.04453700      -0.04982100
P       -1.05750406       7.33278784       6.06853209       0.00000000 NULL       0.09543200       0.01874300       0.05372600
P        1.80492763       6.03821222       3.96607161       0.00000000 NULL      -0.03148400      -0.09201700       0.05372600
P       -0.74742359       4.20656147       1.86361112       0.00000000 NULL      -0.06394700       0.07327500       0.05372700
P        5.90183343       1.17637926       5.54471906       0.00000000 NULL      -0.04240800      -0.10790900       0.13592700
P        3.14206254       3.08945345       3.44225857       0.00000000 NULL      -0.07224600       0.09068100       0.13592700
P        6.17871884       4.52294805       1.33979809       0.00000000 NULL       0.11465600       0.01722700       0.13592800
P        1.45509675       2.19698404       0.52626365       0.00000000 NULL      -0.02861600       0.11266500      -0.04248600
P        6.24930055       6.43013799       4.73118463       0.00000000 NULL       0.11187900      -0.03155100      -0.04248800
P        7.51821751       0.16165873       2.62872414       0.00000000 NULL      -0.08326300      -0.08111500      -0.04248600
P        6.74400653       7.84370587       6.42043627       0.00000000 NULL      -0.03680800       0.04962100      -0.05426400
P        8.49505022      -0.97355316       4.31797578       0.00000000 NULL       0.06137600       0.00706600      -0.05426700
P       -0.01644194       1.91862805       2.21551529       0.00000000 NULL      -0.02456900      -0.05668700      -0.05426600
P        6.34799912       2.09689069       2.32677045       0.00000000 NULL       0.03102800      -0.02925700      -0.02467100
P        3.71616598       2.24280691       0.22430997       0.00000000 NULL      -0.04085100      -0.01224300      -0.02467100
P        5.15844971       4.44908316       4.42923094       0.00000000 NULL       0.00982400       0.04150000      -0.02467500
P        1.13407662       4.45670977       6.93857348       0.00000000 NULL      -0.02800400      -0.12934100       0.02057000
P       -1.78161937       5.57828671       4.83611299       0.00000000 NULL      -0.09801100       0.08892300       0.02057000
P        0.64754274       7.54256504       2.73365250       0.00000000 NULL       0.12601500       0.04041900       0.02057100
P        2.76884829       4.92111964       2.27362645       0.00000000 NULL       0.00533500       0.10237200       0.02402900
P        7.95159541       3.93032798       0.17116597       0.00000000 NULL       0.08598900      -0.05580600       0.02402900
P        4.50217111      -0.06266685       4.37608694       0.00000000 NULL      -0.09132400      -0.04656500       0.02402800
P        4.33606573       4.39657606       0.17112450       0.00000000 NULL      -0.20219500       0.03503800      -0.08456600
P        6.71371863       2.83534965       4.37604548       0.00000000 NULL       0.13144100       0.15758600      -0.08457000
P        4.17283045       1.55685504       2.27358499       0.00000000 NULL       0.07075300      -0.19262400      -0.08456900
30
Lattice="10.140515840671613 -1.0984837568763242e-15 -9.415736483861967e-41 -5.070257920335804 8.781944325500127 5.608897399259713e-39 5.833047058891977e-41 -3.986520162271306e-39 6.294102584230537" Properties=species:S:1:pos:R:3:initial_magmoms:R:1:castep_labels:S:1:forces:R:3 n_minim_iter=6 energy=-161.441679734584 stress="-0.00019814043195927133 -0.0 -0.0 -0.0 -0.00019815827280493666 0.0 -0.0 0.0 -0.001455563234452468" free_energy=-161.441679734584 pbc="T T T"
P        1.16205326       2.29688524       4.05065203       0.00000000 NULL      -0.02373600      -0.03652800      -0.03066800
P       -3.66212358       6.62713406       1.95261783       0.00000000 NULL      -0.01976700       0.03882000      -0.03066800
P        2.50007031       8.63986935       6.14868622       0.00000000 NULL       0.04350300      -0.00229200      -0.03066800
P       -1.47414080       6.32033631       2.48946329       0.00000000 NULL       0.00902300      -0.01558200      -0.04085300
P        1.14038428       6.89841954       0.39142910       0.00000000 NULL      -0.01800600      -0.00002300      -0.04085400
P        0.33375651       4.34513279       4.58749749       0.00000000 NULL       0.00898200       0.01560600      -0.04085300
P       -1.04366698       7.33306998       6.07208574       0.00000000 NULL      -0.00560600      -0.04080800       0.04652200
P        1.80220045       6.01925145       3.97405155       0.00000000 NULL      -0.03253700       0.02525700       0.04652100
P       -0.75853348       4.21156722       1.87601735       0.00000000 NULL       0.03814300       0.01554900       0.04652100
P        5.89077949       1.16984441       5.54310440       0.00000000 NULL       0.04339700       0.07465100      -0.01755800
P        3.13798315       3.09545743       3.44507020       0.00000000 NULL       0.04295000      -0.07490600      -0.01755800
P        6.18201111       4.51664248       1.34703601       0.00000000 NULL      -0.08634400       0.00025700      -0.01756000
P        1.44119186       2.19227642       0.51026215       0.00000000 NULL      -0.00538400       0.12807100       0.01378100
P        6.24822906       6.43769735       4.70633054       0.00000000 NULL       0.11360600      -0.05937300       0.01378300
P        7.52135283       0.15197056       2.60829635       0.00000000 NULL      -0.10822000      -0.06869700       0.01378100
P        6.71910770       7.84447413       6.40179002       0.00000000 NULL      -0.00745800       0.03725700      -0.02109500
P        8.50421794      -0.95921070       4.30375583       0.00000000 NULL       0.03599500      -0.01217000      -0.02109300
P       -0.01255189       1.89668089       2.20572163       0.00000000 NULL      -0.02853700      -0.02508800      -0.02109400
P        6.34525110       2.08135061       2.32228625       0.00000000 NULL      -0.00454300      -0.02878700      -0.09262600
P        3.70013487       2.24612037       0.22425206       0.00000000 NULL      -0.02265900       0.01832800      -0.09262700
P        5.16538778       4.45447334       4.42032045       0.00000000 NULL       0.02720100       0.01045900      -0.09262300
P        1.13221805       4.45258632       6.94556088       0.00000000 NULL      -0.08068500      -0.11291900       0.01716100
P       -1.78031409       5.57512157       4.84752668       0.00000000 NULL      -0.05744900       0.12633400       0.01716100
P        0.64809603       7.53618077       2.74949249       0.00000000 NULL       0.13813300      -0.01341700       0.01716000
P        2.75833030       4.92284971       2.26814777       0.00000000 NULL       0.03401000       0.04515000       0.03525300
P        7.95440568       3.93173536       0.17011358       0.00000000 NULL       0.02209500      -0.05202800       0.03525300
P        4.49803778      -0.07264074       4.36618197       0.00000000 NULL      -0.05610700       0.00687700       0.03525400
P        4.32529929       4.40139459       0.16053051       0.00000000 NULL      -0.04075000       0.01331100       0.09008000
P        6.71932780       2.83542797       4.35659890       0.00000000 NULL       0.03190300       0.02863600       0.09008300
P        4.16614667       1.54512177       2.25856471       0.00000000 NULL       0.00884800      -0.04194600       0.09008300
30
Lattice="10.146147314412067 7.721064190901048e-16 -9.416779332178485e-41 -5.073073657206033 8.786821324820107 5.612105349452769e-39 5.819953790999346e-41 -3.97574629426398e-39 6.277209146239251" Properties=species:S:1:pos:R:3:initial_magmoms:R:1:castep_labels:S:1:forces:R:3 n_minim_iter=7 energy=-161.452844164978 stress="0.0001397177859343285 -1.786900958362048e-08 -0.0 -1.786900958362048e-08 0.00013973565494391214 -0.0 -0.0 -0.0 -0.0016812057666749326" free_energy=-161.452844164978 pbc="T T T"
P        1.16088253       2.29128511       4.03614702       0.00000000 NULL       0.04669500       0.01893600      -0.04867400
P       -3.66920381       6.63582500       1.94374397       0.00000000 NULL      -0.00694800      -0.04990700      -0.04867400
P        2.50832127       8.64653253       6.12855007       0.00000000 NULL      -0.03974700       0.03097100      -0.04867400
P       -1.47352115       6.32725153       2.46617786       0.00000000 NULL      -0.01462400       0.04460600      -0.04082100
P        1.14324747       6.89930230       0.37377481       0.00000000 NULL       0.04594200      -0.00964000      -0.04082000
P        0.33027366       4.34708881       4.55858091       0.00000000 NULL      -0.03131800      -0.03496800      -0.04082100
P       -1.03572334       7.33755764       6.07181755       0.00000000 NULL      -0.05345700      -0.00686500       0.07003000
P        1.79929932       6.01500522       3.97941451       0.00000000 NULL       0.02078400       0.04972700       0.07003000
P       -0.76357600       4.22107979       1.88701146       0.00000000 NULL       0.03267400      -0.04286300       0.07003000
P        5.89543562       1.18007805       5.52685644       0.00000000 NULL       0.01540000      -0.05588500       0.03483000
P        3.14733341       3.09118528       3.43445339       0.00000000 NULL      -0.05609900       0.01460900       0.03482900
P        6.17645192       4.51555799       1.34205035       0.00000000 NULL       0.04069900       0.04127900       0.03483000
P        1.43258810       2.20221215       0.50161169       0.00000000 NULL       0.02626500       0.06433400       0.04316100
P        6.26395127       6.44505756       4.68641778       0.00000000 NULL       0.04258100      -0.05491300       0.04316000
P        7.52268159       0.13955161       2.59401474       0.00000000 NULL      -0.06884500      -0.00941900       0.04316100
P        6.70773638       7.85613949       6.37959440       0.00000000 NULL       0.01185900       0.05406000      -0.00661800
P        8.52282183      -0.95031853       4.28719135       0.00000000 NULL       0.04088700      -0.03730000      -0.00661900
P       -0.01133725       1.88100037       2.19478830       0.00000000 NULL      -0.05274600      -0.01676000      -0.00661900
P        6.35021098       2.06939797       2.30926529       0.00000000 NULL      -0.03078100       0.01309400      -0.02682100
P        3.69011938       2.25267830       0.21686224       0.00000000 NULL       0.02673000       0.02011100      -0.02682000
P        5.17889060       4.46474504       4.40166834       0.00000000 NULL       0.00405100      -0.03320400      -0.02682200
P        1.12382311       4.44566016       6.94272481       0.00000000 NULL      -0.02324600      -0.00463100       0.01086900
P       -1.78493058       5.59073188       4.85032176       0.00000000 NULL       0.00761400       0.02244700       0.01086900
P        0.66110746       7.53725061       2.75791871       0.00000000 NULL       0.01563200      -0.01781800       0.01087000
P        2.75715028       4.93262369       2.26623521       0.00000000 NULL       0.03597500      -0.07051800       0.00331100
P        7.96627594       3.93274729       0.17383216       0.00000000 NULL      -0.07905600       0.00410300       0.00331100
P        4.49579475      -0.07854966       4.35863826       0.00000000 NULL       0.04308000       0.06641200       0.00331000
P        4.32397693       4.41136522       0.16477814       0.00000000 NULL      -0.06994100      -0.01823100      -0.03926500
P        6.73143953       2.83646484       4.34958424       0.00000000 NULL       0.01918100       0.06968600      -0.03926700