12
Lattice="6.805127435119594 -0.7058073138065599 -0.5413889389548431 1.7193105220127542 6.622076313463661 -0.5413889389548413 1.719310522012758 1.1932638366682635 6.536139388098974" Properties=species:S:1:pos:R:3:initial_magmoms:R:1:castep_labels:S:1:forces:R:3 n_minim_iter=1 energy=-60.330914242299 stress="0.0020504308828015166 0.001169417104674873 0.0008969775340831125 0.001169417104674873 0.0011770630719566287 0.0006225544908073817 0.0008969775340831125 0.0006225544908073817 0.000842975890687282" free_energy=-60.330914242299 pbc="T T T"
P        8.22919421       2.00732251       3.15941366       0.00000000 NULL       0.02890500      -0.07037800      -0.21403600
P        4.75918080       4.86740595       5.94890185       0.00000000 NULL      -0.05582000      -0.19332300       0.10540100
P        6.22470542       6.45984594       1.11995918       0.00000000 NULL      -0.20063300       0.10577500      -0.01250700
P        8.45789275       3.37097711       4.89021476       0.00000000 NULL      -0.36636400       0.09725400       0.02427400
P        6.11668070       6.47097463       5.24655518       0.00000000 NULL      -0.03704700      -0.07432000      -0.37063900
P        8.20183130       5.96569892       1.98847593       0.00000000 NULL      -0.08258400      -0.36023500       0.08763900
P        6.26130897       0.49002343       0.46123573       0.00000000 NULL      -0.00304800      -0.18872900       0.53734200
P        2.64935301       1.92119426       5.38022236       0.00000000 NULL      -0.17786800       0.53535200      -0.07824700
P        2.72659116       5.66545791       0.35374951       0.00000000 NULL       0.43930700      -0.16729100      -0.32153400
P        6.37319160       4.79665435      -0.45493211       0.00000000 NULL      -0.02811400       0.03061000       0.51593700
P        6.72302650       0.67306609       4.26383912       0.00000000 NULL       0.01884100       0.48871100      -0.16948500
P        2.98234589       5.68938589       4.75067663       0.00000000 NULL       0.46442500      -0.20342700      -0.10414500
12
Lattice="6.718070577722386 -0.7524378733418142 -0.577156872576144 1.6451724565690844 6.556831752351498 -0.5771568725761422 1.6451724565690882 1.1418093313407962 6.482393395580814" Properties=species:S:1:pos:R:3:initial_magmoms:R:1:castep_labels:S:1:forces:R:3 n_minim_iter=2 energy=-60.371261201836 stress="-0.0076010236455462425 0.0012949375316887758 0.0009932780045212837 0.0012949375316887758 -0.008568071817735811 0.0006893476386701172 0.0009932780045212837 0.0006893476386701172 -0.00893802105894133" free_energy=-60.371261201836 pbc="T T T"
P        8.07810583       1.90986207       3.07698807       0.00000000 NULL       0.02791600       0.02470400      -0.64695400
P        4.61502523       4.75995013       5.86648442       0.00000000 NULL       0.03290900      -0.62031900       0.18457300
P        6.07361118       6.35498731       1.04718961       0.00000000 NULL      -0.56961200       0.24249400       0.19152500
P        8.27321460       3.25695843       4.79578540       0.00000000 NULL      -0.51753100       0.17735800       0.21542900
P        5.94526291       6.34527122       5.14245056       0.00000000 NULL      -0.01489300       0.06634300      -0.58402700
P        8.02410567       5.83492949       1.90282469       0.00000000 NULL       0.05694200      -0.57369900       0.11546800
P        6.16603543       0.42954962       0.42978043       0.00000000 NULL       0.02324100      -0.07557600       0.45279000
P        2.55937201       1.87316516       5.32260126       0.00000000 NULL      -0.06267300       0.44981600      -0.07078200
P        2.65012002       5.59231370       0.30349362       0.00000000 NULL       0.39947100      -0.12435600      -0.19033700
P        6.24679734       4.70909664      -0.50065528       0.00000000 NULL       0.10605000      -0.06676600       0.57774000
P        6.59678634       0.60615632       4.19090783       0.00000000 NULL      -0.02545100       0.58979800      -0.03121500
P        2.87550302       5.59436311       4.67795978       0.00000000 NULL       0.54363100      -0.08979700      -0.21420900
12
Lattice="6.456624172501759 -1.2456676007266465 -0.9554883428604577 1.0916478270161185 6.484442034454862 -0.9554883428604596 1.0916478270161203 0.7576431701417612 6.510524041756153" Properties=species:S:1:pos:R:3:initial_magmoms:R:1:castep_labels:S:1:forces:R:3 n_minim_iter=3 energy=-60.993505223813 stress="-0.018210068801654766 -0.002582895895686814 -0.0019811507204693336 -0.002582895895686814 -0.016281171131690045 -0.0013750085175185884 -0.0019811507204693336 -0.0013750085175185884 -0.015543220353200271" free_energy=-60.993505223813 pbc="T T T"
P        7.33833272       1.16568239       2.54810975       0.00000000 NULL       0.16798900       0.65081500      -0.82610800
P        3.65908074       4.13700109       5.58562046       0.00000000 NULL       0.66846300      -0.81610600       0.14620300
P        5.15561827       5.90810617       0.46549708       0.00000000 NULL      -0.53070500       0.37748500       0.84267500
P        7.22849434       2.47425097       4.31989628       0.00000000 NULL      -0.53328800      -0.35406100       0.26898300
P        4.84655025       5.70295779       4.58495096       0.00000000 NULL      -0.51823600       0.16241600      -0.43260800
P        7.03802961       5.08795769       1.27018814       0.00000000 NULL      -0.02913200      -0.55837100      -0.41166700
P        5.78012103      -0.09982675       0.18023137       0.00000000 NULL      -0.30807800      -0.77364500       0.56215400
P        1.92844394       1.58643978       5.21694936       0.00000000 NULL      -0.83253800       0.53829000      -0.16305800
P        2.16080305       5.36308619      -0.14312438       0.00000000 NULL       0.21304700      -0.40840600      -0.89289900
P        5.57837609       4.27272364      -0.95596004       0.00000000 NULL       0.56759500       0.38296900       0.31611200
P        5.95416095       0.04368557       3.85154068       0.00000000 NULL       0.55732600       0.40839600       0.30225400
P        2.12377056       5.16156337       4.37449069       0.00000000 NULL       0.57755700       0.39021900       0.28795900
12
Lattice="6.394282361522144 -1.3566787936104054 -1.0406393901106135 0.9658423879939771 6.46487221447257 -1.040639390110618 0.9658423879939776 0.6703296343265127 6.513690295911601" Properties=species:S:1:pos:R:3:initial_magmoms:R:1:castep_labels:S:1:forces:R:3 n_minim_iter=4 energy=-61.216759789274 stress="-0.0273341397118969 -0.005658710714896222 -0.0043404408281614085 -0.005658710714896222 -0.023108089207790814 -0.003012428243938343 -0.0043404408281614085 -0.003012428243938343 -0.021491526944766765" free_energy=-61.216759789274 pbc="T T T"
P        7.17340617       1.00597995       2.40779949       0.00000000 NULL       0.09665300       1.00903400      -0.99274500
P        3.45177488       3.97592117       5.52671250       0.00000000 NULL       0.97909200      -1.02683600       0.00381500
P        4.93219712       5.81548337       0.34761320       0.00000000 NULL      -0.61947000       0.33447900       1.23184300
P        6.96607669       2.29537627       4.21615402       0.00000000 NULL      -0.41889900      -0.40954100       0.18410000
P        4.58717976       5.55526543       4.43483249       0.00000000 NULL      -0.53020400       0.11323700      -0.28836700
P        6.80893728       4.89338647       1.12431017       0.00000000 NULL      -0.07939000      -0.41750100      -0.44325600
P        5.68244038      -0.25255427       0.17218012       0.00000000 NULL      -0.02498700      -0.72402900       0.21920500
P        1.75119584       1.56879414       5.18225399       0.00000000 NULL      -0.68703000       0.27129100       0.16519500
P        2.08226851       5.28814302      -0.28854748       0.00000000 NULL       0.01381900      -0.03184300      -0.75610500
P        5.42387484       4.18013059      -1.02727744       0.00000000 NULL       0.57694200       0.21093000       0.04533000
P        5.81337139      -0.05431143       3.76151199       0.00000000 NULL       0.39942700       0.16472700       0.43900700
P        1.98271500       5.04931322       4.30354346       0.00000000 NULL       0.29404700       0.50605300       0.19197600
12
Lattice="6.395693511471003 -1.2148156207564003 -0.9318233561508832 1.0992362013003205 6.416568573533431 -0.9318233561508938 1.099236201300317 0.7629097770149896 6.438836517419908" Properties=species:S:1:pos:R:3:initial_magmoms:R:1:castep_labels:S:1:forces:R:3 n_minim_iter=5 energy=-61.444815434301 stress="-0.024360708830701027 -0.0008453347069734087 -0.0006483372289892965 -0.0008453347069734087 -0.023729353536722675 -0.0004499685388614435 -0.0006483372289892965 -0.0004499685388614435 -0.023487879562281325" free_energy=-61.444815434301 pbc="T T T"
P        7.28588272       1.20650268       2.46091789       0.00000000 NULL       0.32277700       1.15446200      -0.97734700
P        3.67897427       4.03635352       5.54696775       0.00000000 NULL       1.19443400      -0.97025300       0.15528800
P        5.06828869       5.88472819       0.52751912       0.00000000 NULL      -0.49113000       0.52793000       1.36831300
P        7.09515425       2.50061950       4.28343201       0.00000000 NULL      -0.27700400      -0.05838600      -0.10601800
P        4.82460866       5.63297611       4.46484412       0.00000000 NULL      -0.15159700      -0.16435500      -0.20343400
P        6.96479395       4.97297152       1.30510576       0.00000000 NULL      -0.20700200      -0.21838800      -0.02891100
P        5.75910223      -0.15502785       0.32620262       0.00000000 NULL      -0.38454700      -0.60626100       0.04653000
P        1.86937782       1.72732530       5.17875218       0.00000000 NULL      -0.70248400       0.00654600      -0.15517900
P        2.27212521       5.29908155      -0.23426900       0.00000000 NULL      -0.23960600      -0.32101900      -0.59761200
P        5.52491260       4.23279576      -0.79704016       0.00000000 NULL       0.53886300       0.16440500      -0.19190700
P        5.89805350       0.18781568       3.77547115       0.00000000 NULL       0.34252100      -0.06943100       0.48175500
P        2.23916731       5.06140446       4.29474177       0.00000000 NULL       0.05477600       0.55475100       0.20852200
12
Lattice="6.367754656191721 -1.2289951866186046 -0.9426997808730552 1.0761791238168572 6.395355113177358 -0.9426997808730726 1.076179123816849 0.7469073292965506 6.4211665094393116" Properties=species:S:1:pos:R:3:initial_magmoms:R:1:castep_labels:S:1:forces:R:3 n_minim_iter=6 energy=-61.678337263841 stress="-0.025605014080550357 -0.0031726466134953672 -0.0024336154405083395 -0.0031726466134953672 -0.023235673033884973 -0.0016890060033790543 -0.0024336154405083395 -0.0016890060033790543 -0.0223292228759405" free_energy=-61.678337263841 pbc="T T T"
P        7.23945370       1.24095457       2.38500057       0.00000000 NULL       0.29600600       0.64709600      -0.52967000
P        3.69500798       3.94863441       5.51299266       0.00000000 NULL       0.70975700      -0.49837400       0.18646800
P        4.99172054       5.86375888       0.58046846       0.00000000 NULL      -0.21860300       0.39759600       0.76225400
P        7.00283776       2.49752632       4.19751477       0.00000000 NULL      -0.37517700       0.14298600       0.22646700
P        4.78941737       5.52786174       4.40462604       0.00000000 NULL       0.00270800       0.11468200      -0.44646500
P        6.85401038       4.91579623       1.32438430       0.00000000 NULL       0.10838400      -0.44095500       0.07940800
P        5.75697320      -0.22128997       0.37164133       0.00000000 NULL      -0.82309600      -0.61200000       0.01006700
P        1.80655741       1.77670181       5.18743751       0.00000000 NULL      -0.86126500      -0.13462900      -0.54058400
P        2.29640667       5.28774211      -0.31004305       0.00000000 NULL      -0.42740300      -0.71901100      -0.59370300
P        5.47011624       4.18720321      -0.76506564       0.00000000 NULL       0.69129700       0.31830900       0.04228900
P        5.83617301       0.20952743       3.73300826       0.00000000 NULL       0.54002400       0.17982500       0.50699400
P        2.23786067       5.00340045       4.24242046       0.00000000 NULL       0.35736800       0.60447600       0.29647600
12
Lattice="6.426411782374247 -1.1196313862015113 -0.8588123647048067 1.1991523016157712 6.412049328813338 -0.8588123647048339 1.1991523016157561 0.8322551731379537 6.415550373872118" Properties=species:S:1:pos:R:3:initial_magmoms:R:1:castep_labels:S:1:forces:R:3 n_minim_iter=7 energy=-62.029142086518 stress="-0.017033105415303295 0.001719312319688175 0.0013188460262475465 0.001719312319688175 -0.01831711452996379 0.0009152862431806213 0.0013188460262475465 0.0009152862431806213 -0.018808311468012064" free_energy=-62.029142086518 pbc="T T T"
P        7.42022352       1.46670980       2.47363742       0.00000000 NULL       0.00069300       0.34527200      -1.12448000
P        3.96973556       4.05766469       5.57731060       0.00000000 NULL       0.32369900      -1.11720300       0.17538700
P        5.18996560       5.98269434       0.77553998       0.00000000 NULL      -0.93338500       0.34926600       0.62489800
P        7.14149102       2.78521921       4.21200803       0.00000000 NULL       0.04684700       0.05339900       0.26005400
P        5.10743642       5.54944128       4.42912479       0.00000000 NULL       0.06640900       0.25770300      -0.04305200
P        6.98547383       5.01471133       1.59849222       0.00000000 NULL       0.26465200      -0.04882000      -0.01581900
P        5.82400361      -0.17544400       0.53165076       0.00000000 NULL      -0.45101000      -0.71648200      -0.16308700
P        1.87295495       1.94336217       5.19113036       0.00000000 NULL      -0.82899000      -0.20205400      -0.12375200
P        2.47576407       5.29232015      -0.30723093       0.00000000 NULL      -0.47928100      -0.30246400      -0.64974100
P        5.60744986       4.26653441      -0.55389904       0.00000000 NULL       0.78641100       0.50667500       0.06198800
P        5.95853315       0.43962997       3.77574126       0.00000000 NULL       0.74976200       0.20486300       0.52430200
P        2.49622841       5.05352017       4.26431606       0.00000000 NULL       0.45419400       0.66984600       0.47330100
12
Lattice="6.448693376796759 -1.0536087723910925 -0.8081697712679655 1.2687979673548386 6.409827566420021 -0.8081697712680042 1.2687979673548158 0.880591790196419 6.400280143045937" Properties=species:S:1:pos:R:3:initial_magmoms:R:1:castep_labels:S:1:forces:R:3 n_minim_iter=8 energy=-62.422003693225 stress="-0.011360055814504003 0.003752279822568903 0.0028781751744871935 0.003752279822568903 -0.014162260101583517 0.0019975667715834474 0.0028781751744871935 0.0019975667715834474 -0.015234289828843959" free_energy=-62.422003693225 pbc="T T T"
P        7.49092405       1.59706726       2.46303196       0.00000000 NULL       0.27849800       0.39743600      -0.69323100
P        4.11658895       4.05276871       5.59998702       0.00000000 NULL       0.46974900      -0.63795600       0.29736700
P        5.23675023       6.04069340       0.90419228       0.00000000 NULL      -0.43332600       0.45908900       0.56351100
P        7.21330819       3.01246741       4.17807889       0.00000000 NULL       0.28949000      -0.49567000       0.02503800
P        5.34544954       5.51350578       4.42612035       0.00000000 NULL      -0.36308400       0.13940200       0.42291500
P        7.03506893       5.07285290       1.82676950       0.00000000 NULL       0.00358200       0.30768100      -0.48522600
P        5.85590906      -0.23622346       0.61668581       0.00000000 NULL      -0.66932600      -0.48082500       0.23675700
P        1.82717652       2.03874818       5.21849649       0.00000000 NULL      -0.68457900       0.10975200      -0.50451500
P        2.54910964       5.29898973      -0.38797129       0.00000000 NULL      -0.13665700      -0.66343800      -0.52575100
P        5.71042059       4.33520032      -0.37684299       0.00000000 NULL       0.71822400       0.03847300      -0.02258700
P        6.05888125       0.62941149       3.79982565       0.00000000 NULL       0.28728300       0.14906800       0.64271200
P        2.70912253       5.08393962       4.28475073       0.00000000 NULL       0.24014800       0.67698900       0.04301000
12
Lattice="6.511657465723847 -1.0636975636487898 -0.8159083705818166 1.281372271565565 6.472342741194435 -0.8159083705818682 1.2813722715655331 0.8893188132058322 6.462665013533978" Properties=species:S:1:pos:R:3:initial_magmoms:R:1:castep_labels:S:1:forces:R:3 n_minim_iter=9 energy=-62.822535859322 stress="-0.0088077458354391 0.0026534896531214117 0.0020354040232567804 0.0026534896531214117 -0.010789334989204324 0.001412640324153352 0.0020354040232567804 0.001412640324153352 -0.011547455377815702" free_energy=-62.822535859322 pbc="T T T"
P        7.55930237       1.63220556       2.44333041       0.00000000 NULL       0.01967100       0.14510000      -0.38369000
P        4.17342684       4.04715584       5.65509051       0.00000000 NULL       0.14281400      -0.37896000       0.06821100
P        5.25137464       6.10822243       0.94323589       0.00000000 NULL      -0.30506500       0.13490800       0.23958300
P        7.31126613       3.09651029       4.10823475       0.00000000 NULL       0.05754100      -0.32490300       0.09888100
P        5.45844955       5.46221135       4.50445967       0.00000000 NULL      -0.28424600       0.13892700       0.13621300
P        7.02654423       5.18060045       1.92604167       0.00000000 NULL       0.03071500       0.04995300      -0.33942500
P        5.87078309      -0.37000509       0.70216995       0.00000000 NULL      -0.13437000       0.20328100      -0.18554000
P        1.70705043       2.13705112       5.25500065       0.00000000 NULL       0.14343400      -0.23024900      -0.14218400
P        2.59918003       5.29617034      -0.53933610       0.00000000 NULL      -0.16552700      -0.08162900       0.24441800
P        5.83425934       4.32491470      -0.25069754       0.00000000 NULL       0.24930800      -0.13785600       0.25853000
P        6.09256593       0.78224565       3.88266025       0.00000000 NULL      -0.04193900       0.32272100       0.20515100
P        2.86408388       5.15826686       4.24212505       0.00000000 NULL       0.28766300       0.15870700      -0.20014800
12
Lattice="6.540128693188889 -1.120710368834878 -0.8596399974759437 1.237921184759773 6.518958980896367 -0.859639997475997 1.2379211847597402 0.8591621836235351 6.5190219712853645" Properties=species:S:1:pos:R:3:initial_magmoms:R:1:castep_labels:S:1:forces:R:3 n_minim_iter=10 energy=-62.918019995874 stress="-0.014055295349271515 -0.0011317353297470487 -0.0008680806598183881 -0.0011317353297470487 -0.013210122280637948 -0.0006024863690302827 -0.0008680806598183881 -0.0006024863690302827 -0.012886774106672928" free_energy=-62.918019995874 pbc="T T T"
P        7.53429623       1.59695553       2.43182557       0.00000000 NULL       0.27467900      -0.15164700      -0.72661000
P        4.13165644       4.03316865       5.64735584       0.00000000 NULL      -0.04598000      -0.62135200       0.48807400
P        5.22365932       6.09187888       0.91217172       0.00000000 NULL      -0.59817900       0.51656600       0.04184100
P        7.28755501       3.01764748       4.06507927       0.00000000 NULL      -0.22736900      -0.19693500       0.58284100
P        5.37627486       5.42192304       4.52083432       0.00000000 NULL      -0.26403100       0.52558100      -0.29023700
P        6.96005554       5.18011743       1.86105722       0.00000000 NULL       0.40001400      -0.39207000      -0.34125400
P        5.86876828      -0.43843040       0.65263473       0.00000000 NULL      -0.07942600       0.37658700       0.13679600
P        1.64224346       2.09492229       5.28913334       0.00000000 NULL       0.32500600       0.07869800      -0.23455400
P        2.53704258       5.31722210      -0.59258629       0.00000000 NULL       0.18742000      -0.15476600       0.32827000
P        5.82479613       4.32020866      -0.22875142       0.00000000 NULL       0.31183900      -0.62329000       0.25760600
P        6.08484686       0.80157110       3.87000032       0.00000000 NULL      -0.47482000       0.38102000       0.42598300
P        2.87948811       5.14241341       4.23189231       0.00000000 NULL       0.19084600       0.26160600      -0.66875600
12
Lattice="6.5350650184929915 -1.140101715977109 -0.8745141148857172 1.2179836532541495 6.5209985845045475 -0.8745141148857734 1.217983653254114 0.8453248139142853 6.5248466215862635" Properties=species:S:1:pos:R:3:initial_magmoms:R:1:castep_labels:S:1:forces:R:3 n_minim_iter=11 energy=-63.303316969616 stress="-0.01916611783826768 -0.00949624661592389 -0.007284112049162246 -0.00949624661592389 -0.012074145897345666 -0.005055433848102653 -0.007284112049162246 -0.005055433848102653 -0.009361190401382443" free_energy=-63.303316969616 pbc="T T T"
P        7.56719092       1.62008313       2.35074596       0.00000000 NULL      -0.25389000      -0.89218600      -0.20079300
P        4.16482983       3.96074871       5.69031779       0.00000000 NULL      -0.92463000      -0.17469100       0.12375000
P        5.16741941       6.14799233       0.95552151       0.00000000 NULL      -0.48710100      -0.08912600      -0.80966800
P        7.26620539       2.90387951       4.02393835       0.00000000 NULL      -0.48951600       0.09757700       1.14116200
P        5.26222644       5.38731817       4.55061674       0.00000000 NULL      -0.07982500       0.97448100      -0.77162800
P        6.88774137       5.18433046       1.76183805       0.00000000 NULL       0.88498900      -0.85298900      -0.20149500
P        5.78134194      -0.46291984       0.55903721       0.00000000 NULL      -0.33587600       0.32898700       0.81207700
P        1.58871838       1.98551700       5.24255932       0.00000000 NULL       0.19071300       0.67296300      -0.62551100
P        2.41582579       5.26916259      -0.59198262       0.00000000 NULL       0.69715600      -0.61884900       0.10729200
P        5.86701145       4.23554109      -0.02718404       0.00000000 NULL       0.06935200       0.04845800       0.68849000
P        6.02029613       1.01417682       3.88456569       0.00000000 NULL       0.06965000       0.67741200      -0.13205000
P        3.05608057       5.12153523       4.09787983       0.00000000 NULL       0.65898000      -0.17203700      -0.13162500
12
Lattice="6.5579304145559965 -1.1267848972019616 -0.8642994596308033 1.2384577286873957 6.537760930240212 -0.8642994596308594 1.2384577286873601 0.8595345645619522 6.538389088240086" Properties=species:S:1:pos:R:3:initial_magmoms:R:1:castep_labels:S:1:forces:R:3 n_minim_iter=12 energy=-63.426348322336 stress="-0.022313853270508152 -0.011266306968713322 -0.008641775766540847 -0.011266306968713322 -0.01389998911724371 -0.005997715914350944 -0.008641775766540847 -0.005997715914350944 -0.010681342669464617" free_energy=-63.426348322336 pbc="T T T"
P        7.61338655       1.65764925       2.34217328       0.00000000 NULL      -0.29597800      -0.94921300      -0.17739000
P        4.21618235       3.96027882       5.72164570       0.00000000 NULL      -0.99277800      -0.15713500       0.09887100
P        5.18494300       6.19076006       0.99402586       0.00000000 NULL      -0.49449700      -0.13129200      -0.87081000
P        7.33184236       2.90848751       4.03257495       0.00000000 NULL      -0.35901000       0.59516000       1.22914200
P        5.28950399       5.41117750       4.60621083       0.00000000 NULL       0.43197300       1.04603100      -0.84445900
P        6.91963531       5.24248473       1.76405039       0.00000000 NULL       1.13105100      -0.80556300       0.25628900
P        5.76839025      -0.43647378       0.56896965       0.00000000 NULL      -0.41625800       0.14650600       0.69692600
P        1.60896288       1.98956814       5.21933128       0.00000000 NULL      -0.00836000       0.55877700      -0.60675100
P        2.42670277       5.25127589      -0.56901414       0.00000000 NULL       0.52054600      -0.63871000      -0.03911400
P        5.90527587       4.25406695       0.07150038       0.00000000 NULL      -0.02334900       0.14023200       0.39520100
P        6.05103691       1.11710018       3.88735391       0.00000000 NULL       0.12319800       0.36331700      -0.17092600
P        3.16325471       5.12236087       4.09019801       0.00000000 NULL       0.38346100      -0.16810900       0.03302100
12
Lattice="6.63350325661105 -1.1029236923528045 -0.8459967414203654 1.2872477586298992 6.600212067390316 -0.8459967414204187 1.2872477586298656 0.8933966142469584 6.593963323424765" Properties=species:S:1:pos:R:3:initial_magmoms:R:1:castep_labels:S:1:forces:R:3 n_minim_iter=13 energy=-63.644936426752 stress="-0.010647985867530125 -0.006359689282450074 -0.0048781998525142325 -0.006359689282450074 -0.005898452948483874 -0.0033856634242856467 -0.0048781998525142325 -0.0033856634242856467 -0.004081592109736496" free_energy=-63.644936426752 pbc="T T T"
P        7.73779648       1.71270293       2.36236078       0.00000000 NULL      -0.41643500      -0.55052400       0.18656300
P        4.31127796       4.00499027       5.81038117       0.00000000 NULL      -0.66141700       0.12900000      -0.23914300
P        5.26009528       6.29549813       1.04196691       0.00000000 NULL      -0.11052300      -0.40324800      -0.58006800
P        7.53770899       2.97184916       4.10245153       0.00000000 NULL      -0.58499600       0.36841300       0.67385300
P        5.42087732       5.52290357       4.75296518       0.00000000 NULL       0.14050100       0.47540300      -0.82842100
P        7.07025860       5.40599178       1.80713832       0.00000000 NULL       0.49451600      -0.80910300       0.18119300
P        5.78611882      -0.39843413       0.60244875       0.00000000 NULL      -0.47655200      -0.12813900       0.26583100
P        1.65080086       2.02275908       5.21384383       0.00000000 NULL      -0.28674200       0.15266500      -0.45678300
P        2.47243218       5.25312450      -0.54095044       0.00000000 NULL       0.04270900      -0.52463800      -0.19264800
P        5.97192161       4.31686479       0.18542443       0.00000000 NULL       0.28541200       0.71696100       0.58367600
P        6.13318071       1.23761947       3.89691466       0.00000000 NULL       0.77150100       0.56803100      -0.13525400
P        3.30489452       5.14061224       4.12132618       0.00000000 NULL       0.80202500       0.00518000       0.54120100
12
Lattice="6.7612692405771675 -1.010271854881719 -0.7749282231442398 1.4187400470915414 6.68749487051166 -0.7749282231442884 1.4187400470915106 0.984657029752555 6.659846239058705" Properties=species:S:1:pos:R:3:initial_magmoms:R:1:castep_labels:S:1:forces:R:3 n_minim_iter=14 energy=-64.115582582332 stress="-0.0026794418315910866 -0.004846038669874082 -0.003717136153234025 -0.004846038669874082 0.0009396795449296161 -0.002579849165479917 -0.003717136153234025 -0.002579849165479917 0.002324107326997492" free_energy=-64.115582582332 pbc="T T T"
P        7.93101829       1.91940307       2.40129951       0.00000000 NULL      -0.40977000      -0.00177000       0.54402300
P        4.57251023       4.07077096       5.90528344       0.00000000 NULL      -0.14500100       0.42611000      -0.51115500
P        5.41310244       6.44461743       1.23151395       0.00000000 NULL       0.34846400      -0.56752500      -0.14269400
P        7.89040955       3.19725123       4.20473329       0.00000000 NULL      -0.16297800       0.04871100       0.03773300
P        5.75541772       5.68688649       4.96943148       0.00000000 NULL      -0.01137600      -0.00754100      -0.17370200
P        7.34090769       5.68141722       1.99833256       0.00000000 NULL      -0.01104400      -0.16984500       0.03727100
P        5.76631987      -0.30543017       0.69078231       0.00000000 NULL      -0.20983200      -0.31055000       0.13728500
P        1.73100284       2.09483648       5.14161472       0.00000000 NULL      -0.36433100       0.10980800      -0.12051800
P        2.56801141       5.19630048      -0.47401618       0.00000000 NULL      -0.02458000      -0.21480500      -0.33551600
P        6.23541653       4.45806852       0.54260499       0.00000000 NULL      -0.07114900       0.73944400       0.26428300
P        6.35763716       1.63376813       3.99505518       0.00000000 NULL       0.66783400       0.17094500      -0.38269800
P        3.75453214       5.25398060       4.16513994       0.00000000 NULL       0.39376300      -0.22298100       0.64568700
12
Lattice="6.830548499951232 -0.9316483760154969 -0.7146201461837518 1.516630859061966 6.724893481986113 -0.7146201461837987 1.5166308590619368 1.0525968023363075 6.680337885848484" Properties=species:S:1:pos:R:3:initial_magmoms:R:1:castep_labels:S:1:forces:R:3 n_minim_iter=15 energy=-64.251294130616 stress="0.0007658085386301481 -0.00039869884217904824 -0.00030581823258203617 -0.00039869884217904824 0.0010635621049136235 -0.0002122072381127016 -0.00030581823258203617 -0.0002122072381127016 0.0011775021449959343" free_energy=-64.251294130616 pbc="T T T"
P        8.06124042       2.07904217       2.45490503       0.00000000 NULL      -0.16246500       0.09709300       0.25558700
P        4.76761669       4.13968848       5.95528191       0.00000000 NULL       0.03412500       0.19861100      -0.24604100
P        5.54591656       6.53402846       1.37180679       0.00000000 NULL       0.19799900      -0.24735500       0.02753700