52
Lattice="4.838003222343136 -9.363113025226301e-18 1.395976308359696 -1.317950661388221e-16 16.29318375668982 2.4736037790805987e-16 1.3906108640275943 -2.1304919352984645e-16 16.46383985025916" Properties=species:S:1:pos:R:3:initial_magmoms:R:1:castep_labels:S:1:forces:R:3 n_minim_iter=1 energy=-275.309412192347 stress="0.0009221209297950227 0.0 -0.0009387697321590148 0.0 0.002021534229356125 -0.0 -0.0009387697321590148 -0.0 0.00034479922429070533" free_energy=-275.309412192347 pbc="T T T"
P        2.38167556      10.79704842      14.10191575       0.00000000 NULL      -0.23472800      -0.02496400      -0.24311100
P        3.84693852       2.65045655       3.75790041       0.00000000 NULL       0.23472800      -0.02496400       0.24311200
P        3.84693852       5.49613533       3.75790041       0.00000000 NULL       0.23472800       0.02496400       0.24311200
P        2.38167556      13.64272721      14.10191575       0.00000000 NULL      -0.23472800       0.02496400      -0.24311200
P        5.52683058       6.00474907      14.78047051       0.00000000 NULL      -0.24500500       0.02614600       0.18499900
P        0.70178351      14.15134095       3.07934565       0.00000000 NULL       0.24500500       0.02614600      -0.18499900
P        0.70178351      10.28843469       3.07934565       0.00000000 NULL       0.24500500      -0.02614600      -0.18499900
P        5.52683058       2.14184281      14.78047051       0.00000000 NULL      -0.24500500      -0.02614600       0.18499900
P        4.80046541       5.76728687       7.26280752       0.00000000 NULL      -0.38451000       0.50270700      -0.00554600
P        1.42814867      13.91387875      10.59700865       0.00000000 NULL       0.38451000       0.50270700       0.00554600
P        1.42814867      10.52589689      10.59700865       0.00000000 NULL       0.38451000      -0.50270700       0.00554600
P        4.80046541       2.37930501       7.26280752       0.00000000 NULL      -0.38451000      -0.50270700      -0.00554600
P        4.74461568      10.80707173      14.95557668       0.00000000 NULL       0.45527400      -0.16660400       0.11314200
P        1.48399840       2.66047986       2.90423948       0.00000000 NULL      -0.45527400      -0.16660500      -0.11314200
P        1.48399840       5.48611202       2.90423948       0.00000000 NULL      -0.45527400       0.16660400      -0.11314200
P        4.74461568      13.63270390      14.95557668       0.00000000 NULL       0.45527400       0.16660400       0.11314200
P        4.94149307       9.20988938      13.38951759       0.00000000 NULL       0.08829700       0.13204200       0.01554000
P        1.28712101       1.06329750       4.47029857       0.00000000 NULL      -0.08829700       0.13204100      -0.01554100
P        1.28712101       7.08329437       4.47029857       0.00000000 NULL      -0.08829700      -0.13204200      -0.01554000
P        4.94149307      15.22988625      13.38951759       0.00000000 NULL       0.08829800      -0.13204100       0.01554100
P        5.00351712       2.61686963       1.29624800       0.00000000 NULL      -0.08162700       0.04832000      -0.02768700
P        1.22509696      10.76346151      16.56356816       0.00000000 NULL       0.08162700       0.04832000       0.02768700
P        1.22509696      13.67631413      16.56356816       0.00000000 NULL       0.08162700      -0.04832000       0.02768800
P        5.00351712       5.52972225       1.29624800       0.00000000 NULL      -0.08162700      -0.04832000      -0.02768700
P        2.72924261      -0.43978058      14.24387098       0.00000000 NULL       0.08651400       0.22213800       0.09837700
P        3.49937148       7.70681130       3.61594518       0.00000000 NULL      -0.08651500       0.22213700      -0.09837800
P        3.49937148      16.73296433       3.61594518       0.00000000 NULL      -0.08651400      -0.22213800      -0.09837700
P        2.72924261       8.58637246      14.24387098       0.00000000 NULL       0.08651500      -0.22213800       0.09837800
P        1.20114061      15.20853897       1.07145023       0.00000000 NULL      -0.18318100       0.11874700       0.18489600
P        5.02747347       7.06194709      16.78836594       0.00000000 NULL       0.18318100       0.11874700      -0.18489600
P        5.02747347       1.08464479      16.78836594       0.00000000 NULL       0.18318100      -0.11874700      -0.18489600
P        1.20114061       9.23123666       1.07145023       0.00000000 NULL      -0.18318100      -0.11874700       0.18489600
P        1.78610557       7.82347600      12.40995395       0.00000000 NULL       0.18433700      -0.19585600      -0.09899200
P        4.44250851      15.97006788       5.44986221       0.00000000 NULL      -0.18433600      -0.19585400       0.09899100
P        4.44250851       8.46970776       5.44986221       0.00000000 NULL      -0.18433700       0.19585600       0.09899200
P        1.78610557       0.32311588      12.40995395       0.00000000 NULL       0.18433600       0.19585400      -0.09899100
P        3.13466179       2.95423685       5.88264080       0.00000000 NULL       0.16250500      -0.39033800       0.13447200
P        3.09395229      11.10082872      11.97717536       0.00000000 NULL      -0.16250400      -0.39033800      -0.13447200
P        3.09395229      13.33894691      11.97717536       0.00000000 NULL      -0.16250400       0.39033800      -0.13447200
P        3.13466179       5.19235503       5.88264080       0.00000000 NULL       0.16250500       0.39033800       0.13447200
P        2.55572428       2.94491234      14.36909558       0.00000000 NULL       0.08253200      -0.05905800      -0.11157600
P        3.67288981      11.09150422       3.49072059       0.00000000 NULL      -0.08253200      -0.05905900       0.11157500
P        3.67288981      13.34827141       3.49072059       0.00000000 NULL      -0.08253200       0.05905800       0.11157600
P        2.55572428       5.20167953      14.36909558       0.00000000 NULL       0.08253100       0.05905900      -0.11157600
P        1.55298250       6.78492666       1.08367205       0.00000000 NULL       0.37269900       0.13978000       0.01945100
P        4.67563158      14.93151853      16.77614412       0.00000000 NULL      -0.37269900       0.13978000      -0.01945200
P        4.67563158       9.50825710      16.77614412       0.00000000 NULL      -0.37269900      -0.13978000      -0.01945200
P        1.55298250       1.36166522       1.08367205       0.00000000 NULL       0.37269900      -0.13978000       0.01945200
P        3.03870173       8.92744817      10.67849541       0.00000000 NULL      -0.48216200       0.49371800       0.15658100
P        3.18991235       0.78085629       7.18132075       0.00000000 NULL       0.48216200       0.49371800      -0.15658100
P        3.18991235       7.36573559       7.18132075       0.00000000 NULL       0.48216200      -0.49371800      -0.15658100
P        3.03870173      15.51232747      10.67849541       0.00000000 NULL      -0.48216200      -0.49371800       0.15658100
52
Lattice="4.830404683310493 -1.1762782442142612e-17 1.4057813441716736 -1.373039474769584e-16 16.21373899001628 2.4111480723779763e-16 1.424830770484141 -2.187281594419895e-16 16.45331381968678" Properties=species:S:1:pos:R:3:initial_magmoms:R:1:castep_labels:S:1:forces:R:3 n_minim_iter=2 energy=-275.327879181726 stress="-0.0016319970056676296 0.0 -5.515353783056262e-05 0.0 -0.0012849229888086463 0.0 -5.515353783056262e-05 0.0 -0.0017783194689074886" free_energy=-275.327879181726 pbc="T T T"
P        2.40788947      10.74435510      14.09513319       0.00000000 NULL      -0.27461800       0.03884300      -0.22806000
P        3.84734598       2.63748561       3.76396198       0.00000000 NULL       0.27461800       0.03884300       0.22806000
P        3.84734598       5.46938389       3.76396198       0.00000000 NULL       0.27461800      -0.03884300       0.22806000
P        2.40788947      13.57625338      14.09513319       0.00000000 NULL      -0.27461800      -0.03884300      -0.22806000
P        5.54756808       5.97551989      14.78106916       0.00000000 NULL      -0.26617000      -0.00698000       0.16642600
P        0.70766737      14.08238939       3.07802601       0.00000000 NULL       0.26617000      -0.00698000      -0.16642600
P        0.70766737      10.23821910       3.07802601       0.00000000 NULL       0.26617000       0.00698000      -0.16642600
P        5.54756808       2.13134960      14.78106916       0.00000000 NULL      -0.26617000       0.00698000       0.16642600
P        4.80551420       5.74012117       7.26764123       0.00000000 NULL      -0.35389900       0.42135400       0.04317600
P        1.44972125      13.84699066      10.59145393       0.00000000 NULL       0.35389900       0.42135400      -0.04317600
P        1.44972125      10.47361782      10.59145393       0.00000000 NULL       0.35389900      -0.42135400      -0.04317600
P        4.80551420       2.36674833       7.26764123       0.00000000 NULL      -0.35389900      -0.42135400       0.04317600
P        4.76882412      10.75406038      14.95412299       0.00000000 NULL       0.45987800      -0.11333100       0.13642900
P        1.48641133       2.64719088       2.90497218       0.00000000 NULL      -0.45987800      -0.11333100      -0.13642900
P        1.48641133       5.45967861       2.90497218       0.00000000 NULL      -0.45987800       0.11333100      -0.13642900
P        4.76882412      13.56654811      14.95412299       0.00000000 NULL       0.45987800       0.11333100       0.13642900
P        4.96101459       9.16523333      13.38962332       0.00000000 NULL       0.06990600       0.08018000       0.00030700
P        1.29422086       1.05836384       4.46947185       0.00000000 NULL      -0.06990600       0.08018000      -0.00030700
P        1.29422086       7.04850566       4.46947185       0.00000000 NULL      -0.06990600      -0.08018000      -0.00030700
P        4.96101459      15.15537515      13.38962332       0.00000000 NULL       0.06990600      -0.08018000       0.00030700
P        4.99516871       2.60420172       1.30645782       0.00000000 NULL      -0.09265100       0.05669600       0.00514400
P        1.26006674      10.71107122      16.55263734       0.00000000 NULL       0.09265100       0.05669600      -0.00514400
P        1.26006674      13.60953727      16.55263734       0.00000000 NULL       0.09265100      -0.05669600      -0.00514400
P        4.99516871       5.50266777       1.30645782       0.00000000 NULL      -0.09265100      -0.05669600       0.00514400
P        2.75561863      -0.43721409      14.23841117       0.00000000 NULL       0.07653900       0.31639700       0.11446200
P        3.49961682       7.66965540       3.62068400       0.00000000 NULL      -0.07653900       0.31639700      -0.11446200
P        3.49961682      16.65095308       3.62068400       0.00000000 NULL      -0.07653900      -0.31639700      -0.11446200
P        2.75561863       8.54408359      14.23841117       0.00000000 NULL       0.07653900      -0.31639700       0.11446200
P        1.20054871      15.13460854       1.07363434       0.00000000 NULL      -0.18700300       0.17243300       0.17956000
P        5.05468675       7.02773904      16.78546083       0.00000000 NULL       0.18700300       0.17243300      -0.17956000
P        5.05468675       1.07913045      16.78546083       0.00000000 NULL       0.18700300      -0.17243300      -0.17956000
P        1.20054871       9.18599995       1.07363434       0.00000000 NULL      -0.18700300      -0.17243300       0.17956000
P        1.81060883       7.78495692      12.40350404       0.00000000 NULL       0.21403100      -0.23407900      -0.08002600
P        4.44462663      15.89182642       5.45559113       0.00000000 NULL      -0.21403100      -0.23407900       0.08002600
P        4.44462663       8.42878207       5.45559113       0.00000000 NULL      -0.21403100       0.23407900       0.08002600
P        1.81060883       0.32191257      12.40350404       0.00000000 NULL       0.21403100       0.23407900      -0.08002600
P        3.14133114       2.93909036       5.88511530       0.00000000 NULL       0.12639300      -0.41378900       0.16955800
P        3.11390431      11.04595986      11.97397987       0.00000000 NULL      -0.12639300      -0.41378900      -0.16955800
P        3.11390431      13.27464863      11.97397987       0.00000000 NULL      -0.12639300       0.41378900      -0.16955800
P        3.14133114       5.16777913       5.88511530       0.00000000 NULL       0.12639300       0.41378900       0.16955800
P        2.58276161       2.93044086      14.36273786       0.00000000 NULL       0.13490600      -0.10281100      -0.15902800
P        3.67247384      11.03731036       3.49635731       0.00000000 NULL      -0.13490600      -0.10281100       0.15902800
P        3.67247384      13.28329813       3.49635731       0.00000000 NULL      -0.13490600       0.10281100       0.15902800
P        2.58276161       5.17642863      14.36273786       0.00000000 NULL       0.13490600       0.10281100      -0.15902800
P        1.55269406       6.75210931       1.08633015       0.00000000 NULL       0.35250100       0.17417300       0.01076200
P        4.70254139      14.85897881      16.77276502       0.00000000 NULL      -0.35250100       0.17417300      -0.01076200
P        4.70254139       9.46162968      16.77276502       0.00000000 NULL      -0.35250100      -0.17417300      -0.01076200
P        1.55269406       1.35476018       1.08633015       0.00000000 NULL       0.35250100      -0.17417300       0.01076200
P        3.05522554       8.88485660      10.67680757       0.00000000 NULL      -0.40120300       0.44266200       0.11294400
P        3.20000991       0.77798710       7.18228760       0.00000000 NULL       0.40120300       0.44266200      -0.11294400
P        3.20000991       7.32888239       7.18228760       0.00000000 NULL       0.40120300      -0.44266200      -0.11294400
P        3.05522554      15.43575189      10.67680757       0.00000000 NULL      -0.40120300      -0.44266200       0.11294400
52
Lattice="4.853116339205506 -2.113485320976926e-17 1.4392307669818245 -1.6918816991723444e-16 16.151374641849863 2.48311636715908e-16 1.5106824466662303 -2.1505523935192122e-16 16.572899179871925" Properties=species:S:1:pos:R:3:initial_magmoms:R:1:castep_labels:S:1:forces:R:3 n_minim_iter=3 energy=-275.365333097066 stress="0.0009667297199593875 0.0 0.0019932090314952124 0.0 -0.0011724670583271942 -0.0 0.0019932090314952124 -0.0 0.002466221356970435" free_energy=-275.365333097066 pbc="T T T"
P        2.48333485      10.70307742      14.20159080       0.00000000 NULL      -0.32155300       0.06084500      -0.28272100
P        3.88046394       2.62739010       3.81053915       0.00000000 NULL       0.32155300       0.06084500       0.28272100
P        3.88046394       5.44829722       3.81053915       0.00000000 NULL       0.32155300      -0.06084500       0.28272100
P        2.48333485      13.52398454      14.20159080       0.00000000 NULL      -0.32155300      -0.06084500      -0.28272100
P        5.63666967       5.95261078      14.91090432       0.00000000 NULL      -0.17213200      -0.04147100       0.27101400
P        0.72712912      14.02829810       3.10122563       0.00000000 NULL       0.17213200      -0.04147100      -0.27101400
P        0.72712912      10.19876386       3.10122563       0.00000000 NULL       0.17213200       0.04147100      -0.27101400
P        5.63666967       2.12307654      14.91090432       0.00000000 NULL      -0.17213200       0.04147100       0.27101400
P        4.85422348       5.72157398       7.34118820       0.00000000 NULL      -0.37830500       0.33500700      -0.02823100
P        1.50957530      13.79726130      10.67094175       0.00000000 NULL       0.37830500       0.33500700       0.02823200
P        1.50957530      10.42980066      10.67094175       0.00000000 NULL       0.37830500      -0.33500700       0.02823100
P        4.85422348       2.35411334       7.34118820       0.00000000 NULL      -0.37830500      -0.33500700      -0.02823200
P        4.86173686      10.71162457      15.08094824       0.00000000 NULL       0.48198000      -0.14497600       0.15139500
P        1.50206192       2.63593725       2.93118171       0.00000000 NULL      -0.48198000      -0.14497600      -0.15139500
P        1.50206192       5.43975007       2.93118171       0.00000000 NULL      -0.48198000       0.14497600      -0.15139500
P        4.86173686      13.51543739      15.08094824       0.00000000 NULL       0.48198000       0.14497600       0.15139500
P        5.04390624       9.13079326      13.50576467       0.00000000 NULL       0.11183000       0.04981600       0.05297900
P        1.31989254       1.05510594       4.50636528       0.00000000 NULL      -0.11183100       0.04981500      -0.05298000
P        1.31989254       7.02058138       4.50636528       0.00000000 NULL      -0.11183000      -0.04981600      -0.05297900
P        5.04390624      15.09626870      13.50576467       0.00000000 NULL       0.11183100      -0.04981500       0.05298000
P        5.01725564       2.59458528       1.33994591       0.00000000 NULL      -0.04895400       0.00364500      -0.00556200
P        1.34654314      10.67027260      16.67218405       0.00000000 NULL       0.04895400       0.00364500       0.00556200
P        1.34654314      13.55678936      16.67218405       0.00000000 NULL       0.04895400      -0.00364500       0.00556200
P        5.01725564       5.48110204       1.33994591       0.00000000 NULL      -0.04895400      -0.00364500      -0.00556200
P        2.83552201      -0.43348243      14.35024100       0.00000000 NULL       0.00198300       0.37507000      -0.03957100
P        3.52827677       7.64220490       3.66188896       0.00000000 NULL      -0.00198300       0.37506900       0.03957000
P        3.52827677      16.58485707       3.66188896       0.00000000 NULL      -0.00198300      -0.37507000       0.03957000
P        2.83552201       8.50916975      14.35024100       0.00000000 NULL       0.00198300      -0.37506900      -0.03957000
P        1.20835090      15.07750319       1.08830519       0.00000000 NULL      -0.20640700       0.16347400       0.16880600
P        5.15544788       7.00181586      16.92382476       0.00000000 NULL       0.20640600       0.16347400      -0.16880600
P        5.15544788       1.07387146      16.92382476       0.00000000 NULL       0.20640700      -0.16347400      -0.16880600
P        1.20835090       9.14955878       1.08830519       0.00000000 NULL      -0.20640600      -0.16347400       0.16880600
P        1.87926422       7.75337423      12.49660560       0.00000000 NULL       0.22512400      -0.17202300       0.05293700
P        4.48453456      15.82906155       5.51552435       0.00000000 NULL      -0.22512400      -0.17202000      -0.05293700
P        4.48453456       8.39800041       5.51552435       0.00000000 NULL      -0.22512400       0.17202300      -0.05293700
P        1.87926422       0.32231309      12.49660560       0.00000000 NULL       0.22512400       0.17202000       0.05293700
P        3.18175977       2.92471773       5.94206104       0.00000000 NULL       0.17253500      -0.43791500       0.16698200
P        3.18203902      11.00040505      12.07006891       0.00000000 NULL      -0.17253500      -0.43791500      -0.16698200
P        3.18203902      13.22665691      12.07006891       0.00000000 NULL      -0.17253500       0.43791500      -0.16698200
P        3.18175977       5.15096959       5.94206104       0.00000000 NULL       0.17253500       0.43791400       0.16698200
P        2.66290487       2.91855397      14.47269424       0.00000000 NULL       0.05053000      -0.16478200      -0.15213400
P        3.70089392      10.99424129       3.53943571       0.00000000 NULL      -0.05053000      -0.16478200       0.15213400
P        3.70089392      13.23282067       3.53943571       0.00000000 NULL      -0.05053000       0.16478200       0.15213400
P        2.66290487       5.15713335      14.47269424       0.00000000 NULL       0.05053000       0.16478200      -0.15213400
P        1.56592641       6.72733435       1.10156334       0.00000000 NULL       0.28655500       0.11183000      -0.02417400
P        4.79787237      14.80302167      16.91056661       0.00000000 NULL      -0.28655400       0.11183100       0.02417400
P        4.79787237       9.42404029      16.91056661       0.00000000 NULL      -0.28655500      -0.11183000       0.02417400
P        1.56592641       1.34835297       1.10156334       0.00000000 NULL       0.28655400      -0.11183100      -0.02417400
P        3.11448871       8.85425880      10.76594084       0.00000000 NULL      -0.33601800       0.39858200       0.12527500
P        3.24931007       0.77857148       7.24618911       0.00000000 NULL       0.33601900       0.39858200      -0.12527500
P        3.24931007       7.29711584       7.24618911       0.00000000 NULL       0.33601800      -0.39858200      -0.12527500
P        3.11448871      15.37280316      10.76594084       0.00000000 NULL      -0.33601900      -0.39858200       0.12527500
52
Lattice="4.864537198737606 -2.1190593071044925e-17 1.41409730912115 -1.7196412159298034e-16 16.109139849432733 2.507884755223186e-16 1.434077107241914 -2.127140371337841e-16 16.553347003654977" Properties=species:S:1:pos:R:3:initial_magmoms:R:1:castep_labels:S:1:forces:R:3 n_minim_iter=4 energy=-275.667021261939 stress="7.924016610703938e-06 0.0 -0.00040569067078753695 0.0 -0.002197744195839221 -0.0 -0.00040569067078753695 -0.0 0.0011719320055623133" free_energy=-275.667021261939 pbc="T T T"
P        2.40493079      10.67626975      14.16307739       0.00000000 NULL      -0.40020000      -0.08064700      -0.28432200
P        3.89368351       2.62169982       3.80436693       0.00000000 NULL       0.40020000      -0.08064700       0.28432200
P        3.89368351       5.43287010       3.80436693       0.00000000 NULL       0.40020000       0.08064700       0.28432200
P        2.40493079      13.48744003      14.16307739       0.00000000 NULL      -0.40020000       0.08064700      -0.28432200
P        5.56905803       5.93693469      14.88465327       0.00000000 NULL      -0.09679100      -0.05350500       0.13344100
P        0.72955627      13.99150462       3.08279105       0.00000000 NULL       0.09679100      -0.05350500      -0.13344100
P        0.72955627      10.17220516       3.08279105       0.00000000 NULL       0.09679100       0.05350500      -0.13344100
P        5.56905803       2.11763523      14.88465327       0.00000000 NULL      -0.09679100       0.05350500       0.13344100
P        4.81257920       5.73380128       7.31216042       0.00000000 NULL       0.33348400      -0.11779200       0.19004300
P        1.48603510      13.78837121      10.65528389       0.00000000 NULL      -0.33348400      -0.11779200      -0.19004300
P        1.48603510      10.37533857      10.65528389       0.00000000 NULL      -0.33348400       0.11779200      -0.19004300
P        4.81257920       2.32076864       7.31216042       0.00000000 NULL       0.33348400       0.11779200       0.19004300
P        4.83500905      10.67476129      15.05436426       0.00000000 NULL       0.59455600      -0.13696300       0.12174700
P        1.46360525       2.62019136       2.91308006       0.00000000 NULL      -0.59455600      -0.13696300      -0.12174700
P        1.46360525       5.43437856       2.91308006       0.00000000 NULL      -0.59455600       0.13696300      -0.12174700
P        4.83500905      13.48894849      15.05436426       0.00000000 NULL       0.59455600       0.13696300       0.12174700
P        5.00160993       9.11278630      13.47209819       0.00000000 NULL       0.04670700      -0.09378800       0.06318000
P        1.29700438       1.05821638       4.49534613       0.00000000 NULL      -0.04670800      -0.09378800      -0.06318000
P        1.29700438       6.99635355       4.49534613       0.00000000 NULL      -0.04670700       0.09378800      -0.06318000
P        5.00160993      15.05092347      13.47209819       0.00000000 NULL       0.04670800       0.09378800       0.06318000
P        5.02478043       2.59040344       1.31340488       0.00000000 NULL       0.12358000      -0.08119600      -0.04291400
P        1.27383387      10.64497337      16.65403944       0.00000000 NULL      -0.12358000      -0.08119600       0.04291400
P        1.27383387      13.51873641      16.65403944       0.00000000 NULL      -0.12358000       0.08119600       0.04291400
P        5.02478043       5.46416648       1.31340488       0.00000000 NULL       0.12358000       0.08119600      -0.04291400
P        2.77911410      -0.41400378      14.33043955       0.00000000 NULL       0.05066600       0.17133900      -0.04991600
P        3.51950020       7.64056615       3.63700477       0.00000000 NULL      -0.05066600       0.17133800       0.04991600
P        3.51950020      16.52314362       3.63700477       0.00000000 NULL      -0.05066600      -0.17133900       0.04991600
P        2.77911410       8.46857370      14.33043955       0.00000000 NULL       0.05066600      -0.17133800      -0.04991600
P        1.19548375      15.04744250       1.09293302       0.00000000 NULL      -0.14807300       0.19761300       0.07995000
P        5.10313056       6.99287257      16.87451129       0.00000000 NULL       0.14807300       0.19761300      -0.07995000
P        5.10313056       1.06169735      16.87451129       0.00000000 NULL       0.14807300      -0.19761300      -0.07995000
P        1.19548375       9.11626728       1.09293302       0.00000000 NULL      -0.14807300      -0.19761300       0.07995000
P        1.83742476       7.72023715      12.47458406       0.00000000 NULL       0.02337200      -0.17820200       0.11015700
P        4.46118954      15.77480707       5.49286026       0.00000000 NULL      -0.02337100      -0.17820100      -0.11015700
P        4.46118954       8.38890270       5.49286026       0.00000000 NULL      -0.02337100       0.17820200      -0.11015700
P        1.83742476       0.33433277      12.47458406       0.00000000 NULL       0.02337100       0.17820100       0.11015700
P        3.17408949       2.89137092       5.93194040       0.00000000 NULL      -0.08020500      -0.11276200      -0.07027900
P        3.12452481      10.94594085      12.03550392       0.00000000 NULL       0.08020500      -0.11276200       0.07027900
P        3.12452481      13.21776893      12.03550392       0.00000000 NULL       0.08020500       0.11276200       0.07027900
P        3.17408949       5.16319900       5.93194040       0.00000000 NULL      -0.08020500       0.11276200      -0.07027900
P        2.60720600       2.90467975      14.44007590       0.00000000 NULL      -0.07381800      -0.10191300      -0.01126900
P        3.69140831      10.95924967       3.52736841       0.00000000 NULL       0.07381800      -0.10191300       0.01126900
P        3.69140831      13.20446010       3.52736841       0.00000000 NULL       0.07381800       0.10191300       0.01126900
P        2.60720600       5.14989018      14.44007590       0.00000000 NULL      -0.07381800       0.10191300      -0.01126900
P        1.58852144       6.71894054       1.09348784       0.00000000 NULL       0.16596000       0.01827700      -0.13056300
P        4.71009286      14.77351047      16.87395648       0.00000000 NULL      -0.16595900       0.01827700       0.13056300
P        4.71009286       9.39019931      16.87395648       0.00000000 NULL      -0.16595900      -0.01827700       0.13056300
P        1.58852144       1.33562938       1.09348784       0.00000000 NULL       0.16595900      -0.01827700      -0.13056300
P        3.04621299       8.85948132      10.75103437       0.00000000 NULL       0.17627300      -0.11101900       0.07219300
P        3.25240132       0.80491140       7.21640995       0.00000000 NULL      -0.17627300      -0.11101900      -0.07219300
P        3.25240132       7.24965853       7.21640995       0.00000000 NULL      -0.17627300       0.11101900      -0.07219300
P        3.04621299      15.30422845      10.75103437       0.00000000 NULL       0.17627300       0.11101900       0.07219300
52
Lattice="4.86800726926173 3.7546329656823236e-17 1.4292727433236219 5.880166149236363e-17 16.195805204733308 1.5415557084056394e-16 1.504377206311786 -2.800869721685148e-16 16.49214204682156" Properties=species:S:1:pos:R:3:initial_magmoms:R:1:castep_labels:S:1:forces:R:3 n_minim_iter=5 energy=-275.693961030983 stress="-9.849553094788663e-05 -0.0 0.0015997305281584067 -0.0 7.283643362858401e-05 -0.0 0.0015997305281584067 -0.0 -0.0009096928386229876" free_energy=-275.693961030983 pbc="T T T"
P        2.46141369      10.73346566      14.11324858       0.00000000 NULL      -0.42616300      -0.17338500      -0.24231700
P        3.91097079       2.63556306       3.80816621       0.00000000 NULL       0.42616300      -0.17338500       0.24231700
P        3.91097079       5.46233954       3.80816621       0.00000000 NULL       0.42616300       0.17338500       0.24231700
P        2.46141369      13.56024214      14.11324858       0.00000000 NULL      -0.42616300       0.17338500      -0.24231700
P        5.62813742       5.96873749      14.84965386       0.00000000 NULL      -0.06868500      -0.08416000       0.11397800
P        0.74424705      14.06664010       3.07176093       0.00000000 NULL       0.06868500      -0.08416000      -0.11397800
P        0.74424705      10.22706771       3.07176093       0.00000000 NULL       0.06868500       0.08416000      -0.11397800
P        5.62813742       2.12916511      14.84965386       0.00000000 NULL      -0.06868500       0.08416000       0.11397800