33
Lattice="8.576099999999997 -1.4504904837786908e-15 0.0 -4.288049999999998 7.427120465395723 0.0 0.0 0.0 11.866349999999999" Properties=species:S:1:pos:R:3:initial_magmoms:R:1:castep_labels:S:1 n_minim_iter=1 pbc="T T T"
P        1.16201953       0.84030887       7.44806647       0.00000000 NULL
P        4.43476906       6.00062760      11.40351647       0.00000000 NULL
P        7.26736141       0.58618400       3.49261647       0.00000000 NULL
P        2.11734304       1.93810263       8.90611693       0.00000000 NULL
P        4.90782459       4.62439629       0.99521693       0.00000000 NULL
P        5.83898237       0.86462155       4.95066693       0.00000000 NULL
P        4.83014014       2.08087862       3.66510257       0.00000000 NULL
P        3.67507368       2.20365709       7.62055257       0.00000000 NULL
P        4.35893619       3.14258476      11.57600257       0.00000000 NULL
P        7.23439188       2.15016400       6.91725497       0.00000000 NULL
P        2.53295071       0.08687132      10.87270497       0.00000000 NULL
P        3.09680742       5.19008515       2.96180497       0.00000000 NULL
P        1.28007640       6.52573393       6.52393411       0.00000000 NULL
P        0.72336316       3.05567482      10.47938411       0.00000000 NULL
P       -2.00343956       5.27283218       2.56848411       0.00000000 NULL
P       -3.26824708       5.76829093       4.04769861       0.00000000 NULL
P        2.34156002       7.37336000       8.00314861       0.00000000 NULL
P        0.92668706       1.71259001       0.09224861       0.00000000 NULL
P        2.21309519       0.42172081       0.97036958       0.00000000 NULL
P        3.54672334       5.29966341       4.92581958       0.00000000 NULL
P        7.10433147       1.70573625       8.88126958       0.00000000 NULL
P        7.83572529       0.88862377       5.47462838       0.00000000 NULL
P        1.13975811       0.19687143       9.43007838       0.00000000 NULL
P        3.88866660       6.34162528       1.51917838       0.00000000 NULL
P       -1.06946111       3.70373267       5.61696169       0.00000000 NULL
P       -0.54579286       6.50143462       9.57241169       0.00000000 NULL
P        1.61525398       4.64907364       1.66151169       0.00000000 NULL
P        3.00051453       4.24304336       6.74035379       0.00000000 NULL
P        6.46237607       2.70707698      10.69580379       0.00000000 NULL
P        3.40125940       0.47700013       2.78490379       0.00000000 NULL
P        4.54122891       3.86606650       9.67426730       0.00000000 NULL
P        5.36554735       1.56126762       1.76336730       0.00000000 NULL
P        2.95737375       1.99978635       5.71881730       0.00000000 NULL
33
Lattice="8.61097534027113 -1.0826645650103527e-15 1.1308919876537365e-60 -4.305487670135565 7.45732339603615 1.0511967891582533e-43 -5.370674667048265e-59 -3.009649089802235e-43 11.968264253297166" Properties=species:S:1:pos:R:3:initial_magmoms:R:1:castep_labels:S:1 n_minim_iter=2 pbc="T T T"
P        1.16674865       0.84369214       7.51173756       0.00000000 NULL
P        4.45277217       6.02504336      11.50115898       0.00000000 NULL
P        7.29694219       0.58858790       3.52231614       0.00000000 NULL
P        2.12590296       1.94631138       8.98275115       0.00000000 NULL
P        4.92809129       4.64308174       1.00390831       0.00000000 NULL
P        5.86246877       0.86793028       4.99332973       0.00000000 NULL
P        4.84954127       2.08964462       3.69661896       0.00000000 NULL
P        3.69040236       2.21267515       7.68604038       0.00000000 NULL
P        4.37651938       3.15500363      11.67546180       0.00000000 NULL
P        7.26373658       2.15919970       6.97670239       0.00000000 NULL
P        2.54354117       0.08714314      10.96612381       0.00000000 NULL
P        3.10918526       5.21098056       2.98728097       0.00000000 NULL
P        1.28511699       6.55215484       6.57980908       0.00000000 NULL
P        0.72628637       3.06830202      10.56923050       0.00000000 NULL
P       -2.01140336       5.29418994       2.59038766       0.00000000 NULL
P       -3.28136314       5.79189483       4.08266222       0.00000000 NULL
P        2.35112196       7.40311982       8.07208364       0.00000000 NULL
P        0.93024118       1.71963214       0.09324081       0.00000000 NULL
P        2.22215786       0.42336570       0.97899119       0.00000000 NULL
P        3.56105420       5.32119540       4.96841260       0.00000000 NULL
P        7.13325096       1.71276231       8.95783402       0.00000000 NULL
P        7.86798344       0.89210743       5.52158549       0.00000000 NULL
P        1.14408365       0.19739615       9.51100691       0.00000000 NULL
P        3.90439592       6.36781983       1.53216407       0.00000000 NULL
P       -1.07375065       3.71891998       5.66516078       0.00000000 NULL
P       -0.54793317       6.52775875       9.65458219       0.00000000 NULL
P        1.62168382       4.66796807       1.67573936       0.00000000 NULL
P        3.01264421       4.26020112       6.79823412       0.00000000 NULL
P        6.48860796       2.71819642      10.78765553       0.00000000 NULL
P        3.41521084       0.47892586       2.80881270       0.00000000 NULL
P        4.55981249       3.88188924       9.75721212       0.00000000 NULL
P        5.38739613       1.56746533       1.77836929       0.00000000 NULL
P        2.96925440       2.00796883       5.76779070       0.00000000 NULL
33
Lattice="8.85005383534932 -2.430845866367656e-16 -6.315521627105312e-45 -4.425026917674661 7.664371446272415 -2.980107022282032e-43 -8.777847891065051e-45 -1.6909611706375554e-42 12.680460070984832" Properties=species:S:1:pos:R:3:initial_magmoms:R:1:castep_labels:S:1 n_minim_iter=3 pbc="T T T"
P        1.19922178       0.86691908       7.95661917       0.00000000 NULL
P        4.57618997       6.19235539      12.18343919       0.00000000 NULL
P        7.49966901       0.60509699       3.72979914       0.00000000 NULL
P        2.18446814       2.00276608       9.51832476       0.00000000 NULL
P        5.06723915       4.77118351       1.06468471       0.00000000 NULL
P        6.02337347       0.89042187       5.29150474       0.00000000 NULL
P        4.98240556       2.14989373       3.91676650       0.00000000 NULL
P        3.79568672       2.27453480       8.14358652       0.00000000 NULL
P        4.49698847       3.23994293      12.37040655       0.00000000 NULL
P        7.46487464       2.22128680       7.39216617       0.00000000 NULL
P        2.61628040       0.08895698      11.61898620       0.00000000 NULL
P        3.19392572       5.35412767       3.16534615       0.00000000 NULL
P        1.31964952       6.73327678       6.97019065       0.00000000 NULL
P        0.74633706       3.15488305      11.19701067       0.00000000 NULL
P       -2.06598658       5.44058307       2.74337062       0.00000000 NULL
P       -3.37113340       5.95377179       4.32710282       0.00000000 NULL
P        2.41665740       7.60697272       8.55392285       0.00000000 NULL
P        0.95447600       1.76799839       0.10028280       0.00000000 NULL
P        2.28433027       0.43459201       1.03936245       0.00000000 NULL
P        3.65922951       5.46878740       5.26618247       0.00000000 NULL
P        7.33152098       1.76099204       9.49300250       0.00000000 NULL
P        8.08930639       0.91594282       5.84964817       0.00000000 NULL
P        1.17360347       0.20085521      10.07646820       0.00000000 NULL
P        4.01217090       6.54757343       1.62282815       0.00000000 NULL
P       -1.10310332       3.82304006       6.00200700       0.00000000 NULL
P       -0.56262545       6.70816691      10.22882702       0.00000000 NULL
P        1.66572877       4.79753592       1.77518698       0.00000000 NULL
P        3.09573735       4.37768343       7.20262464       0.00000000 NULL
P        6.66834331       2.79454255      11.42944467       0.00000000 NULL
P        3.51100010       0.49214547       2.97580462       0.00000000 NULL
P        4.68735295       3.99036432      10.33693251       0.00000000 NULL
P        5.53710732       1.60982256       1.88329246       0.00000000 NULL
P        3.05062049       2.06418457       6.11011249       0.00000000 NULL
33
Lattice="8.881893345995673 -3.8789602762544516e-17 -2.327756505471329e-44 -4.440946672997837 7.691945271336222 4.190128187291047e-43 -3.302620053764345e-44 -1.3044335620943777e-42 12.801870540617179" Properties=species:S:1:pos:R:3:initial_magmoms:R:1:castep_labels:S:1 n_minim_iter=4 pbc="T T T"
P        1.20391624       0.87027714       8.03226534       0.00000000 NULL
P        4.59267067       6.21418466      12.29955552       0.00000000 NULL
P        7.52625312       0.60748348       3.76497516       0.00000000 NULL
P        2.19143979       2.01150699       9.60972914       0.00000000 NULL
P        5.08724293       4.78834925       1.07514878       0.00000000 NULL
P        6.04415730       0.89208904       5.34243896       0.00000000 NULL
P        4.99916215       2.15892945       3.95360853       0.00000000 NULL
P        3.81105335       2.28307913       8.22089871       0.00000000 NULL
P        4.51262452       3.24993669      12.48818889       0.00000000 NULL
P        7.49149337       2.23047200       7.46300742       0.00000000 NULL
P        2.62684540       0.08888570      11.73029760       0.00000000 NULL
P        3.20450125       5.37258758       3.19571724       0.00000000 NULL
P        1.32401321       6.75741867       7.03633821       0.00000000 NULL
P        0.74914296       3.16660686      11.30362839       0.00000000 NULL
P       -2.07315617       5.45986502       2.76904803       0.00000000 NULL
P       -3.38228233       5.97572473       4.36918116       0.00000000 NULL
P        2.42532391       7.63322534       8.63647134       0.00000000 NULL
P        0.95695842       1.77494049       0.10189098       0.00000000 NULL
P        2.29290013       0.43580632       1.05023843       0.00000000 NULL
P        3.67191595       5.48833235       5.31752861       0.00000000 NULL
P        7.35802394       1.76780660       9.58481879       0.00000000 NULL
P        8.12008211       0.91887197       5.90515353       0.00000000 NULL
P        1.17667209       0.20031190      10.17244371       0.00000000 NULL
P        4.02608583       6.57276140       1.63786335       0.00000000 NULL
P       -1.10664813       3.83691691       6.05962676       0.00000000 NULL
P       -0.56475509       6.73187221      10.32691694       0.00000000 NULL
P        1.67140322       4.81510142       1.79233658       0.00000000 NULL
P        3.10636360       4.39211962       7.27103281       0.00000000 NULL
P        6.69145204       2.80569567      11.53832299       0.00000000 NULL
P        3.52502438       0.49412998       3.00374263       0.00000000 NULL
P        4.70537870       4.00471309      10.43668602       0.00000000 NULL
P        5.55644060       1.61461124       1.90210566       0.00000000 NULL
P        3.06102073       2.07262094       6.16939584       0.00000000 NULL
33
Lattice="8.880378312254997 7.565729963034834e-16 -2.443434060244293e-44 -4.4401891561275 7.690633213629207 -7.11301796838857e-43 -3.458601483779763e-44 -1.3801643000261927e-42 12.840738469577678" Properties=species:S:1:pos:R:3:initial_magmoms:R:1:castep_labels:S:1 n_minim_iter=5 pbc="T T T"
P        1.20423199       0.87049448       8.05627050       0.00000000 NULL
P        4.59194349       6.21249048      12.33651665       0.00000000 NULL
P        7.52439199       0.60764826       3.77602434       0.00000000 NULL
P        2.18992808       2.01286356       9.63910239       0.00000000 NULL
P        5.08841610       4.78766809       1.07861008       0.00000000 NULL
P        6.04222330       0.89010157       5.35885624       0.00000000 NULL
P        4.99700603       2.15996176       3.96467109       0.00000000 NULL
P        3.81226789       2.28311817       8.24491725       0.00000000 NULL
P        4.51129355       3.24755329      12.52516340       0.00000000 NULL
P        7.48999211       2.23135396       7.48567559       0.00000000 NULL
P        2.62760231       0.08843280      11.76592175       0.00000000 NULL
P        3.20297305       5.37084647       3.20542944       0.00000000 NULL
P        1.32342141       6.75628985       7.05709454       0.00000000 NULL
P        0.74921878       3.16637173      11.33734070       0.00000000 NULL
P       -2.07264019       5.45860486       2.77684839       0.00000000 NULL
P       -3.38061104       5.97523564       4.38306372       0.00000000 NULL
P        2.42482222       7.63071044       8.66330987       0.00000000 NULL
P        0.95578883       1.77532035       0.10281756       0.00000000 NULL
P        2.29291146       0.43535431       1.05435160       0.00000000 NULL
P        3.67076132       5.48723649       5.33459776       0.00000000 NULL
P        7.35689470       1.76804242       9.61484392       0.00000000 NULL
P        8.12050539       0.91839529       5.92247117       0.00000000 NULL
P        1.17529011       0.19887161      10.20271732       0.00000000 NULL
P        4.02477197       6.57336632       1.64222501       0.00000000 NULL
P       -1.10595259       3.83628012       6.07827461       0.00000000 NULL
P       -0.56489682       6.73027619      10.35852077       0.00000000 NULL
P        1.67084941       4.81471012       1.79802845       0.00000000 NULL
P        3.10522263       4.38964544       7.29237717       0.00000000 NULL
P        6.68912231       2.80660881      11.57262332       0.00000000 NULL
P        3.52622253       0.49437896       3.01213101       0.00000000 NULL
P        4.70603061       4.00390476      10.46964637       0.00000000 NULL
P        5.55465709       1.61313878       1.90915406       0.00000000 NULL
P        3.05987977       2.07358968       6.18940021       0.00000000 NULL
33
Lattice="8.868125364113682 -2.0272045808616783e-17 -2.6880507686722803e-44 -4.434062682056842 7.680021849267576 3.762896953817021e-43 -3.803296626469457e-44 5.4533178349262714e-43 12.85615032157813" Properties=species:S:1:pos:R:3:initial_magmoms:R:1:castep_labels:S:1 n_minim_iter=6 pbc="T T T"
P        1.20320974       0.86975754       8.06556079       0.00000000 NULL
P        4.58568993       6.20313288      12.35094423       0.00000000 NULL
P        7.51328837       0.60713144       3.78017734       0.00000000 NULL
P        2.18553441       2.01208589       9.65086470       0.00000000 NULL
P        5.08381297       4.78125059       1.08009782       0.00000000 NULL
P        6.03284067       0.88668538       5.36548126       0.00000000 NULL
P        4.98858910       2.15861105       3.96826366       0.00000000 NULL
P        3.80918014       2.28047144       8.25364710       0.00000000 NULL
P        4.50441882       3.24093937      12.53903054       0.00000000 NULL
P        7.47941109       2.22970717       7.49466610       0.00000000 NULL
P        2.62534019       0.08780826      11.78004954       0.00000000 NULL
P        3.19743677       5.36250643       3.20928266       0.00000000 NULL
P        1.32118142       6.74701806       7.06486752       0.00000000 NULL
P        0.74843565       3.16233615      11.35025096       0.00000000 NULL
P       -2.06961707       5.45068949       2.77948408       0.00000000 NULL
P       -3.37465411       5.96760060       4.38901596       0.00000000 NULL
P        2.42135809       7.61875774       8.67439940       0.00000000 NULL
P        0.95329602       1.77368537       0.10363252       0.00000000 NULL
P        2.29022462       0.43430395       1.05666005       0.00000000 NULL
P        3.66506863       5.47947717       5.34204349       0.00000000 NULL
P        7.34689480       1.76624073       9.62742693       0.00000000 NULL
P        8.11140099       0.91679967       5.92884202       0.00000000 NULL
P        1.17233399       0.19694270      10.21422546       0.00000000 NULL
P        4.01845307       6.56627949       1.64345858       0.00000000 NULL
P       -1.10381721       3.83097600       6.08587952       0.00000000 NULL
P       -0.56443154       6.72046760      10.37126296       0.00000000 NULL
P        1.66824876       4.80860010       1.80049608       0.00000000 NULL
P        3.10021057       4.38147985       7.30023272       0.00000000 NULL
P        6.67843025       2.80442082      11.58561616       0.00000000 NULL
P        3.52354723       0.49412119       3.01484928       0.00000000 NULL
P        4.70130225       3.99820807      10.48384580       0.00000000 NULL
P        5.54596132       1.60947064       1.91307892       0.00000000 NULL
P        3.05492448       2.07234314       6.19846236       0.00000000 NULL
33
Lattice="8.694099463038686 8.95799588186155e-16 -1.185161721142924e-44 -4.347049731519345 7.529310998020152 -1.3045615833685416e-43 -1.496384287851407e-44 5.7812386876696816e-43 13.032764615567892" Properties=species:S:1:pos:R:3:initial_magmoms:R:1:castep_labels:S:1 n_minim_iter=7 pbc="T T T"
P        1.18876383       0.85947054       8.17086502       0.00000000 NULL
P        4.49699114       6.07007606      12.51511989       0.00000000 NULL
P        7.35539423       0.59976440       3.82661015       0.00000000 NULL
P        2.12307128       2.00149023       9.78614184       0.00000000 NULL
P        5.01885548       4.68993222       1.09763209       0.00000000 NULL
P        5.89922244       0.83788855       5.44188696       0.00000000 NULL
P        4.86899174       2.13969222       4.00553566       0.00000000 NULL
P        3.76558168       2.24279436       8.34979053       0.00000000 NULL
P        4.40657578       3.14682443      12.69404540       0.00000000 NULL
P        7.32916427       2.20590091       7.59800392       0.00000000 NULL
P        2.59283382       0.07911810      11.94225879       0.00000000 NULL
P        3.11915110       5.24429200       3.25374905       0.00000000 NULL
P        1.28927439       6.61511663       7.15158758       0.00000000 NULL
P        0.73717213       3.10520831      11.49584245       0.00000000 NULL
P       -2.02644652       5.33829706       2.80733271       0.00000000 NULL
P       -3.28971462       5.85932395       4.45948427       0.00000000 NULL
P        2.37213097       7.44862546       8.80373914       0.00000000 NULL
P        0.91758366       1.75067259       0.11522939       0.00000000 NULL
P        2.25214528       0.41911103       1.08636279       0.00000000 NULL
P        3.58393789       5.36934047       5.43061766       0.00000000 NULL
P        7.20506603       1.74085951       9.77487253       0.00000000 NULL
P        7.98226285       0.89452743       5.99928094       0.00000000 NULL
P        1.13060178       0.16920488      10.34353581       0.00000000 NULL
P        3.92828457       6.46557870       1.65502607       0.00000000 NULL
P       -1.07329711       3.75571606       6.17391681       0.00000000 NULL
P       -0.55785566       6.58095553      10.51817168       0.00000000 NULL
P        1.63115277       4.72195041       1.82966194       0.00000000 NULL
P        3.02893609       4.26507746       7.38710579       0.00000000 NULL
P        6.52624712       2.77363668      11.73136067       0.00000000 NULL
P        3.48596600       0.49059687       3.04285092       0.00000000 NULL
P        4.63455389       3.91741255      10.65250650       0.00000000 NULL
P        5.42235157       1.55696332       1.96399676       0.00000000 NULL
P        2.98424373       2.05493513       6.30825163       0.00000000 NULL
33
Lattice="8.846172877733839 5.025244734572014e-16 -5.950151944507185e-45 -4.423086438866921 7.661010438386398 -1.2955707773282134e-42 -6.106562026121288e-45 2.2577594447384657e-42 13.232676208497" Properties=species:S:1:pos:R:3:initial_magmoms:R:1:castep_labels:S:1 n_minim_iter=8 pbc="T T T"
P        1.22166840       0.88555554       8.28806056       0.00000000 NULL
P        4.57916583       6.16023680      12.69895263       0.00000000 NULL
P        7.46842508       0.61521810       3.87716849       0.00000000 NULL
P        2.13592529       2.08070890       9.93776628       0.00000000 NULL
P        5.15707056       4.77089043       1.11598214       0.00000000 NULL
P        5.97626347       0.80941111       5.52687421       0.00000000 NULL
P        4.92667737       2.21297521       4.04719375       0.00000000 NULL
P        3.87624051       2.28789508       8.45808582       0.00000000 NULL
P        4.46634145       3.16014015      12.86897789       0.00000000 NULL
P        7.45510211       2.26149145       7.72191974       0.00000000 NULL
P        2.65404443       0.07395690      12.13281181       0.00000000 NULL
P        3.16011278       5.32556209       3.31102767       0.00000000 NULL
P        1.30125069       6.72671080       7.24740651       0.00000000 NULL
P        0.75179066       3.17073889      11.65829857       0.00000000 NULL
P       -2.05304134       5.42457119       2.83651444       0.00000000 NULL
P       -3.31712633       5.97685275       4.54163152       0.00000000 NULL
P        2.41158304       7.54529974       8.95252358       0.00000000 NULL
P        0.90554329       1.79986840       0.13073945       0.00000000 NULL
P        2.30125208       0.41296925       1.12004333       0.00000000 NULL
P        3.63010226       5.46158306       5.53093540       0.00000000 NULL
P        7.33790498       1.78645814       9.94182747       0.00000000 NULL
P        8.16189355       0.91267357       6.07474734       0.00000000 NULL
P        1.13253816       0.13626650      10.48563941       0.00000000 NULL
P        3.97482761       6.61207037       1.66385527       0.00000000 NULL
P       -1.07628982       3.82460844       6.26967760       0.00000000 NULL
P       -0.57273346       6.68080055      10.68056967       0.00000000 NULL
P        1.64902328       4.81661189       1.85878553       0.00000000 NULL
P        3.06661507       4.29714213       7.48060359       0.00000000 NULL
P        6.61121315       2.85667283      11.89149566       0.00000000 NULL
P        3.59143110       0.50719549       3.06971152       0.00000000 NULL
P        4.75262298       3.98940993      10.85338159       0.00000000 NULL
P        5.50170529       1.55041324       2.03159745       0.00000000 NULL
P        3.01493105       2.12118727       6.44248952       0.00000000 NULL
33
Lattice="8.653400468998987 -1.0849261927242851e-15 -7.604747748064293e-45 -4.326700234499494 7.4940646352733005 -8.364969807240299e-43 -8.744081967157663e-45 1.0038034092447797e-42 12.793291880548628" Properties=species:S:1:pos:R:3:initial_magmoms:R:1:castep_labels:S:1 n_minim_iter=9 pbc="T T T"
P        1.19583638       0.86715156       8.01346072       0.00000000 NULL
P        4.47975733       6.02486417      12.27789135       0.00000000 NULL
P        7.30450700       0.60204890       3.74903010       0.00000000 NULL
P        2.08775579       2.03597976       9.60759243       0.00000000 NULL
P        5.04603254       4.66802521       1.07873117       0.00000000 NULL
P        5.84631238       0.79005967       5.34316180       0.00000000 NULL
P        4.81836883       2.16579743       3.91216627       0.00000000 NULL
P        3.79315141       2.23833612       8.17659689       0.00000000 NULL
P        4.36858047       3.08993110      12.44102752       0.00000000 NULL
P        7.29274673       2.21228922       7.46486868       0.00000000 NULL
P        2.59622553       0.07221610      11.72929930       0.00000000 NULL
P        3.09112844       5.20955932       3.20043805       0.00000000 NULL
P        1.27280807       6.58050053       7.00648310       0.00000000 NULL
P        0.73577636       3.10153025      11.27091373       0.00000000 NULL
P       -2.00858442       5.30609849       2.74205247       0.00000000 NULL
P       -3.24416837       5.84673095       4.39101655       0.00000000 NULL
P        2.35880148       7.38023139       8.65544718       0.00000000 NULL
P        0.88536690       1.76116694       0.12658593       0.00000000 NULL
P        2.25101604       0.40381849       1.08281268       0.00000000 NULL
P        3.55090929       5.34271832       5.34724331       0.00000000 NULL
P        7.17817538       1.74752783       9.61167394       0.00000000 NULL
P        7.98417931       0.89351512       5.87225434       0.00000000 NULL
P        1.10841738       0.13280497      10.13668497       0.00000000 NULL
P        3.88750402       6.46774455       1.60782371       0.00000000 NULL
P       -1.05209939       3.74064477       6.06194753       0.00000000 NULL
P       -0.56115714       6.53488706      10.32637815       0.00000000 NULL
P        1.61325654       4.71259745       1.79751690       0.00000000 NULL
P        2.99907079       4.20085835       7.23126665       0.00000000 NULL
P        6.46521489       2.79636397      11.49569728       0.00000000 NULL
P        3.51581503       0.49684232       2.96683603       0.00000000 NULL
P        4.65107769       3.90246813      10.49529538       0.00000000 NULL
P        5.38079793       1.51487914       1.96643413       0.00000000 NULL
P        2.94822509       2.07671737       6.23086476       0.00000000 NULL
33
Lattice="8.697279219143818 -1.0719290746331633e-15 -1.1676438565130373e-44 -4.34863960957191 7.532064747585033 -2.7496358139434614e-43 -1.466518786588037e-44 -2.309259017307063e-43 12.955862413841333" Properties=species:S:1:pos:R:3:initial_magmoms:R:1:castep_labels:S:1 n_minim_iter=10 pbc="T T T"
P        1.20227939       0.87184199       8.11458643       0.00000000 NULL
P        4.50253722       6.05493926      12.43320724       0.00000000 NULL
P        7.34110221       0.60528350       3.79596563       0.00000000 NULL
P        2.09759574       2.04759637       9.72994442       0.00000000 NULL
P        5.07311222       4.69169537       1.09270281       0.00000000 NULL
P        5.87521088       0.79277301       5.41132362       0.00000000 NULL
P        4.84172291       2.17843402       3.96239955       0.00000000 NULL
P        3.81435736       2.24979270       8.28102035       0.00000000 NULL
P        4.38983856       3.10383803      12.59964116       0.00000000 NULL
P        7.32957293       2.22400955       7.55982397       0.00000000 NULL
P        2.60990192       0.07246362      11.87844477       0.00000000 NULL
P        3.10644399       5.23559158       3.24120316       0.00000000 NULL
P        1.27869609       6.61360023       7.09489921       0.00000000 NULL
P        0.73955815       3.11788134      11.41352001       0.00000000 NULL
P       -2.01825424       5.33264793       2.77627840       0.00000000 NULL
P       -3.25972457       5.87699103       4.44768382       0.00000000 NULL
P        2.37084621       7.41657352       8.76630462       0.00000000 NULL
P        0.88887837       1.77056494       0.12906301       0.00000000 NULL
P        2.26244026       0.40551751       1.09715669       0.00000000 NULL
P        3.56860794       5.36997526       5.41577749       0.00000000 NULL
P        7.21487063       1.75657199       9.73439830       0.00000000 NULL
P        8.02569160       0.89824269       5.94643525       0.00000000 NULL
P        1.11369480       0.13249060      10.26505606       0.00000000 NULL
P        3.90653243       6.50133147       1.62781445       0.00000000 NULL
P       -1.05680665       3.75993208       6.13885668       0.00000000 NULL
P       -0.56403959       6.56732012      10.45747749       0.00000000 NULL
P        1.62084624       4.73687731       1.82023588       0.00000000 NULL
P        3.01360918       4.22096332       7.32270603       0.00000000 NULL
P        6.49729648       2.81172098      11.64132684       0.00000000 NULL
P        3.53501317       0.49938045       3.00408523       0.00000000 NULL
P        4.67579841       3.92295211      10.62867197       0.00000000 NULL
P        5.40811659       1.52122850       1.99143036       0.00000000 NULL
P        2.96200384       2.08788415       6.31005117       0.00000000 NULL
33
Lattice="8.68393602103368 -1.2611621908739553e-15 -1.1690312632101962e-44 -4.341968010516841 7.520509199053926 -2.8878199577303476e-41 -1.4663395883789578e-44 3.525266729017906e-41 12.95583289835744" Properties=species:S:1:pos:R:3:initial_magmoms:R:1:castep_labels:S:1 n_minim_iter=11 pbc="T T T"
P        1.20082399       0.87089157       8.11426570       0.00000000 NULL
P        4.49577024       6.04511934      12.43287667       0.00000000 NULL
P        7.32930981       0.60449830       3.79565474       0.00000000 NULL
P        2.09358811       2.04538375       9.73002758       0.00000000 NULL
P        5.06652825       4.68471684       1.09280565       0.00000000 NULL
P        5.86578768       0.79040861       5.41141661       0.00000000 NULL
P        4.83346211       2.17631241       3.96253082       0.00000000 NULL
P        3.80997879       2.24645203       8.28114178       0.00000000 NULL
P        4.38246314       3.09774477      12.59975275       0.00000000 NULL
P        7.31826973       2.22089165       7.55976766       0.00000000 NULL
P        2.60618173       0.07225588      11.87837863       0.00000000 NULL
P        3.10145257       5.22736167       3.24115670       0.00000000 NULL
P        1.27639369       6.60335565       7.09446532       0.00000000 NULL
P        0.73850889       3.11344202      11.41307628       0.00000000 NULL
P       -2.01490257       5.32422074       2.77585435       0.00000000 NULL
P       -3.25401890       5.86836913       4.44821035       0.00000000 NULL
P        2.36719818       7.40438767       8.76682132       0.00000000 NULL
P        0.88682072       1.76826160       0.12959939       0.00000000 NULL
P        2.25895389       0.40463280       1.09747623       0.00000000 NULL
P        3.56291335       5.36188135       5.41608720       0.00000000 NULL
P        7.20403680       1.75399506       9.73469817       0.00000000 NULL
P        8.01403752       0.89716159       5.94598695       0.00000000 NULL