45
Lattice="6.814569999999999 5.626696467485966e-16 0.0 -3.407285 5.901590735867321 0.0 0.0 0.0 24.8421" Properties=species:S:1:pos:R:3:initial_magmoms:R:1:castep_labels:S:1 n_minim_iter=1 pbc="T T T"
P        2.40562873       4.58035972      19.15191514       0.00000000 NULL
P       -1.76223724       5.69474647       2.59051514       0.00000000 NULL
P       -0.64339149       1.52807529      10.87121514       0.00000000 NULL
P        0.31964865       5.73716829      10.83750524       0.00000000 NULL
P       -1.72107281       3.30983044      19.11820524       0.00000000 NULL
P        1.40142416       2.75618274       2.55680524       0.00000000 NULL
P        5.55054972       0.27991245       9.35342328       0.00000000 NULL
P        3.79688385       4.66696084      17.63412328       0.00000000 NULL
P        0.87442143       0.95471745       1.07272328       0.00000000 NULL
P        3.25701351       1.93174173      12.78858142       0.00000000 NULL
P        3.51312583       1.85478558      21.06928142       0.00000000 NULL
P        3.45171566       2.11506343       4.50788142       0.00000000 NULL
P        2.18746232       5.37684548      11.51896379       0.00000000 NULL
P       -2.34293094       5.10756594      19.79966379       0.00000000 NULL
P        0.15546862       1.31877006       3.23826379       0.00000000 NULL
P       -0.39313799       5.40388716       8.22900773       0.00000000 NULL
P       -1.07604956       2.85917967      16.50970773       0.00000000 NULL
P        1.46918755       3.54011464      24.79040773       0.00000000 NULL
P        2.62869414       2.23066615       1.05271877       0.00000000 NULL
P        3.56840938       1.16118283       9.33341877       0.00000000 NULL
P        4.02475148       2.50974176      17.61411877       0.00000000 NULL
P        5.33568769       1.58214920      15.01896229       0.00000000 NULL
P        2.77654476       3.82976649      23.29966229       0.00000000 NULL
P        2.10962255       0.48967505       6.73826229       0.00000000 NULL
P        4.09802856       4.45614067      21.74126933       0.00000000 NULL
P        0.90642470       1.32092651       5.17986933       0.00000000 NULL
P        5.21740174       0.12452356      13.46056933       0.00000000 NULL
P        2.50052946       3.33702025       9.62306440       0.00000000 NULL
P        2.67436096       0.49701191      17.90376440       0.00000000 NULL
P        5.04696458       2.06755858       1.34236440       0.00000000 NULL
P        5.92378815       0.36272180       5.19133562       0.00000000 NULL
P        3.53854963       4.94879013      13.47203562       0.00000000 NULL
P        0.75951722       0.59007881      21.75273562       0.00000000 NULL
P       -0.96536323       3.30355292       7.66688069       0.00000000 NULL
P        1.02900586       3.41378520      15.94758069       0.00000000 NULL
P       -0.06364263       5.08584336      24.22828069       0.00000000 NULL
P        4.03015987       3.09717488      24.69266483       0.00000000 NULL
P        2.11725794       1.94163339       8.13126483       0.00000000 NULL
P        4.07443719       0.86278247      16.41196483       0.00000000 NULL
P       -0.53512263       2.14759772      13.31284661       0.00000000 NULL
P        1.81497213       4.36436209      21.59354661       0.00000000 NULL
P       -1.27984950       5.29122167       5.03214661       0.00000000 NULL
P        2.14566345       3.46220598      13.51537680       0.00000000 NULL
P        2.74337994       0.12709607      21.79607680       0.00000000 NULL
P        5.33281161       2.31228869       5.23467680       0.00000000 NULL
45
Lattice="6.867422976016486 -1.0929092675891606e-15 0.0 -3.433711488008242 5.947362755763209 0.0 0.0 0.0 25.1116388551735" Properties=species:S:1:pos:R:3:initial_magmoms:R:1:castep_labels:S:1 n_minim_iter=2 pbc="T T T"
P        2.42401086       4.61590764      19.35979907       0.00000000 NULL
P       -1.77578722       5.73866393       2.61870650       0.00000000 NULL
P       -0.64822364       1.54015395      10.98925279       0.00000000 NULL
P        0.32172645       5.78144530      10.95533382       0.00000000 NULL
P       -1.73403024       3.33526339      19.32588010       0.00000000 NULL
P        1.41230379       2.77801683       2.58478753       0.00000000 NULL
P        5.59370532       0.28195420       9.45460121       0.00000000 NULL
P        3.82639082       4.70331381      17.82514750       0.00000000 NULL
P        0.88103833       0.96209475       1.08405493       0.00000000 NULL
P        3.28235323       1.94657954      12.92726994       0.00000000 NULL
P        3.54045902       1.86931152      21.29781623       0.00000000 NULL
P        3.47832220       2.13147170       4.55672366       0.00000000 NULL
P        2.20474827       5.41845039      11.64377149       0.00000000 NULL
P       -2.36117833       5.14750557      20.01431777       0.00000000 NULL
P        0.15643007       1.32876955       3.27322520       0.00000000 NULL
P       -0.39614873       5.44533825       8.31829725       0.00000000 NULL
P       -1.08401540       2.88161877      16.68884354       0.00000000 NULL
P        1.48016413       3.56776850      25.05938982       0.00000000 NULL
P        2.64939039       2.24767551       1.06418418       0.00000000 NULL
P        3.59618369       1.17060162       9.43473047       0.00000000 NULL
P        4.05556039       2.52908562      17.80527675       0.00000000 NULL
P        5.37710002       1.59438038      15.18180503       0.00000000 NULL
P        2.79809905       3.85951503      23.55235132       0.00000000 NULL
P        2.12593539       0.49346735       6.81125875       0.00000000 NULL
P        4.12987311       4.49039912      21.97734725       0.00000000 NULL
P        0.91368671       1.33137546       5.23625468       0.00000000 NULL
P        5.25757465       0.12558817      13.60680097       0.00000000 NULL
P        2.52000263       3.36290110       9.72754270       0.00000000 NULL
P        2.69506388       0.50093575      18.09808898       0.00000000 NULL
P        5.08606796       2.08352591       1.35699641       0.00000000 NULL
P        5.96953726       0.36513928       5.24774800       0.00000000 NULL
P        3.56643446       4.98720128      13.61829428       0.00000000 NULL
P        0.76516274       0.59502220      21.98884057       0.00000000 NULL
P       -0.97285824       3.32912709       7.75007659       0.00000000 NULL
P        1.03703198       3.44027927      16.12062287       0.00000000 NULL
P       -0.06417374       5.12531916      24.49116916       0.00000000 NULL
P        4.06179988       3.12122066      24.96055014       0.00000000 NULL
P        2.13346666       1.95701155       8.21945757       0.00000000 NULL
P        4.10586793       0.86913055      16.59000385       0.00000000 NULL
P       -0.53914781       2.16441209      13.45710792       0.00000000 NULL
P        1.82884954       4.39824101      21.82765421       0.00000000 NULL
P       -1.28970173       5.33207241       5.08656164       0.00000000 NULL
P        2.16201848       3.48888760      13.66218216       0.00000000 NULL
P        2.76494845       0.12791913      22.03272844       0.00000000 NULL
P        5.37416753       2.33055603       5.29163587       0.00000000 NULL
45
Lattice="7.161767794505947 -1.181254018232009e-16 0.0 -3.580883897252973 6.202272846047402 0.0 0.0 0.0 26.672958286238018" Properties=species:S:1:pos:R:3:initial_magmoms:R:1:castep_labels:S:1 n_minim_iter=3 pbc="T T T"
P        2.52634965       4.81392344      20.56395895       0.00000000 NULL
P       -1.85127092       5.98319410       2.78198676       0.00000000 NULL
P       -0.67507873       1.60742815      11.67297286       0.00000000 NULL
P        0.33302352       6.02793828      11.63795079       0.00000000 NULL
P       -1.80597555       3.47671053      20.52893688       0.00000000 NULL
P        1.47295203       2.89989688       2.74696469       0.00000000 NULL
P        5.83409960       0.29331875      10.04053082       0.00000000 NULL
P        3.99069651       4.90581909      18.93151692       0.00000000 NULL
P        0.91785559       1.00313501       1.14954472       0.00000000 NULL
P        3.42346565       2.02917552      13.73062804       0.00000000 NULL
P        3.69271742       1.95022047      22.62161413       0.00000000 NULL
P        3.62646862       2.22287686       4.83964194       0.00000000 NULL
P        2.30121279       5.65016760      12.36666299       0.00000000 NULL
P       -2.46291117       5.37009778      21.25764909       0.00000000 NULL
P        0.16169838       1.38428032       3.47567690       0.00000000 NULL
P       -0.41293374       5.67588350       8.83548730       0.00000000 NULL
P       -1.12810854       3.00671999      17.72647340       0.00000000 NULL
P        1.54104227       3.72194220      26.61745949       0.00000000 NULL
P        2.76482897       2.34226392       1.13060186       0.00000000 NULL
P        3.75089325       1.22328016      10.02158795       0.00000000 NULL
P        4.22692947       2.63672876      18.91257405       0.00000000 NULL
P        5.60777139       1.66253745      16.12502474       0.00000000 NULL
P        2.91808243       4.02520376      25.01601084       0.00000000 NULL
P        2.21679787       0.51453164       7.23403865       0.00000000 NULL
P        4.30719110       4.68105307      23.34492536       0.00000000 NULL
P        0.95426137       1.38961038       5.56295317       0.00000000 NULL
P        5.48119922       0.13160941      14.45393926       0.00000000 NULL
P        2.62851098       3.50692330      10.33271929       0.00000000 NULL
P        2.81042764       0.52289564      19.22370538       0.00000000 NULL
P        5.30371307       2.17245392       1.44173319       0.00000000 NULL
P        6.22422906       0.37845689       5.57459405       0.00000000 NULL
P        3.72189998       5.20111204      14.46558014       0.00000000 NULL
P        0.79652265       0.62270391      23.35656624       0.00000000 NULL
P       -1.01459864       3.47154544       8.23200100       0.00000000 NULL
P        1.08173667       3.58783193      17.12298709       0.00000000 NULL
P       -0.06713803       5.34516832      26.01397319       0.00000000 NULL
P        4.23823305       3.25506200      26.51236053       0.00000000 NULL
P        2.22368489       2.04288649       8.73038834       0.00000000 NULL
P        4.28073375       0.90432436      17.62137443       0.00000000 NULL
P       -0.56156353       2.25809521      14.29271850       0.00000000 NULL
P        1.90609785       4.58689696      23.18370459       0.00000000 NULL
P       -1.34453432       5.55955353       5.40173240       0.00000000 NULL
P        2.25301786       3.63733656      14.51260441       0.00000000 NULL
P        2.88523301       0.13250243      23.40359050       0.00000000 NULL
P        5.60440082       2.43243387       5.62161831       0.00000000 NULL
45
Lattice="7.2070721384387415 9.0694499749811e-16 0.0 -3.603536069219371 6.241507558794989 0.0 0.0 0.0 27.272505412031524" Properties=species:S:1:pos:R:3:initial_magmoms:R:1:castep_labels:S:1 n_minim_iter=4 pbc="T T T"
P        2.54220122       4.84462727      21.02616293       0.00000000 NULL
P       -1.86313483       6.02080477       2.84449266       0.00000000 NULL
P       -0.67906640       1.61758308      11.93532780       0.00000000 NULL
P        0.33360700       6.06543988      11.90014460       0.00000000 NULL
P       -1.81609245       3.49769976      20.99097974       0.00000000 NULL
P        1.48248545       2.91987548       2.80930947       0.00000000 NULL
P        5.87130488       0.29507356      10.26546814       0.00000000 NULL
P        4.01587850       4.93716241      19.35630328       0.00000000 NULL
P        0.92342482       1.00927160       1.17463300       0.00000000 NULL
P        3.44506804       2.04179965      14.03905406       0.00000000 NULL
P        3.71628775       1.96261662      23.12988920       0.00000000 NULL
P        3.64925242       2.23709130       4.94821892       0.00000000 NULL
P        2.31708894       5.68619266      12.64385690       0.00000000 NULL
P       -2.47939569       5.40506912      21.73469204       0.00000000 NULL
P        0.16230675       1.39175335       3.55302176       0.00000000 NULL
P       -0.41553445       5.70968342       9.03385492       0.00000000 NULL
P       -1.13342759       3.02680246      18.12469006       0.00000000 NULL
P        1.54896205       3.74652924      27.21552519       0.00000000 NULL
P        2.78345798       2.35594251       1.15634923       0.00000000 NULL
P        3.77503708       1.23257407      10.24718436       0.00000000 NULL
P        4.25211314       2.65299098      19.33801950       0.00000000 NULL
P        5.64361531       1.67345111      16.48718200       0.00000000 NULL
P        2.93601331       4.05078867      25.57801714       0.00000000 NULL
P        2.23097959       0.51726778       7.39634686       0.00000000 NULL
P        4.33429787       4.70984859      23.87026693       0.00000000 NULL
P        0.96107468       1.39868777       5.68859666       0.00000000 NULL
P        5.51523566       0.13297120      14.77943180       0.00000000 NULL
P        2.64546477       3.52840755      10.56498715       0.00000000 NULL
P        2.82864918       0.52683592      19.65582229       0.00000000 NULL
P        5.33649426       2.18626409       1.47415201       0.00000000 NULL
P        6.26304484       0.37998764       5.70031463       0.00000000 NULL
P        3.74647077       5.23396212      14.79114977       0.00000000 NULL
P        0.80109259       0.62755780      23.88198491       0.00000000 NULL
P       -1.02098611       3.49350784       8.41716570       0.00000000 NULL
P        1.08856259       3.61055374      17.50800084       0.00000000 NULL
P       -0.06757648       5.37895355      26.59883598       0.00000000 NULL
P        4.26667605       3.27531449      27.10870881       0.00000000 NULL
P        2.23722856       2.05739261       8.92703853       0.00000000 NULL
P        4.30670359       0.90880046      18.01787367       0.00000000 NULL
P       -0.56511238       2.27243069      14.61348630       0.00000000 NULL
P        1.91810956       4.61589054      23.70432144       0.00000000 NULL
P       -1.35299718       5.59469389       5.52265116       0.00000000 NULL
P        2.26673267       3.65946552      14.83910806       0.00000000 NULL
P        2.90451570       0.13331532      23.92994320       0.00000000 NULL
P        5.63935983       2.44872672       5.74827292       0.00000000 NULL
45
Lattice="7.1850633580072465 1.339878760719719e-15 0.0 -3.592531679003624 6.222447395835001 0.0 0.0 0.0 27.604128863328466" Properties=species:S:1:pos:R:3:initial_magmoms:R:1:castep_labels:S:1 n_minim_iter=5 pbc="T T T"
P        2.53479822       4.83015292      21.28163130       0.00000000 NULL
P       -1.85790256       6.00257059       2.87887872       0.00000000 NULL
P       -0.67689566       1.61217128      12.08025501       0.00000000 NULL
P        0.33113600       6.04638333      12.04520041       0.00000000 NULL
P       -1.80935789       3.48602792      21.24657670       0.00000000 NULL
P        1.47822189       2.91248354       2.84382412       0.00000000 NULL
P        5.85362312       0.29425584      10.38998998       0.00000000 NULL
P        4.00341876       4.92225841      19.59136627       0.00000000 NULL
P        0.92055315       1.00593315       1.18861369       0.00000000 NULL
P        3.43437203       2.03550896      14.20952348       0.00000000 NULL
P        3.70507488       1.95649894      23.41089977       0.00000000 NULL
P        3.63814813       2.23043950       5.00814719       0.00000000 NULL
P        2.31138952       5.66950543      12.79672650       0.00000000 NULL
P       -2.47309881       5.38941672      21.99810279       0.00000000 NULL
P        0.16170929       1.38597264       3.59535021       0.00000000 NULL
P       -0.41433655       5.68995873       9.14323805       0.00000000 NULL
P       -1.12794885       3.01864205      18.34461434       0.00000000 NULL
P        1.54228540       3.73629401      27.54599062       0.00000000 NULL
P        2.77608037       2.34754599       1.17086879       0.00000000 NULL
P        3.76398871       1.23038313      10.37224508       0.00000000 NULL
P        4.23752596       2.64451828      19.57362136       0.00000000 NULL
P        5.62691291       1.66904094      16.68745337       0.00000000 NULL
P        2.92617505       4.03852906      25.88882965       0.00000000 NULL
P        2.22450708       0.51487740       7.48607708       0.00000000 NULL
P        4.32072288       4.69471721      24.16096369       0.00000000 NULL
P        0.95895755       1.39449717       5.75821111       0.00000000 NULL
P        5.49791461       0.13323301      14.95958740       0.00000000 NULL
P        2.63773575       3.51663369      10.69336976       0.00000000 NULL
P        2.82070137       0.52602933      19.89474604       0.00000000 NULL
P        5.31915791       2.17978438       1.49199347       0.00000000 NULL
P        6.24338043       0.37813536       5.77002164       0.00000000 NULL
P        3.73589832       5.21785838      14.97139793       0.00000000 NULL
P        0.79831629       0.62645366      24.17277421       0.00000000 NULL
P       -1.01779176       3.48297377       8.51974547       0.00000000 NULL
P        1.08508380       3.59952700      17.72112176       0.00000000 NULL
P       -0.06729204       5.36239403      26.92249805       0.00000000 NULL
P        4.25541739       3.26483410      27.43901031       0.00000000 NULL
P        2.22992539       2.05288251       9.03625773       0.00000000 NULL
P        4.29225225       0.90473079      18.23763402       0.00000000 NULL
P       -0.56363638       2.26521887      14.79078712       0.00000000 NULL
P        1.91261278       4.60171454      23.99216341       0.00000000 NULL
P       -1.34897640       5.57796138       5.58941083       0.00000000 NULL
P        2.25947990       3.64728902      15.01976488       0.00000000 NULL
P        2.89667846       0.13312248      24.22114116       0.00000000 NULL
P        5.62143668       2.44203589       5.81838859       0.00000000 NULL
45
Lattice="7.128606828179113 -3.278599453658548e-16 0.0 -3.564303414089556 6.173554606794324 0.0 0.0 0.0 27.934092167736626" Properties=species:S:1:pos:R:3:initial_magmoms:R:1:castep_labels:S:1 n_minim_iter=6 pbc="T T T"
P        2.51574389       4.79273462      21.53557905       0.00000000 NULL
P       -1.84419847       5.95588542       2.91285094       0.00000000 NULL
P       -0.67154542       1.59848918      12.22421499       0.00000000 NULL
P        0.32622322       5.99813370      12.18953699       0.00000000 NULL
P       -1.79334436       3.45700536      21.50090105       0.00000000 NULL
P        1.46712113       2.89197016       2.87817293       0.00000000 NULL
P        5.80807207       0.29217565      10.51406765       0.00000000 NULL
P        3.97153926       4.88385013      19.82543171       0.00000000 NULL
P        0.91329891       0.99752883       1.20270359       0.00000000 NULL
P        3.40714184       2.01941768      14.37889720       0.00000000 NULL
P        3.67616889       1.94096255      23.69026126       0.00000000 NULL
P        3.60959950       2.21317438       5.06753315       0.00000000 NULL
P        2.29549591       5.62621577      12.94830970       0.00000000 NULL
P       -2.45589033       5.34840450      22.25967376       0.00000000 NULL
P        0.16039442       1.37248895       3.63694564       0.00000000 NULL
P       -0.41129636       5.64159038       9.25151988       0.00000000 NULL
P       -1.11580899       2.99656632      18.56288394       0.00000000 NULL
P        1.52710535       3.70895251      27.87424800       0.00000000 NULL
P        2.75608076       2.32722675       1.18576863       0.00000000 NULL
P        3.73512896       1.22322258      10.49713268       0.00000000 NULL
P        4.20170052       2.62310527      19.80849674       0.00000000 NULL
P        5.58363720       1.65722548      16.88664937       0.00000000 NULL
P        2.90158887       4.00695892      26.19801342       0.00000000 NULL
P        2.20768418       0.50937021       7.57528531       0.00000000 NULL
P        4.28609971       4.65645897      24.45027841       0.00000000 NULL
P        0.95294522       1.38364175       5.82755030       0.00000000 NULL
P        5.45386532       0.13345389      15.13891435       0.00000000 NULL
P        2.61759543       3.48725667      10.82101646       0.00000000 NULL
P        2.79975625       0.52327581      20.13238052       0.00000000 NULL
P        5.27555856       2.16302213       1.50965241       0.00000000 NULL
P        6.19336893       0.37387583       5.83958004       0.00000000 NULL
P        3.70813640       5.17667692      15.15094409       0.00000000 NULL
P        0.79140491       0.62300187      24.46230815       0.00000000 NULL
P       -1.00963633       3.45587694       8.62205431       0.00000000 NULL
P        1.07624435       3.57124543      17.93341837       0.00000000 NULL
P       -0.06660803       5.31998684      27.24478242       0.00000000 NULL
P        4.22484368       3.23836601      27.76819917       0.00000000 NULL
P        2.21167776       2.03963895       9.14547106       0.00000000 NULL
P        4.25638880       0.89554965      18.45683512       0.00000000 NULL
P       -0.55977737       2.24685221      14.96707699       0.00000000 NULL
P        1.89836101       4.56534708      24.27844105       0.00000000 NULL
P       -1.33858364       5.53490993       5.65571293       0.00000000 NULL
P        2.24113528       3.61688066      15.19966932       0.00000000 NULL
P        2.87572865       0.13243975      24.51103337       0.00000000 NULL
P        5.57604631       2.42423419       5.88830526       0.00000000 NULL
45
Lattice="7.0333662090460995 1.1036449617313935e-16 0.0 -3.5166831045230498 6.091073811152976 0.0 0.0 0.0 28.525870835565858" Properties=species:S:1:pos:R:3:initial_magmoms:R:1:castep_labels:S:1 n_minim_iter=7 pbc="T T T"
P        2.48454699       4.73006624      21.99048023       0.00000000 NULL
P       -1.82194791       5.87772150       2.97323301       0.00000000 NULL
P       -0.66259908       1.57435988      12.48185662       0.00000000 NULL
P        0.31571356       5.91643632      12.44822174       0.00000000 NULL
P       -1.76495783       3.40627162      21.95684535       0.00000000 NULL
P        1.44924427       2.85943969       2.93959813       0.00000000 NULL
P        5.73196345       0.28892366      10.73704046       0.00000000 NULL
P        3.91716925       4.81956413      20.24566407       0.00000000 NULL
P        0.90091661       0.98258602       1.22841684       0.00000000 NULL
P        3.36136974       1.99175882      14.68172579       0.00000000 NULL
P        3.62776760       1.91515218      24.19034940       0.00000000 NULL
P        3.56091197       2.18416281       5.17310218       0.00000000 NULL
P        2.27088994       5.55416836      13.21936877       0.00000000 NULL
P       -2.42881276       5.28063801      22.72799238       0.00000000 NULL
P        0.15792282       1.34734126       3.71074516       0.00000000 NULL
P       -0.40662745       5.55711662       9.44433532       0.00000000 NULL
P       -1.09260734       2.96036580      18.95295894       0.00000000 NULL
P        1.49923479       3.66466520      28.46158255       0.00000000 NULL
P        2.72406991       2.29170721       1.21375304       0.00000000 NULL
P        3.68665459       1.21326014      10.72237665       0.00000000 NULL
P        4.13932481       2.58610646      20.23100026       0.00000000 NULL
P        5.51149973       1.63860781      17.24374952       0.00000000 NULL
P        2.85854036       3.95379488      26.75237313       0.00000000 NULL
P        2.18000922       0.49867113       7.73512591       0.00000000 NULL
P        4.22697438       4.58975807      24.96902213       0.00000000 NULL
P        0.94503193       1.36578816       5.95177491       0.00000000 NULL
P        5.37804300       0.13552758      15.46039852       0.00000000 NULL
P        2.58422453       3.43614180      11.04984327       0.00000000 NULL
P        2.76546786       0.51993319      20.55846688       0.00000000 NULL
P        5.20035693       2.13499882       1.54121965       0.00000000 NULL
P        6.10766405       0.36434739       5.96475335       0.00000000 NULL
P        3.66400009       5.10721853      15.47337696       0.00000000 NULL
P        0.77838518       0.61950789      24.98200057       0.00000000 NULL
P       -0.99567690       3.41031983       8.80614534       0.00000000 NULL
P        1.06109794       3.52363241      18.31476895       0.00000000 NULL
P       -0.06542105       5.24819538      27.82339256       0.00000000 NULL
P        4.17560281       3.19304045      28.35958296       0.00000000 NULL
P        2.18031066       2.01965789       9.34233573       0.00000000 NULL
P        4.19413584       0.87837548      18.85095934       0.00000000 NULL
P       -0.55399626       2.21550090      15.28313345       0.00000000 NULL
P        1.87500117       4.50354853      24.79175707       0.00000000 NULL
P       -1.32100491       5.46309820       5.77450984       0.00000000 NULL
P        2.20893554       3.56357725      15.52294581       0.00000000 NULL
P        2.84275001       0.13120567      25.03156942       0.00000000 NULL
P        5.49836376       2.39629089       6.01432220       0.00000000 NULL
45
Lattice="7.021148564429825 3.7924395818203968e-16 0.0 -3.510574282214913 6.080493020540871 0.0 0.0 0.0 28.589263340648298" Properties=species:S:1:pos:R:3:initial_magmoms:R:1:castep_labels:S:1 n_minim_iter=8 pbc="T T T"
P        2.48290528       4.72324383      22.03769084       0.00000000 NULL
P       -1.82132750       5.86913015       2.97818195       0.00000000 NULL
P       -0.66157777       1.56861206      12.50793639       0.00000000 NULL
P        0.30877964       5.90519932      12.47547248       0.00000000 NULL
P       -1.75786816       3.39530437      22.00522693       0.00000000 NULL
P        1.44908852       2.86048235       2.94571804       0.00000000 NULL
P        5.72410768       0.28916422      10.76224181       0.00000000 NULL
P        3.90867116       4.81264056      20.29199626       0.00000000 NULL
P        0.89894400       0.97868825       1.23248736       0.00000000 NULL
P        3.35587854       1.98695959      14.71152726       0.00000000 NULL
P        3.62245182       1.91279627      24.24128171       0.00000000 NULL
P        3.55339249       2.18073716       5.18177282       0.00000000 NULL
P        2.27322455       5.54732961      13.24619780       0.00000000 NULL
P       -2.43016636       5.27549843      22.77595225       0.00000000 NULL
P        0.15694181       1.33815801       3.71644335       0.00000000 NULL
P       -0.40719204       5.53900644       9.46144327       0.00000000 NULL
P       -1.08274998       2.95835115      18.99119772       0.00000000 NULL
P        1.48994202       3.66362845      28.52095216       0.00000000 NULL
P        2.72437780       2.28417505       1.21999996       0.00000000 NULL
P        3.68080605       1.21729286      10.74975441       0.00000000 NULL
P        4.12653900       2.57902512      20.27950885       0.00000000 NULL
P        5.50443682       1.63949893      17.28150935       0.00000000 NULL
P        2.84908243       3.94723266      26.81126380       0.00000000 NULL
P        2.17820359       0.49376144       7.75175490       0.00000000 NULL
P        4.21759261       4.57573912      25.02426514       0.00000000 NULL
P        0.94964594       1.36467279       5.96475625       0.00000000 NULL
P        5.36448430       0.14008111      15.49451070       0.00000000 NULL
P        2.58153551       3.42565268      11.07408070       0.00000000 NULL
P        2.76367856       0.52284899      20.60383515       0.00000000 NULL
P        5.18650878       2.13199135       1.54432626       0.00000000 NULL
P        6.09320656       0.35725739       5.97930117       0.00000000 NULL
P        3.66515131       5.09824298      15.50905561       0.00000000 NULL
P        0.77336498       0.62499265      25.03881006       0.00000000 NULL
P       -0.99332765       3.40487097       8.82743482       0.00000000 NULL
P        1.05853335       3.51781056      18.35718926       0.00000000 NULL
P       -0.06520570       5.23830451      27.88694371       0.00000000 NULL
P        4.17518927       3.18553882      28.42557356       0.00000000 NULL
P        2.17479639       2.02305056       9.36606466       0.00000000 NULL
P        4.18173719       0.87190364      18.89581911       0.00000000 NULL
P       -0.55510709       2.21063048      15.31677516       0.00000000 NULL
P        1.87366567       4.49444094      24.84652961       0.00000000 NULL
P       -1.31855858       5.45591463       5.78702071       0.00000000 NULL
P        2.20167543       3.55168780      15.55934272       0.00000000 NULL
P        2.84445899       0.13086296      25.08909717       0.00000000 NULL
P        5.48558842       2.39794227       6.02958828       0.00000000 NULL
45
Lattice="6.9517241314152844 4.3304322586864294e-16 -1.649424701462358e-56 -3.4758620657076427 6.020369697906948 -2.6445550861842438e-40 0.0 -1.1131965066168315e-39 28.549473383081892" Properties=species:S:1:pos:R:3:initial_magmoms:R:1:castep_labels:S:1 n_minim_iter=9 pbc="T T T"
P        2.46228886       4.67879393      22.00433266       0.00000000 NULL
P       -1.80723677       5.81337744       2.97135040       0.00000000 NULL
P       -0.65505209       1.54856803      12.48784153       0.00000000 NULL
P        0.29608113       5.84534603      12.45746679       0.00000000 NULL
P       -1.73439665       3.35411046      21.97395792       0.00000000 NULL
P        1.43831553       2.84128290       2.94097566       0.00000000 NULL
P        5.67084614       0.28741391      10.74942367       0.00000000 NULL