24
Lattice="7.219669999999977 -4.156116930573601e-07 -3.2468238788672247e-07 3.609835489074067 8.495798904215414 -1.62341196717459e-07 3.609835489074067 2.056035320354185 8.243258929714868" Properties=species:S:1:pos:R:3:initial_magmoms:R:1:castep_labels:S:1 n_minim_iter=1 pbc="T T T"
P       11.11989802       8.66940269       1.42137807       0.00000000 NULL
P        3.90022787       1.88243109       6.82188035       0.00000000 NULL
P       11.11989802       3.47717587       8.06772004       0.00000000 NULL
P        3.90022787       7.07465791       0.17553838       0.00000000 NULL
P        8.18483829       3.53666509       0.20148219       0.00000000 NULL
P        8.18483884       7.01516861       8.04177616       0.00000000 NULL
P        8.18483829       1.05138774       3.38277680       0.00000000 NULL
P        8.18483884       9.50044597       4.86048156       0.00000000 NULL
P        7.12200220       5.56864640       6.51886459       0.00000000 NULL
P        7.12200195       4.98318742       1.72439386       0.00000000 NULL
P        7.12200220       7.67273611       3.82551158       0.00000000 NULL
P        7.12200195       2.87909771       4.41774688       0.00000000 NULL
P        6.41890198       3.15834175       1.17699450       0.00000000 NULL
P        6.41890249       7.39349215       7.06626401       0.00000000 NULL
P        6.41890198       1.90634610       2.77961926       0.00000000 NULL
P        6.41890249       8.64548781       5.46363926       0.00000000 NULL
P        5.69822531       6.41283975       0.90147349       0.00000000 NULL
P        5.69822547       4.13899423       7.34178509       0.00000000 NULL
P        5.69822531       2.42662352       6.00405417       0.00000000 NULL
P        5.69822547       8.12521047       2.23920441       0.00000000 NULL
P        9.18043771       5.32580286       7.40627855       0.00000000 NULL
P        9.18043741       5.22603072       0.83697972       0.00000000 NULL
P        9.18043771       8.47500181       3.37512701       0.00000000 NULL
P        9.18043741       2.07683177       4.86813126       0.00000000 NULL
24
Lattice="7.2625440359764255 -4.1807980458427287e-07 -3.266105154085163e-07 3.6312725111694846 8.55458376494938 0.016079863755652315 3.6312725111694846 2.085863660239452 8.296404928910254" Properties=species:S:1:pos:R:3:initial_magmoms:R:1:castep_labels:S:1 n_minim_iter=2 pbc="T T T"
P       11.18574304       8.73221497       1.44643744       0.00000000 NULL
P        3.92319885       1.90823200       6.86604700       0.00000000 NULL
P       11.18574304       3.51669130       8.12260068       0.00000000 NULL
P        3.92319885       7.12375567       0.18988376       0.00000000 NULL
P        8.23351422       3.56157563       0.20923024       0.00000000 NULL
P        8.23351478       7.07887127       8.10325414       0.00000000 NULL
P        8.23351422       1.06493397       3.40507179       0.00000000 NULL
P        8.23351478       9.57551292       4.90741259       0.00000000 NULL
P        7.16435810       5.61926055       6.56810564       0.00000000 NULL
P        7.16435785       5.02118648       1.74437883       0.00000000 NULL
P        7.16435810       7.73276240       3.86270457       0.00000000 NULL
P        7.16435785       2.90768463       4.44977991       0.00000000 NULL
P        6.45670636       3.18234544       1.18995001       0.00000000 NULL
P        6.45670687       7.45810166       7.12253453       0.00000000 NULL
P        6.45670636       1.92472554       2.79977412       0.00000000 NULL
P        6.45670687       8.71572156       5.51271042       0.00000000 NULL
P        5.73237987       6.45894460       0.91904458       0.00000000 NULL
P        5.73238003       4.18150258       7.39344002       0.00000000 NULL
P        5.73237987       2.45482996       6.04453623       0.00000000 NULL
P        5.73238003       8.18561723       2.26794838       0.00000000 NULL
P        9.23501287       5.37650094       7.46042737       0.00000000 NULL
P        9.23501257       5.26394584       0.85205692       0.00000000 NULL
P        9.23501287       8.53981029       3.41121372       0.00000000 NULL
P        9.23501257       2.10063649       4.90127057       0.00000000 NULL
24
Lattice="7.687764977962263 -4.425583191439435e-07 -3.4573351581007235e-07 3.843883023516001 9.14149851843489 0.1843387290628015 3.8438830235160015 2.3911579559531617 8.825153798051435" Properties=species:S:1:pos:R:3:initial_magmoms:R:1:castep_labels:S:1 n_minim_iter=3 pbc="T T T"
P       11.83870687       9.36057016       1.70385435       0.00000000 NULL
P        4.15094173       2.17208584       7.30563781       0.00000000 NULL
P       11.83870687       3.91852223       8.66998137       0.00000000 NULL
P        4.15094173       7.61413377       0.33951079       0.00000000 NULL
P        8.71638771       3.81048951       0.28969441       0.00000000 NULL
P        8.71638832       7.72216641       8.71979768       0.00000000 NULL
P        8.71638771       1.20324501       3.62711381       0.00000000 NULL
P        8.71638832      10.32941090       5.38237828       0.00000000 NULL
P        7.58441110       6.13034570       7.06166743       0.00000000 NULL
P        7.58441083       5.40231034       1.94782476       0.00000000 NULL
P        7.58441110       8.33533866       4.23915259       0.00000000 NULL
P        7.58441083       3.19731739       4.77033960       0.00000000 NULL
P        6.83150622       3.42318044       1.32154197       0.00000000 NULL
P        6.83150677       8.10947569       7.68795029       0.00000000 NULL
P        6.83150622       2.11068944       3.00160417       0.00000000 NULL
P        6.83150677       9.42196670       6.00788809       0.00000000 NULL
P        6.07129675       6.92011107       1.09987715       0.00000000 NULL
P        6.07129693       4.61254515       7.90961518       0.00000000 NULL
P        6.07129675       2.74189234       6.44823180       0.00000000 NULL
P        6.07129693       8.79076388       2.56126053       0.00000000 NULL
P        9.77625088       5.88935217       8.00247917       0.00000000 NULL
P        9.77625055       5.64330362       1.00701283       0.00000000 NULL
P        9.77625088       9.18986259       3.77764045       0.00000000 NULL
P        9.77625055       2.34279320       5.23185155       0.00000000 NULL
24
Lattice="7.788044901336376 -4.483310910892364e-07 -3.502432960259278e-07 3.894022997938331 9.320854455954795 0.23793585933033654 3.8940229979383316 2.486567134115862 8.986207495366576" Properties=species:S:1:pos:R:3:initial_magmoms:R:1:castep_labels:S:1 n_minim_iter=4 pbc="T T T"
P       11.99210151       9.55179973       1.78400604       0.00000000 NULL
P        4.20405645       2.25562138       7.44013693       0.00000000 NULL
P       11.99210151       4.04257012       8.83612938       0.00000000 NULL
P        4.20405645       7.76485099       0.38801359       0.00000000 NULL
P        8.83090220       3.88728351       0.31558015       0.00000000 NULL
P        8.83090282       7.92013751       8.90856276       0.00000000 NULL
P        8.83090220       1.24694591       3.69536058       0.00000000 NULL
P        8.83090282      10.56047512       5.52878233       0.00000000 NULL
P        7.68360210       6.28814650       7.21269381       0.00000000 NULL
P        7.68360182       5.51927466       2.01144920       0.00000000 NULL
P        7.68360210       8.52006451       4.35571340       0.00000000 NULL
P        7.68360182       3.28735665       4.86842961       0.00000000 NULL
P        6.91948792       3.49839447       1.36191482       0.00000000 NULL
P        6.91948849       8.30902678       7.86222826       0.00000000 NULL
P        6.91948792       2.16806445       3.06481196       0.00000000 NULL
P        6.91948849       9.63935679       6.15933112       0.00000000 NULL
P        6.15223339       7.06110079       1.15616150       0.00000000 NULL
P        6.15223357       4.74632055       8.06798165       0.00000000 NULL
P        6.15223339       2.83062400       6.57140940       0.00000000 NULL
P        6.15223357       8.97679733       2.65273376       0.00000000 NULL
P        9.90311446       6.04862970       8.16855433       0.00000000 NULL
P        9.90311412       5.75879120       1.05558848       0.00000000 NULL
P        9.90311446       9.38954727       3.89199220       0.00000000 NULL
P        9.90311412       2.41787363       5.33215061       0.00000000 NULL
24
Lattice="7.802013955614256 -4.491352417541144e-07 -3.5087151115238524e-07 3.9010075297967624 9.394250064706569 0.24892844556428723 3.901007529796763 2.5149951504140655 9.054761125653409" Properties=species:S:1:pos:R:3:initial_magmoms:R:1:castep_labels:S:1 n_minim_iter=5 pbc="T T T"
P       12.01263178       9.62707525       1.80600637       0.00000000 NULL
P        4.21061766       2.28216948       7.49768282       0.00000000 NULL
P       12.01263178       4.08213362       8.90384311       0.00000000 NULL
P        4.21061766       7.82711111       0.39984609       0.00000000 NULL
P        8.84768934       3.91925914       0.32220375       0.00000000 NULL
P        8.84768997       7.98998551       8.98148538       0.00000000 NULL
P        8.84768934       1.26111092       3.72478277       0.00000000 NULL
P        8.84768997      10.64813373       5.57890636       0.00000000 NULL
P        7.69775754       6.34428702       7.27106523       0.00000000 NULL
P        7.69775726       5.56495776       2.03262400       0.00000000 NULL
P        7.69775754       8.59028716       4.39605889       0.00000000 NULL
P        7.69775726       3.31895762       4.90763034       0.00000000 NULL
P        6.93123999       3.52907970       1.37456740       0.00000000 NULL
P        6.93124056       8.38016517       7.92912190       0.00000000 NULL
P        6.93123999       2.18776694       3.09152307       0.00000000 NULL
P        6.93124056       9.72147793       6.21216623       0.00000000 NULL
P        6.16496664       7.11739104       1.17097215       0.00000000 NULL
P        6.16496682       4.79185391       8.13271722       0.00000000 NULL
P        6.16496664       2.85861699       6.62244214       0.00000000 NULL
P        6.16496682       9.05062797       2.68124722       0.00000000 NULL
P        9.91949619       6.10520246       8.23441923       0.00000000 NULL
P        9.91949585       5.80404207       1.06926980       0.00000000 NULL
P        9.91949619       9.46714526       3.93094360       0.00000000 NULL
P        9.91949585       2.44209926       5.37274543       0.00000000 NULL
24
Lattice="7.7788516788365065 -4.4780186875100945e-07 -3.4982985920234073e-07 3.8894263923953334 9.416602149075358 0.24227345818866863 3.8894263923953334 2.5139473260147893 9.07805933581272" Properties=species:S:1:pos:R:3:initial_magmoms:R:1:castep_labels:S:1 n_minim_iter=6 pbc="T T T"
P       11.97600221       9.64709949       1.80263158       0.00000000 NULL
P        4.19715037       2.28344950       7.51770084       0.00000000 NULL
P       11.97600221       4.08370514       8.92408884       0.00000000 NULL
P        4.19715037       7.84684386       0.39624358       0.00000000 NULL
P        8.82245258       3.92966975       0.32065641       0.00000000 NULL
P        8.82245321       8.00087916       8.99967594       0.00000000 NULL
P        8.82245258       1.26212901       3.73525839       0.00000000 NULL
P        8.82245321      10.66841990       5.58507396       0.00000000 NULL
P        7.67532713       6.35362983       7.28556603       0.00000000 NULL
P        7.67532685       5.57691922       2.03476643       0.00000000 NULL
P        7.67532713       8.60661794       4.40161470       0.00000000 NULL
P        7.67532685       3.32393110       4.91871776       0.00000000 NULL
P        6.91019351       3.53861991       1.37480112       0.00000000 NULL
P        6.91019409       8.39192922       7.94553141       0.00000000 NULL
P        6.91019351       2.19030250       3.10072312       0.00000000 NULL
P        6.91019409       9.74024663       6.21960940       0.00000000 NULL
P        6.14835885       7.13321337       1.16785914       0.00000000 NULL
P        6.14835903       4.79733585       8.15247345       0.00000000 NULL
P        6.14835885       2.85942561       6.63854751       0.00000000 NULL
P        6.14835903       9.07112361       2.68178508       0.00000000 NULL
P        9.88833723       6.11480128       8.25255068       0.00000000 NULL
P        9.88833689       5.81574750       1.06778157       0.00000000 NULL
P        9.88833723       9.48706073       3.93586918       0.00000000 NULL
P        9.88833689       2.44348805       5.38446308       0.00000000 NULL
24
Lattice="7.682514657750214 -4.422560761582306e-07 -3.4549739885337865e-07 3.841257884749782 9.485553356734467 0.21844326047229157 3.841257884749782 2.5075121030753733 9.150728003521515" Properties=species:S:1:pos:R:3:initial_magmoms:R:1:castep_labels:S:1 n_minim_iter=7 pbc="T T T"
P       11.82348855       9.70653227       1.78745194       0.00000000 NULL
P        4.14097373       2.28653271       7.58171895       0.00000000 NULL
P       11.82348855       4.08335981       8.98542853       0.00000000 NULL
P        4.14097373       7.90970518       0.38374236       0.00000000 NULL
P        8.71771986       3.96314448       0.31518492       0.00000000 NULL
P        8.71772049       8.02992042       9.05398591       0.00000000 NULL
P        8.71771986       1.26492124       3.76906221       0.00000000 NULL
P        8.71772049      10.72814366       5.60010861       0.00000000 NULL
P        7.58204231       6.37976247       7.32831716       0.00000000 NULL
P        7.58204203       5.61330256       2.04085377       0.00000000 NULL
P        7.58204231       8.65442254       4.41662450       0.00000000 NULL
P        7.58204203       3.33864249       4.95254642       0.00000000 NULL
P        6.82258904       3.57000004       1.37385983       0.00000000 NULL
P        6.82258962       8.42306508       7.99531117       0.00000000 NULL
P        6.82258904       2.19698338       3.13139827       0.00000000 NULL
P        6.82258962       9.79608174       6.23777272       0.00000000 NULL
P        6.07939256       7.18121850       1.15490588       0.00000000 NULL
P        6.07939274       4.81184670       8.21426518       0.00000000 NULL
P        6.07939256       2.85847493       6.68826045       0.00000000 NULL
P        6.07939274       9.13459027       2.68091061       0.00000000 NULL
P        9.75862105       6.14334555       8.30773146       0.00000000 NULL
P        9.75862071       5.84971923       1.06143928       0.00000000 NULL
P        9.75862105       9.54750913       3.95021087       0.00000000 NULL
P        9.75862071       2.44555565       5.41895986       0.00000000 NULL
