30
Lattice="8.675769999999998 1.3280453586226366e-15 0.0 -4.337885 7.513437217390915 0.0 0.0 0.0 10.317789999999999" Properties=species:S:1:pos:R:3:initial_magmoms:R:1:castep_labels:S:1 n_minim_iter=1 pbc="T T T"
P       -0.12655389       1.77474825       5.15659929       0.00000000 NULL
P       -2.73763099       6.73566197       1.71733596       0.00000000 NULL
P        2.86418487       6.51646421       8.59586262       0.00000000 NULL
P       -0.88055725       4.82414888       4.57219863       0.00000000 NULL
P        0.28022910       5.86394772       1.13293530       0.00000000 NULL
P        0.60032814       4.33877783       8.01146196       0.00000000 NULL
P       -0.87129413       6.04196134       7.82483034       0.00000000 NULL
P        1.33025407       5.24701939       4.38556701       0.00000000 NULL
P       -0.45895995       3.73789370       0.94630367       0.00000000 NULL
P        4.38357160       0.04267031      10.31431084       0.00000000 NULL
P        2.18305277       3.69581769       6.87504751       0.00000000 NULL
P        6.44703062       3.77494921       3.43578417       0.00000000 NULL
P        2.45512405       0.65475248       0.39792724       0.00000000 NULL
P        3.67735525       5.05986118       7.27645391       0.00000000 NULL
P        6.88117569       1.79882356       3.83719057       0.00000000 NULL
P        4.76580998       6.45923060       9.35725740       0.00000000 NULL
P        7.54883779       0.15650940       5.91799407       0.00000000 NULL
P        0.69900722       0.89769721       2.47873073       0.00000000 NULL
P        5.04484053       2.40633004       5.75094733       0.00000000 NULL
P        3.89940768       1.94131214       2.31168400       0.00000000 NULL
P        4.06940679       3.16579504       9.19021066       0.00000000 NULL
P        1.03186745       4.23536663       9.97055303       0.00000000 NULL
P       -1.18588363       4.50213047       6.53128970       0.00000000 NULL
P        0.15401617       6.28937733       3.09202636       0.00000000 NULL
P        2.95505055       4.24406419       5.09456048       0.00000000 NULL
P        6.53582713       2.83225627       1.65529715       0.00000000 NULL
P        3.52277732       0.43711675       8.53382381       0.00000000 NULL
P        2.61631379       3.48041045       1.82707322       0.00000000 NULL
P        6.04385197       3.50743778       8.70559989       0.00000000 NULL
P        4.35348923       0.52558898       5.26633655       0.00000000 NULL
30
Lattice="8.701810037318225 -4.3335855213848365e-16 0.0 -4.350905018659112 7.535988551223995 0.0 0.0 0.0 10.357891044194387" Properties=species:S:1:pos:R:3:initial_magmoms:R:1:castep_labels:S:1 n_minim_iter=2 pbc="T T T"
P       -0.12677535       1.78013574       5.17663500       0.00000000 NULL
P       -2.74587458       6.75571135       1.72400465       0.00000000 NULL
P        2.87264991       6.53613001       8.62926535       0.00000000 NULL
P       -0.88298011       4.83881371       4.58980925       0.00000000 NULL
P        0.28112063       5.88126490       1.13717890       0.00000000 NULL
P        0.60185947       4.35189849       8.04243959       0.00000000 NULL
P       -0.87387448       6.06009150       7.85529083       0.00000000 NULL
P        1.33422540       5.26274030       4.40266048       0.00000000 NULL
P       -0.46035093       3.74914530       0.95003013       0.00000000 NULL
P        4.39700844       0.04290833      10.35450346       0.00000000 NULL
P        2.18956050       3.70661337       6.90187312       0.00000000 NULL
P        6.46614611       3.78646685       3.44924277       0.00000000 NULL
P        2.46235473       0.65688491       0.39953395       0.00000000 NULL
P        3.68860667       5.07508434       7.30479465       0.00000000 NULL
P        6.90175365       1.80401930       3.85216430       0.00000000 NULL
P        4.78022273       6.47860828       9.39367629       0.00000000 NULL
P        7.57143300       0.15689009       5.94104595       0.00000000 NULL
P        0.70105932       0.90049018       2.48841560       0.00000000 NULL
P        5.06000620       2.41358442       5.77327861       0.00000000 NULL
P        3.91112733       1.94710243       2.32064827       0.00000000 NULL
P        4.08158151       3.17530171       9.22590896       0.00000000 NULL
P        1.03527532       4.24804721      10.00941932       0.00000000 NULL
P       -1.18962588       4.51539021       6.55678897       0.00000000 NULL
P        0.15435055       6.30853968       3.10415862       0.00000000 NULL
P        2.96414657       4.25675370       5.11415095       0.00000000 NULL
P        6.55528857       2.84058547       1.66152060       0.00000000 NULL
P        3.53327991       0.43864938       8.56678130       0.00000000 NULL
P        2.62417146       3.49091937       1.83419051       0.00000000 NULL
P        6.06204414       3.51792971       8.73945121       0.00000000 NULL
P        4.36649945       0.52713947       5.28682086       0.00000000 NULL
30
Lattice="8.985244476851783 2.8698302695923336e-16 0.0 -4.492622238425891 7.781449976167461 0.0 0.0 0.0 10.802180104406366" Properties=species:S:1:pos:R:3:initial_magmoms:R:1:castep_labels:S:1 n_minim_iter=3 pbc="T T T"
P       -0.12915511       1.83876938       5.39858785       0.00000000 NULL
P       -2.83562370       6.97391689       1.79786115       0.00000000 NULL
P        2.96477880       6.75021368       8.99931455       0.00000000 NULL
P       -0.90913205       4.99858204       4.78480090       0.00000000 NULL
P        0.29084281       6.06949040       1.18407420       0.00000000 NULL
P        0.61828922       4.49482751       8.38552760       0.00000000 NULL
P       -0.90190690       6.25740419       8.19280325       0.00000000 NULL
P        1.37740220       5.43382216       4.59207655       0.00000000 NULL
P       -0.47549531       3.87167360       0.99134985       0.00000000 NULL
P        4.54343542       0.04559794      10.79987629       0.00000000 NULL
P        2.26039350       3.82392051       7.19914959       0.00000000 NULL
P        6.67403778       3.91193152       3.59842289       0.00000000 NULL
P        2.54097365       0.68018279       0.41743125       0.00000000 NULL
P        3.81119098       5.24081084       7.61888465       0.00000000 NULL
P        7.12570207       1.86045634       4.01815795       0.00000000 NULL
P        4.93707732       6.68953952       9.79717623       0.00000000 NULL
P        7.81739474       0.16104583       6.19644953       0.00000000 NULL
P        0.72339465       0.93086462       2.59572283       0.00000000 NULL
P        5.22506222       2.49247098       6.02062837       0.00000000 NULL
P        4.03863431       2.01017786       2.41990167       0.00000000 NULL
P        4.21417017       3.27880113       9.62135507       0.00000000 NULL
P        1.07260581       4.38603542      10.44011216       0.00000000 NULL
P       -1.23050705       4.65952838       6.83938546       0.00000000 NULL
P        0.15790123       6.51733615       3.23865876       0.00000000 NULL
P        3.06328049       4.39482672       5.33108486       0.00000000 NULL
P        6.76701357       2.93115789       1.73035816       0.00000000 NULL
P        3.64757264       0.45546537       8.93181156       0.00000000 NULL
P        2.70977351       3.60530205       1.91308141       0.00000000 NULL
P        6.26001865       3.63206624       9.11453482       0.00000000 NULL
P        4.50807455       0.54408168       5.51380812       0.00000000 NULL
30
Lattice="9.031043365949554 7.254226133128718e-16 0.0 -4.515521682974777 7.821112977591237 0.0 0.0 0.0 10.900607386120374" Properties=species:S:1:pos:R:3:initial_magmoms:R:1:castep_labels:S:1 n_minim_iter=4 pbc="T T T"
P       -0.12965116       1.84798267       5.44750374       0.00000000 NULL
P       -2.85029617       7.00940284       1.81396795       0.00000000 NULL
P        2.97994732       6.78484044       9.08103954       0.00000000 NULL
P       -0.91138962       5.02564595       4.82715552       0.00000000 NULL
P        0.29251019       6.09757656       1.19361973       0.00000000 NULL
P        0.61887942       4.51900344       8.46069132       0.00000000 NULL
P       -0.90587152       6.28892910       8.26775243       0.00000000 NULL
P        1.38378644       5.46115617       4.63421663       0.00000000 NULL
P       -0.47791493       3.89214068       1.00068083       0.00000000 NULL
P        4.56830794       0.04693259      10.89915489       0.00000000 NULL
P        2.27201252       3.84137595       7.26561909       0.00000000 NULL
P        6.70624458       3.93280443       3.63208330       0.00000000 NULL
P        2.55310056       0.68451844       0.42230614       0.00000000 NULL
P        3.83178176       5.26780381       7.68937773       0.00000000 NULL
P        7.16168272       1.86879072       4.05584194       0.00000000 NULL
P        4.96205542       6.72376825       9.88638485       0.00000000 NULL
P        7.85744808       0.16196280       6.25284906       0.00000000 NULL
P        0.72706154       0.93538193       2.61931326       0.00000000 NULL
P        5.25158206       2.50426715       6.07468208       0.00000000 NULL
P        4.05848962       2.02097592       2.44114628       0.00000000 NULL
P        4.23649336       3.29586990       9.70821787       0.00000000 NULL
P        1.08060205       4.40806055      10.53624549       0.00000000 NULL
P       -1.23833029       4.68125387       6.90270969       0.00000000 NULL
P        0.15772823       6.55291153       3.26917390       0.00000000 NULL
P        3.08031673       4.41670670       5.37837390       0.00000000 NULL
P        6.80034352       2.94512709       1.74483811       0.00000000 NULL
P        3.66590479       0.45927919       9.01190970       0.00000000 NULL
P        2.72447323       3.62349735       1.93093773       0.00000000 NULL
P        6.29132582       3.64990127       9.19800932       0.00000000 NULL
P        4.53076600       0.54771435       5.56447353       0.00000000 NULL
30
Lattice="9.032336761000701 -6.761992742444279e-16 9.539950584973923e-57 -4.51616838050035 7.82223309056266 -7.810766714630985e-41 4.9011510819392893e-57 -2.6336049962038267e-41 10.926547252045143" Properties=species:S:1:pos:R:3:initial_magmoms:R:1:castep_labels:S:1 n_minim_iter=5 pbc="T T T"
P       -0.12983458       1.84790892       5.46012092       0.00000000 NULL
P       -2.85091503       7.01071867       1.81793850       0.00000000 NULL
P        2.98074960       6.78583859       9.10230333       0.00000000 NULL
P       -0.90880939       5.02810486       4.83740632       0.00000000 NULL
P        0.29270285       6.09523268       1.19522390       0.00000000 NULL
P        0.61610653       4.52112864       8.47958873       0.00000000 NULL
P       -0.90520501       6.28932133       8.28768875       0.00000000 NULL
P        1.38314616       5.46150295       4.64550633       0.00000000 NULL
P       -0.47794116       3.89364190       1.00332392       0.00000000 NULL
P        4.57059623       0.04819718      10.92599439       0.00000000 NULL
P        2.27261025       3.83988205       7.28381198       0.00000000 NULL
P        6.70529866       3.93415385       3.64162956       0.00000000 NULL
P        2.55267792       0.68539751       0.42462827       0.00000000 NULL
P        3.83340108       5.26885040       7.70899310       0.00000000 NULL
P        7.16242614       1.86798517       4.06681068       0.00000000 NULL
P        4.96230570       6.72490416       9.90968754       0.00000000 NULL
P        7.85895337       0.16229821       6.26750512       0.00000000 NULL
P        0.72724606       0.93503071       2.62532271       0.00000000 NULL
P        5.25213083       2.50335222       6.08804498       0.00000000 NULL
P        4.05806958       2.02207825       2.44586256       0.00000000 NULL
P        4.23830472       3.29680262       9.73022740       0.00000000 NULL
P        1.08346837       4.40832969      10.56235162       0.00000000 NULL
P       -1.24017707       4.67975711       6.92016920       0.00000000 NULL
P        0.15670869       6.55637938       3.27798678       0.00000000 NULL
P        3.08215861       4.41672609       5.38997693       0.00000000 NULL
P        6.80008607       2.94464239       1.74779452       0.00000000 NULL
P        3.66626045       0.46086461       9.03215935       0.00000000 NULL
P        2.72603427       3.62364329       1.93611194       0.00000000 NULL
P        6.29131839       3.64959651       9.22047677       0.00000000 NULL
P        4.53115248       0.54899329       5.57829435       0.00000000 NULL
30
Lattice="9.022601840842885 6.932791786395199e-16 -3.8080695737594004e-44 -4.5113009204214425 7.813802402402176 -1.3816090714470883e-40 -4.606676349403644e-44 3.762199934359225e-41 10.930945850709081" Properties=species:S:1:pos:R:3:initial_magmoms:R:1:castep_labels:S:1 n_minim_iter=6 pbc="T T T"
P       -0.12998740       1.84542289       5.46180818       0.00000000 NULL
P       -2.84812412       7.00366334       1.81815957       0.00000000 NULL
P        2.97811151       6.77851857       9.10545680       0.00000000 NULL
P       -0.90394110       5.02515552       4.83767867       0.00000000 NULL
P        0.29258197       6.08406060       1.19403006       0.00000000 NULL
P        0.61135912       4.51838868       8.48132729       0.00000000 NULL
P       -0.90307156       6.28178837       8.29136599       0.00000000 NULL
P        1.38042317       5.45499113       4.64771737       0.00000000 NULL
P       -0.47735161       3.89082530       1.00406875       0.00000000 NULL
P        4.56792103       0.04996814      10.93161834       0.00000000 NULL
P        2.27061408       3.83288267       7.28796972       0.00000000 NULL
P        6.69536764       3.93095159       3.64432110       0.00000000 NULL
P        2.54883660       0.68575442       0.42674084       0.00000000 NULL
P        3.83076337       5.26356795       7.71403807       0.00000000 NULL
P        7.15430279       1.86448003       4.07038945       0.00000000 NULL
P        4.95626054       6.71790982       9.91332262       0.00000000 NULL
P        7.85105121       0.16259995       6.26967400       0.00000000 NULL
P        0.72659100       0.93329263       2.62602538       0.00000000 NULL
P        5.24617423       2.49881090       6.08886409       0.00000000 NULL
P        4.05224752       2.02107679       2.44521547       0.00000000 NULL
P        4.23548100       3.29391471       9.73251270       0.00000000 NULL
P        1.08616954       4.40306156      10.56800015       0.00000000 NULL
P       -1.24122253       4.67162121       6.92435153       0.00000000 NULL
P        0.15505298       6.55292203       3.28070292       0.00000000 NULL
P        3.08078393       4.41103486       5.39055587       0.00000000 NULL
P        6.79097720       2.94024782       1.74690725       0.00000000 NULL
P        3.66214162       0.46251972       9.03420448       0.00000000 NULL
P        2.72481074       3.61920597       1.93774914       0.00000000 NULL
P        6.28321986       3.64444410       9.22504637       0.00000000 NULL
P        4.52587216       0.55015233       5.58139775       0.00000000 NULL
30
Lattice="9.001171754391896 1.8159606807804776e-15 1.7448625780679356e-43 -4.500585877195949 7.795243403130321 -1.7384837074979836e-40 2.114788313361254e-43 1.723726675204292e-41 10.909577660428488" Properties=species:S:1:pos:R:3:initial_magmoms:R:1:castep_labels:S:1 n_minim_iter=7 pbc="T T T"
P       -0.13067439       1.83899865       5.44871379       0.00000000 NULL
P       -2.84262913       6.98891142       1.81218791       0.00000000 NULL
P        2.97330352       6.76257673       9.08523968       0.00000000 NULL
P       -0.88370846       5.02463906       4.82066707       0.00000000 NULL
P        0.29273342       6.04823784       1.18414118       0.00000000 NULL
P        0.59097503       4.51760990       8.45719296       0.00000000 NULL
P       -0.89559473       6.26340510       8.27668749       0.00000000 NULL
P        1.37147942       5.43914863       4.64016160       0.00000000 NULL
P       -0.47588470       3.88793307       1.00363572       0.00000000 NULL
P        4.56754824       0.05846631      10.91571070       0.00000000 NULL
P        2.26744507       3.81039744       7.27918481       0.00000000 NULL
P        6.66676432       3.92637965       3.64265892       0.00000000 NULL
P        2.53776373       0.68950912       0.43511406       0.00000000 NULL
P        3.82883642       5.25272098       7.70816583       0.00000000 NULL
P        7.13515747       1.85301330       4.07163994       0.00000000 NULL
P        4.94148838       6.70313524       9.89238590       0.00000000 NULL
P        7.83492708       0.16422131       6.25586002       0.00000000 NULL
P        0.72534215       0.92788685       2.61933413       0.00000000 NULL
P        5.23252588       2.48466846       6.06932252       0.00000000 NULL
P        4.03610894       2.02140883       2.43279664       0.00000000 NULL
P        4.23312280       3.28916611       9.70584841       0.00000000 NULL
P        1.10185925       4.39015775      10.55350684       0.00000000 NULL
P       -1.24952737       4.64592643       6.91698095       0.00000000 NULL
P        0.14766811       6.55440263       3.28045507       0.00000000 NULL
P        3.08250915       4.39594460       5.37288876       0.00000000 NULL
P        6.76633099       2.92773987       1.73636287       0.00000000 NULL
P        3.65291748       0.47155893       9.00941465       0.00000000 NULL
P        2.72618349       3.60854222       1.93789505       0.00000000 NULL
P        6.26258336       3.63002813       9.21094682       0.00000000 NULL
P        4.51299077       0.55667305       5.57442093       0.00000000 NULL
30
Lattice="9.079358215311675 -2.9436967123304274e-16 3.4570792272568866e-42 -4.539679107655837 7.8629548645188505 -1.7493642173095966e-40 4.196254862784358e-42 -2.2421087413870433e-41 10.683681631875233" Properties=species:S:1:pos:R:3:initial_magmoms:R:1:castep_labels:S:1 n_minim_iter=8 pbc="T T T"
P       -0.13094362       1.85364767       5.33255515       0.00000000 NULL
P       -2.86890133       7.04953153       1.77132794       0.00000000 NULL
P        2.99984494       6.82273053       8.89378236       0.00000000 NULL
P       -0.86758778       5.08269631       4.71137811       0.00000000 NULL
P        0.29585890       6.07295976       1.15015090       0.00000000 NULL
P        0.57172887       4.57025366       8.27260532       0.00000000 NULL
P       -0.89663933       6.31403795       8.10717671       0.00000000 NULL
P        1.37675782       5.48244832       4.54594950       0.00000000 NULL
P       -0.48011850       3.92942345       0.98472229       0.00000000 NULL
P        4.62095754       0.07114782      10.69623519       0.00000000 NULL
P        2.29081616       3.82551433       7.13500798       0.00000000 NULL
P        6.70726362       3.96629271       3.57378077       0.00000000 NULL
P        2.55440478       0.70428177       0.43891581       0.00000000 NULL
P        3.87240262       5.29863454       7.56137023       0.00000000 NULL
P        7.19222991       1.86003855       4.00014302       0.00000000 NULL
P        4.98162984       6.76295059       9.68593852       0.00000000 NULL
P        7.90575120       0.16726157       6.12471131       0.00000000 NULL
P        0.73165627       0.93274270       2.56348410       0.00000000 NULL
P        5.27791678       2.49738964       5.93353427       0.00000000 NULL
P        4.06352359       2.04345003       2.37230706       0.00000000 NULL
P        4.27759694       3.32211519       9.49476148       0.00000000 NULL
P        1.13756749       4.42463459      10.34178113       0.00000000 NULL
P       -1.27661690       4.66547522       6.78055392       0.00000000 NULL
P        0.13904940       6.63579991       3.21932671       0.00000000 NULL
P        3.12109463       4.42687229       5.25339550       0.00000000 NULL
P        6.81291566       2.94657148       1.69216829       0.00000000 NULL
P        3.68502703       0.48951109       8.81462271       0.00000000 NULL
P        2.75951464       3.63978040       1.90252208       0.00000000 NULL
P        6.31206407       3.65325488       9.02497650       0.00000000 NULL
P        4.54745860       0.56991958       5.46374929       0.00000000 NULL
30
Lattice="8.978770303047677 -6.241573033217157e-16 5.982383547964162e-42 -4.489385151523837 7.775843177184587 -2.143597400374378e-40 7.176303354594163e-42 -6.479350423939188e-41 10.539203344498365" Properties=species:S:1:pos:R:3:initial_magmoms:R:1:castep_labels:S:1 n_minim_iter=9 pbc="T T T"
P       -0.12810732       1.83183257       5.25780778       0.00000000 NULL
P       -2.83891795       6.97087109       1.74474000       0.00000000 NULL
P        2.96702527       6.74898270       8.77087556       0.00000000 NULL
P       -0.84020380       5.03532510       4.63656134       0.00000000 NULL
P        0.29143620       5.98581846       1.12349356       0.00000000 NULL
P        0.54876759       4.53054279       8.14962912       0.00000000 NULL
P       -0.88146673       6.24295652       8.00001678       0.00000000 NULL
P        1.35790715       5.41773749       4.48694900       0.00000000 NULL
P       -0.47644043       3.89099234       0.97388121       0.00000000 NULL
P        4.57963197       0.07932316      10.55974530       0.00000000 NULL
P        2.26826504       3.77010397       7.04667752       0.00000000 NULL
P        6.62025844       3.92641604       3.53360974       0.00000000 NULL
P        2.52633652       0.70366014       0.44316348       0.00000000 NULL
P        3.83560445       5.23614150       7.46929905       0.00000000 NULL
P        7.10621448       1.83604153       3.95623126       0.00000000 NULL
P        4.92355130       6.68927890       9.55317876       0.00000000 NULL
P        7.82069496       0.16728322       6.04011098       0.00000000 NULL
P        0.72390918       0.91928106       2.52704320       0.00000000 NULL
P        5.22137217       2.46238792       5.84490025       0.00000000 NULL
P        4.01118956       2.02280827       2.33183247       0.00000000 NULL
P        4.23559372       3.29064698       9.35796803       0.00000000 NULL
P        1.14640812       4.37197488      10.20912155       0.00000000 NULL
P       -1.27634791       4.59703718       6.69605377       0.00000000 NULL
P        0.12993978       6.58267429       3.18298598       0.00000000 NULL
P        3.09497989       4.37400501       5.17406355       0.00000000 NULL
P        6.72989466       2.90850946       1.66099577       0.00000000 NULL
P        3.64328089       0.49332871       8.68713133       0.00000000 NULL
P        2.73679651       3.60055424       1.88097535       0.00000000 NULL
P        6.23915833       3.60543075       8.90711091       0.00000000 NULL
P        4.49220060       0.56985819       5.39404313       0.00000000 NULL
30
Lattice="9.080833480391188 7.466060303426138e-16 3.9715936642367115e-42 -4.540416740195594 7.864232481555024 -1.8374323635847443e-40 4.843719468417255e-42 -3.961530190673981e-41 10.62011553894039" Properties=species:S:1:pos:R:3:initial_magmoms:R:1:castep_labels:S:1 n_minim_iter=10 pbc="T T T"
P       -0.12841566       1.85300607       5.29786846       0.00000000 NULL
P       -2.87145858       7.04894066       1.75782995       0.00000000 NULL
P        2.99987423       6.82651822       8.83790697       0.00000000 NULL
P       -0.84767796       5.09364363       4.67072250       0.00000000 NULL
P        0.29464702       6.05152131       1.13068399       0.00000000 NULL
P        0.55303093       4.58330002       8.21076101       0.00000000 NULL
P       -0.89109360       6.31402605       8.06181714       0.00000000 NULL
P        1.37323702       5.47892915       4.52177863       0.00000000 NULL
P       -0.48214342       3.93550976       0.98174012       0.00000000 NULL
P        4.63351726       0.08144606      10.64179880       0.00000000 NULL
P        2.29419246       3.81076579       7.10176029       0.00000000 NULL
P        6.69354049       3.97202063       3.56172177       0.00000000 NULL
P        2.55493216       0.71318379       0.44782055       0.00000000 NULL
P        3.88058594       5.29500443       7.52789757       0.00000000 NULL
P        7.18573211       1.85604426       3.98785906       0.00000000 NULL
P        4.97979271       6.76547167       9.62662100       0.00000000 NULL
P        7.90959072       0.16886965       6.08658248       0.00000000 NULL
P        0.73186679       0.92989116       2.54654397       0.00000000 NULL
P        5.28132625       2.49029514       5.88884836       0.00000000 NULL
P        4.05641246       2.04532221       2.34880984       0.00000000 NULL
P        4.28351150       3.32861513       9.42888687       0.00000000 NULL
P        1.16264586       4.42105128      10.28823861       0.00000000 NULL
P       -1.29299695       4.64682599       6.74820010       0.00000000 NULL
P        0.13035109       6.66058769       3.20816159       0.00000000 NULL
P        3.13152669       4.42311904       5.21249463       0.00000000 NULL
P        6.80518684       2.94069129       1.67245612       0.00000000 NULL
P        3.68453668       0.50042215       8.75253315       0.00000000 NULL
P        2.76842296       3.64250289       1.89591258       0.00000000 NULL
P        6.31070529       3.64545642       8.97598961       0.00000000 NULL
P        4.54212196       0.57627317       5.43595110       0.00000000 NULL
30
Lattice="9.070536446457975 1.792714609635147e-16 4.8224871383993933e-42 -4.535268223228987 7.855314988585231 -2.0478507332919784e-40 5.852790008676697e-42 -8.243806711331011e-41 10.575677336602434" Properties=species:S:1:pos:R:3:initial_magmoms:R:1:castep_labels:S:1 n_minim_iter=11 pbc="T T T"
P       -0.12800671       1.85084421       5.27541260       0.00000000 NULL
P       -2.86838677       7.04074995       1.75018682       0.00000000 NULL
P        2.99639347       6.81903582       8.80063838       0.00000000 NULL
P       -0.84510356       5.08857013       4.65016001       0.00000000 NULL
P        0.29411456       6.04291107       1.12493423       0.00000000 NULL
P        0.55098899       4.57914877       8.17538579       0.00000000 NULL
P       -0.88967289       6.30679571       8.02829609       0.00000000 NULL
P        1.37141352       5.47239645       4.50307031       0.00000000 NULL
P       -0.48174064       3.93143781       0.97784453       0.00000000 NULL
P        4.62919443       0.08226558      10.59796441       0.00000000 NULL
P        2.29191509       3.80518222       7.07273863       0.00000000 NULL
P        6.68469514       3.96786719       3.54751285       0.00000000 NULL
P        2.55222793       0.71319283       0.44706034       0.00000000 NULL
P        3.87679737       5.28842435       7.49751190       0.00000000 NULL
P        7.17677936       1.85369781       3.97228612       0.00000000 NULL
P        4.97389580       6.75792194       9.58617340       0.00000000 NULL
P        7.90085240       0.16883389       6.06094762       0.00000000 NULL
P        0.73105646       0.92855915       2.53572184       0.00000000 NULL
P        5.27572104       2.48688793       5.86330660       0.00000000 NULL
P        4.05111582       2.04296258       2.33808082       0.00000000 NULL
P        4.27896780       3.32546448       9.38853238       0.00000000 NULL
P        1.16342977       4.41562893      10.24578430       0.00000000 NULL
P       -1.29293628       4.63994078       6.72055852       0.00000000 NULL
P        0.12950651       6.65506026       3.19533274       0.00000000 NULL
P        3.12872005       4.41766090       5.18999497       0.00000000 NULL
P        6.79671476       2.93693349       1.66476920       0.00000000 NULL
P        3.68036985       0.50072059       8.71522075       0.00000000 NULL
P        2.76600991       3.63874100       1.88842616       0.00000000 NULL
P        6.30350540       3.64050964       8.93887772       0.00000000 NULL
P        4.53628934       0.57606436       5.41365194       0.00000000 NULL
30
Lattice="9.076076211672705 7.575758178509996e-17 5.3648917537282966e-42 -4.5380381058363515 7.860112565992189 -1.5768333423300736e-40 6.50101563339857e-42 9.003247820154357e-42 10.552652936271318" Properties=species:S:1:pos:R:3:initial_magmoms:R:1:castep_labels:S:1 n_minim_iter=12 pbc="T T T"
P       -0.12766701       1.85196910       5.26362359       0.00000000 NULL
P       -2.87035232       7.04469089       1.74607261       0.00000000 NULL
P        2.99801932       6.82356514       8.78117457       0.00000000 NULL
P       -0.84388127       5.09243752       4.63887467       0.00000000 NULL
P        0.29408278       6.04471642       1.12132369       0.00000000 NULL
P        0.54979848       4.58307119       8.15642565       0.00000000 NULL
P       -0.88980054       6.31061089       8.01108283       0.00000000 NULL
P        1.37201151       5.47539699       4.49353185       0.00000000 NULL
P       -0.48221097       3.93421725       0.97598087       0.00000000 NULL
P        4.63313814       0.08329725      10.57568831       0.00000000 NULL
P        2.29360656       3.80604861       7.05813733       0.00000000 NULL
P        6.68736960       3.97076671       3.54058635       0.00000000 NULL
P        2.55397790       0.71459356       0.44726577       0.00000000 NULL
P        3.87990533       5.29100604       7.48236773       0.00000000 NULL
P        7.18023108       1.85451297       3.96481675       0.00000000 NULL
P        4.97674542       6.76218127       9.56517068       0.00000000 NULL
P        7.90588616       0.16903397       6.04761970       0.00000000 NULL
P        0.73148273       0.92889733       2.53006872       0.00000000 NULL
P        5.27939719       2.48786554       5.84959388       0.00000000 NULL
P        4.05289427       2.04408771       2.33204290       0.00000000 NULL
P        4.28182286       3.32815931       9.36714486       0.00000000 NULL