39
Lattice="10.288480417740322 8.293417623173368e-15 -5.791104586910249e-40 -5.144240208870168 8.910085408101848 4.7844299099553174e-39 4.40265657243663e-40 -3.9458480554556434e-39 7.821762714134813" Properties=species:S:1:pos:R:3:initial_magmoms:R:1:castep_labels:S:1:forces:R:3 n_minim_iter=1 energy=-207.370551172967 stress="-0.007444744565549279 -0.0 0.0 -0.0 -0.007444744565549279 -0.0 0.0 -0.0 -0.003929329964389421" free_energy=-207.370551172967 pbc="T T T"
P        2.30160978       6.14768814       6.04510386       0.00000000 NULL      -0.16015200       0.00249000      -0.02299700
P       -1.33061879       7.82949387       0.83059538       0.00000000 NULL       0.07791900      -0.13994200      -0.02299900
P       -0.97099099       3.84298880       3.43784962       0.00000000 NULL       0.08223500       0.13745100      -0.02299700
P        3.26220791       7.45727923       7.51180457       0.00000000 NULL       0.14372300      -0.00457600       0.00908800
P       -2.94505700       8.00660072       2.29729609       0.00000000 NULL      -0.06789800       0.12675100       0.00908700
P       -0.31715090       2.35629087       4.90455033       0.00000000 NULL      -0.07581900      -0.12218000       0.00908700
P       -0.37201364       7.11585473       3.67501460       0.00000000 NULL       0.12300600       0.13885700       0.21814600
P       -0.83226394       5.02998478       6.28226884       0.00000000 NULL      -0.18175600       0.03709700       0.21814800
P        1.20427758       5.67433130       1.06776037       0.00000000 NULL       0.05875200      -0.17595600       0.21814500
P        3.80075442       1.51253721       6.85097511       0.00000000 NULL       0.15479200      -0.04142700      -0.29385600
P        7.07820757       2.53528127       1.63646664       0.00000000 NULL      -0.04152000       0.15476800      -0.29385600
P        4.55375865       4.86226693       4.24372087       0.00000000 NULL      -0.11327500      -0.11333900      -0.29385600
P        9.83489632       0.81033739       1.61864414       0.00000000 NULL       0.24976700       0.00253200       0.20594800
P        4.66925950       8.11210137       4.22589838       0.00000000 NULL      -0.12707500       0.21503600       0.20594800
P        0.92856481      -0.01235334       6.83315262       0.00000000 NULL      -0.12269000      -0.21757000       0.20594900
P        4.33010241       0.99005502       1.63493361       0.00000000 NULL       0.28103200       0.08357000      -0.03340200
P        7.26601642       3.25495117       4.24218785       0.00000000 NULL      -0.21289100       0.20159600      -0.03340100
P        3.83660181       4.66507921       6.84944209       0.00000000 NULL      -0.06814400      -0.28516500      -0.03340100
P       -1.01671751       2.94767985       1.37939630       0.00000000 NULL      -0.10327300       0.09620500       0.03565900
P        3.09983333       6.55574229       3.98665054       0.00000000 NULL      -0.03167800      -0.13754200       0.03565900
P       -2.08311582       8.31674868       6.59390478       0.00000000 NULL       0.13495500       0.04133400       0.03566100
P        6.60996024       0.92405531       0.12027717       0.00000000 NULL      -0.38528700       0.04994100       0.08881300
P        6.18324492       5.26236583       2.72753141       0.00000000 NULL       0.14939300      -0.35863900       0.08881300
P        2.63951547       2.72366427       5.33478565       0.00000000 NULL       0.23589400       0.30869800       0.08881400
P        5.36335505       7.13660854       1.83744940       0.00000000 NULL      -0.00069700       0.06305600      -0.02786400
P        1.42631861       1.07649745       4.44470364       0.00000000 NULL      -0.05426200      -0.03212900      -0.02786200
P        8.64304698       0.69697942       7.05195788       0.00000000 NULL       0.05495600      -0.03092400      -0.02786100
P        7.20575990       4.57104204       6.05035948       0.00000000 NULL       0.57226900      -0.24634600       0.19959500
P        2.72696194       3.95485010       0.83585101       0.00000000 NULL      -0.07279300       0.61877400       0.19959200
P        5.49999879       0.38419326       3.44310525       0.00000000 NULL      -0.49947700      -0.37242600       0.19959500
P        8.35974490       0.85016508       4.83145411       0.00000000 NULL       0.05814800      -0.11664900       0.00330200
P        5.37234341       6.81466891       7.43870835       0.00000000 NULL       0.07194400       0.10868500       0.00330300
P        1.70063232       1.24525142       2.22419987       0.00000000 NULL      -0.13009800       0.00796700       0.00330100
P        6.30762485       6.18148271       4.80340273       0.00000000 NULL       0.07733800       0.22104000      -0.11545700
P        1.78134693       2.37182200       7.41065697       0.00000000 NULL      -0.23009600      -0.04354200      -0.11545700
P        7.34374885       0.35678069       2.19614849       0.00000000 NULL       0.15275800      -0.17749800      -0.11545700
P       -0.98999516       5.34256964       0.64729570       0.00000000 NULL       0.01103800      -0.03025500      -0.26697800
P        1.01243676       5.38143962       3.25454994       0.00000000 NULL       0.02068300       0.02468600      -0.26697600
P       -0.02244159       7.09616155       5.86180418       0.00000000 NULL      -0.03172100       0.00556800      -0.26697500
39
Lattice="10.346724931719558 8.714542151790131e-15 -5.819786222985831e-40 -5.173362465859786 8.960526636838946 4.812335752927912e-39 4.418877720699316e-40 -3.956732101119619e-39 7.845102553887324" Properties=species:S:1:pos:R:3:initial_magmoms:R:1:castep_labels:S:1:forces:R:3 n_minim_iter=2 energy=-207.406084503262 stress="4.093018669385537e-05 2.749760610940905e-08 0.0 2.749760610940905e-08 4.097143310301948e-05 0.0 0.0 0.0 0.0018435632528022749" free_energy=-207.406084503262 pbc="T T T"
P        2.31446919       6.18249371       6.06311782       0.00000000 NULL      -0.05156000       0.01706900       0.01802300
P       -1.33806874       7.87366890       0.83304946       0.00000000 NULL       0.01099700      -0.05318400       0.01802000
P       -0.97640045       3.86489067       3.44808364       0.00000000 NULL       0.04056200       0.03611700       0.01802300
P        3.28082857       7.49949106       7.53422914       0.00000000 NULL       0.21922300       0.00831100      -0.06258600
P       -2.96180159       8.05206200       2.30416077       0.00000000 NULL      -0.11680600       0.18570000      -0.06258600
P       -0.31902698       2.36950022       4.91919496       0.00000000 NULL      -0.10241700      -0.19400700      -0.06258600
P       -0.37398884       7.15628625       3.68621209       0.00000000 NULL       0.18669600       0.13601300       0.23996400
P       -0.83716880       5.05849967       6.30124627       0.00000000 NULL      -0.21113700       0.09367700       0.23996800
P        1.21115765       5.70626735       1.07117790       0.00000000 NULL       0.02444200      -0.22968900       0.23996400
P        3.82243564       1.52105583       6.87110647       0.00000000 NULL       0.00592300      -0.06299500      -0.28951300
P        7.11823413       2.54979845       1.64103810       0.00000000 NULL       0.05159000       0.03662700      -0.28951300
P        4.57941764       4.88967236       4.25607229       0.00000000 NULL      -0.05751500       0.02636400      -0.28951300
P        9.89083866       0.81492751       1.62369256       0.00000000 NULL       0.25875000       0.09421200       0.21869900
P        4.69555768       8.15825379       4.23872675       0.00000000 NULL      -0.21096400       0.17697800       0.21869900
P        0.93369106      -0.01265466       6.85376093       0.00000000 NULL      -0.04778500      -0.27119000       0.21870000
P        4.35491460       0.99574874       1.63977676       0.00000000 NULL       0.28778500      -0.03174300      -0.04041500
P        7.30692393       3.27359230       4.25481095       0.00000000 NULL      -0.11640500       0.26510000      -0.04041300
P        3.85824887       4.69118560       6.86984513       0.00000000 NULL      -0.17138200      -0.23336000      -0.04041200
P       -1.02258312       2.96446939       1.38355019       0.00000000 NULL      -0.17057500       0.00543100       0.09813200
P        3.11734823       6.59270898       3.99858438       0.00000000 NULL       0.08058400      -0.15043700       0.09813200
P       -2.09476510       8.36387490       6.61361856       0.00000000 NULL       0.08999400       0.14500900       0.09813600
P        6.64697038       0.92933963       0.12073028       0.00000000 NULL      -0.25736900       0.07411000       0.16480600
P        6.21840801       5.29177539       2.73576446       0.00000000 NULL       0.06450300      -0.25994300       0.16480600
P        2.65470901       2.73941161       5.35079865       0.00000000 NULL       0.19286600       0.18583200       0.16480600
P        5.39371701       7.17707693       1.84290273       0.00000000 NULL       0.10795900       0.04233000      -0.01012700
P        1.43433549       1.08255748       4.45793691       0.00000000 NULL      -0.09063800       0.07233000      -0.01012500
P        8.69203491       0.70089223       7.07297109       0.00000000 NULL      -0.01732200      -0.11466200      -0.01012300
P        7.24716132       4.59665735       6.06862523       0.00000000 NULL       0.57489500      -0.20978900       0.07281500
P        2.74232223       3.97789713       0.83855686       0.00000000 NULL      -0.10576400       0.60276600       0.07281100
P        5.53060385       0.38597216       3.45359104       0.00000000 NULL      -0.46913100      -0.39298100       0.07281400
P        8.40713241       0.85485393       4.84587449       0.00000000 NULL       0.19987200      -0.09069600       0.02357600
P        5.40283351       6.85336328       7.46090867       0.00000000 NULL      -0.02139100       0.21844300       0.02357800
P        1.71012148       1.25230943       2.23084030       0.00000000 NULL      -0.17848100      -0.12774900       0.02357500
P        6.34341544       6.21671202       4.81761344       0.00000000 NULL       0.03569000       0.08100500      -0.14347700
P        1.79118667       2.38520291       7.43264762       0.00000000 NULL      -0.08799600      -0.00959400      -0.14347600
P        7.38548529       0.35861171       2.20257925       0.00000000 NULL       0.05230800      -0.07141100      -0.14347800
P       -0.99558793       5.37278249       0.64894403       0.00000000 NULL       0.08208800      -0.02645100      -0.28990400
P        1.01819030       5.41193095       3.26397822       0.00000000 NULL      -0.01813700       0.08431600      -0.28990000
P       -0.02260237       7.13633983       5.87901240       0.00000000 NULL      -0.06395200      -0.05786500      -0.28990000
39
Lattice="10.37163898853671 9.339813257635262e-15 -5.853094513291825e-40 -5.185819494268362 8.982102842953926 4.820062296213833e-39 4.378849922214129e-40 -3.937363560368317e-39 7.798737665446282" Properties=species:S:1:pos:R:3:initial_magmoms:R:1:castep_labels:S:1:forces:R:3 n_minim_iter=3 energy=-207.420866411108 stress="0.0012016264102105239 1.3764176930510807e-08 0.0 1.3764176930510807e-08 0.0012016401743874545 0.0 0.0 0.0 -0.003124509455756745" free_energy=-207.420866411108 pbc="T T T"
P        2.31968073       6.19747583       6.02737140       0.00000000 NULL      -0.06459500      -0.01405200       0.06457300
P       -1.34119238       7.89226737       0.82821295       0.00000000 NULL       0.04446700      -0.04891400       0.06457100
P       -0.97848835       3.87446249       3.42779217       0.00000000 NULL       0.02012800       0.06296700       0.06457300
P        3.29000521       7.51759274       7.48936597       0.00000000 NULL       0.25756900       0.03056600      -0.03772200
P       -2.96960940       8.07253457       2.29020753       0.00000000 NULL      -0.15525300       0.20777900      -0.03772200
P       -0.32039581       2.37407838       4.88978675       0.00000000 NULL      -0.10231500      -0.23834400      -0.03772200
P       -0.37380183       7.17433416       3.66583429       0.00000000 NULL       0.19253700       0.12417300       0.11562400
P       -0.84043523       5.07121388       6.26541351       0.00000000 NULL      -0.20380400       0.10465500       0.11562700
P        1.21423707       5.71865765       1.06625507       0.00000000 NULL       0.01126800      -0.22882700       0.11562400
P        3.83174740       1.52435150       6.82878468       0.00000000 NULL       0.00053900      -0.09359000      -0.27415400
P        7.13563817       2.55621484       1.62962623       0.00000000 NULL       0.08077900       0.04726200      -0.27415500
P        4.59007292       4.90153651       4.22920545       0.00000000 NULL      -0.08132000       0.04632500      -0.27415400
P        9.91620069       0.81740973       1.61538299       0.00000000 NULL       0.24634000       0.12759000       0.22428400
P        4.70564105       8.17897684       4.21496221       0.00000000 NULL      -0.23366500       0.14954200       0.22428400
P        0.93561674      -0.01428373       6.81454144       0.00000000 NULL      -0.01267400      -0.27713100       0.22428500
P        4.36712160       0.99801216       1.62985011       0.00000000 NULL       0.26615300      -0.05300800      -0.07627400
P        7.32377430       3.28303217       4.22942933       0.00000000 NULL      -0.08717100       0.25699900      -0.07627300
P        3.86656258       4.70105852       6.82900855       0.00000000 NULL      -0.17898300      -0.20399300      -0.07627100
P       -1.02603464       2.97168413       1.37592342       0.00000000 NULL      -0.17597200      -0.04911300       0.01726800
P        3.12528287       6.60768871       3.97550265       0.00000000 NULL       0.13051900      -0.12783900       0.01726800
P       -2.09924822       8.38483285       6.57508187       0.00000000 NULL       0.04545600       0.17695400       0.01727100
P        6.66137195       0.93200965       0.12095442       0.00000000 NULL      -0.25074100       0.04899800       0.07431000
P        6.23380898       5.30291250       2.72053364       0.00000000 NULL       0.08293600      -0.24164700       0.07431000
P        2.66227756       2.74718069       5.32011286       0.00000000 NULL       0.16780400       0.19264800       0.07431000
P        5.40729870       7.19462236       1.83194274       0.00000000 NULL       0.14543600       0.04618900       0.07228300
P        1.43726390       1.08554686       4.43152197       0.00000000 NULL      -0.11271900       0.10285700       0.07228500
P        8.71289588       0.70193362       7.03110119       0.00000000 NULL      -0.03271800      -0.14904700       0.07228600
P        7.26805456       4.60645125       6.03325055       0.00000000 NULL       0.54505500      -0.14996500       0.12553400
P        2.74830791       3.99109426       0.83409210       0.00000000 NULL      -0.14265300       0.54701300       0.12553100
P        5.54109602       0.38455733       3.43367132       0.00000000 NULL      -0.40240200      -0.39704900       0.12553300
P        8.42850475       0.85635645       4.81736479       0.00000000 NULL       0.22456500      -0.07304400      -0.05802200
P        5.41576018       6.87112101       7.41694401       0.00000000 NULL      -0.04902400       0.23100200      -0.05802000
P        1.71319356       1.25462539       2.21778557       0.00000000 NULL      -0.17554200      -0.15795800      -0.05802200
P        6.35892385       6.23223450       4.78830654       0.00000000 NULL       0.04199200       0.06476000      -0.08089000
P        1.79490367       2.39087235       7.38788576       0.00000000 NULL      -0.07707900       0.00398700      -0.08088900
P        7.40363097       0.35899600       2.18872732       0.00000000 NULL       0.03508800      -0.06874700      -0.08089100
P       -0.99752790       5.38555941       0.64340626       0.00000000 NULL       0.08509900      -0.01377000      -0.16682000
P        1.02055219       5.42543863       3.24298548       0.00000000 NULL      -0.03062500       0.08058300      -0.16681700
P       -0.02302428       7.15320765       5.84256470       0.00000000 NULL      -0.05447500      -0.06681300      -0.16681700
39
Lattice="10.366052734144665 8.910003538628532e-15 -5.847829255729472e-40 -5.183026367072339 8.977265004738413 4.817845944653423e-39 4.401505087875413e-40 -3.955706766094453e-39 7.8360461705641615" Properties=species:S:1:pos:R:3:initial_magmoms:R:1:castep_labels:S:1:forces:R:3 n_minim_iter=4 energy=-207.552923784837 stress="-0.00015604492555197432 2.7426825828627178e-08 -0.0 2.7426825828627178e-08 -0.00015607235237780293 0.0 -0.0 0.0 -0.0008865172912587162" free_energy=-207.552923784837 pbc="T T T"
P        2.31430955       6.19454127       6.05824600       0.00000000 NULL       0.00565100       0.00009100       0.04104200
P       -1.33875851       7.88424524       0.83421522       0.00000000 NULL      -0.00290400       0.00484800       0.04104400
P       -0.97555104       3.87574351       3.44623061       0.00000000 NULL      -0.00274700      -0.00494000       0.04104300
P        3.30341000       7.51453723       7.52186429       0.00000000 NULL       0.00194000      -0.04392900      -0.07155500
P       -2.97645876       8.08083337       2.29783351       0.00000000 NULL       0.03707300       0.02364300      -0.07155500
P       -0.32695123       2.35915942       4.90984890       0.00000000 NULL      -0.03901500       0.02028300      -0.07155500
P       -0.36126006       7.17928918       3.69644033       0.00000000 NULL      -0.00211300      -0.06310300      -0.10368600
P       -0.85379041       5.07476003       6.30845572       0.00000000 NULL       0.05570400       0.02972100      -0.10368800
P        1.21505048       5.70048080       1.08442494       0.00000000 NULL      -0.05359300       0.03338200      -0.10368600
P        3.83050800       1.51874067       6.84267598       0.00000000 NULL      -0.00399900       0.05148500      -0.15486000
P        7.13553074       2.55794690       1.61864520       0.00000000 NULL      -0.04258700      -0.02920600      -0.15486000
P        4.58304037       4.90057744       4.23066059       0.00000000 NULL       0.04658700      -0.02228000      -0.15486000
P        9.92780573       0.82364373       1.63760632       0.00000000 NULL       0.01503900       0.07672100       0.15582800
P        4.68885348       8.18591010       4.24962171       0.00000000 NULL      -0.07396000      -0.02533600       0.15582700
P        0.93241990      -0.03228882       6.86163710       0.00000000 NULL       0.05892200      -0.05138500       0.15582800
P        4.38345764       0.99531705       1.63423618       0.00000000 NULL       0.26027100      -0.10126000      -0.11954900
P        7.31235407       3.29852715       4.24625157       0.00000000 NULL      -0.04244100       0.27603200      -0.11954900
P        3.85326740       4.68342081       6.85826696       0.00000000 NULL      -0.21782900      -0.17477100      -0.11955000
P       -1.03672478       2.96958595       1.38700867       0.00000000 NULL      -0.00051900      -0.04713900       0.05193300
P        3.12965189       6.59464203       3.99902406       0.00000000 NULL       0.04108200       0.02312200       0.05193300
P       -2.09292710       8.39030203       6.61103945       0.00000000 NULL      -0.04056400       0.02401800       0.05193200
P        6.64030040       0.93581023       0.13017599       0.00000000 NULL      -0.13090400       0.00631200       0.08528400
P        6.23546711       5.28276372       2.74219138       0.00000000 NULL       0.05998600      -0.11652200       0.08528400
P        2.67331160       2.75869106       5.35420677       0.00000000 NULL       0.07091800       0.11021000       0.08528300
P        5.41200439       7.19372998       1.84174735       0.00000000 NULL       0.08929000      -0.05553900       0.01133400
P        1.43009763       1.09006830       4.45376274       0.00000000 NULL       0.00345400       0.10509600       0.01133300
P        8.70697709       0.69346673       7.06577813       0.00000000 NULL      -0.09274300      -0.04955600       0.01133200
P        7.30180495       4.59115833       6.06851251       0.00000000 NULL       0.10401300       0.03816100      -0.04670200
P        2.73909052       4.02796941       0.84448173       0.00000000 NULL      -0.08505400       0.07099600      -0.04670100
P        5.50818364       0.35813726       3.45649712       0.00000000 NULL      -0.01895800      -0.10915700      -0.04670200
P        8.43730968       0.85013943       4.84013548       0.00000000 NULL      -0.05659400      -0.13487200       0.04823600
P        5.41115556       6.88185481       7.45215087       0.00000000 NULL       0.14510200       0.01842500       0.04823500
P        1.70061387       1.24527077       2.22812009       0.00000000 NULL      -0.08850800       0.11644900       0.04823600
P        6.35816927       6.23443759       4.80320110       0.00000000 NULL       0.08528400      -0.14441200       0.02986100
P        1.78778677       2.38911731       7.41521649       0.00000000 NULL       0.08242200       0.14606400       0.02986100
P        7.40312307       0.35371010       2.19118571       0.00000000 NULL      -0.16770600      -0.00165200       0.02986200
P       -0.99171320       5.38115871       0.63009927       0.00000000 NULL       0.00549000       0.01801900       0.07283600
P        1.01866283       5.42783682       3.24211466       0.00000000 NULL      -0.01835100      -0.00425500       0.07283400
P       -0.02694962       7.14553448       5.85413005       0.00000000 NULL       0.01286000      -0.01376500       0.07283400
39
Lattice="10.396166145032318 7.511118315594837e-15 -5.8631966627099e-40 -5.198083072516163 9.00334398356172 4.832166260460648e-39 4.416619661210916e-40 -3.967830124802621e-39 7.860765401503209" Properties=species:S:1:pos:R:3:initial_magmoms:R:1:castep_labels:S:1:forces:R:3 n_minim_iter=5 energy=-207.660441924209 stress="-0.0008318908095962888 -0.0 0.0 -0.0 -0.0008318772183858328 -0.0 0.0 -0.0 -0.0012099031460114892" free_energy=-207.660441924209 pbc="T T T"
P        2.32261390       6.21378519       6.08656131       0.00000000 NULL      -0.03538700      -0.05432500      -0.13015700
P       -1.34451970       7.90789403       0.84605104       0.00000000 NULL       0.06474100      -0.00348400      -0.13015400
P       -0.97809419       3.88500875       3.46630618       0.00000000 NULL      -0.02935300       0.05780900      -0.13015700
P        3.31733507       7.52561191       7.52633395       0.00000000 NULL       0.31944600      -0.02226700       0.14178100
P       -2.97795555       8.11343447       2.28582368       0.00000000 NULL      -0.14043800       0.28778300       0.14178200
P       -0.33937951       2.36764159       4.90607881       0.00000000 NULL      -0.17900600      -0.26551500       0.14178100
P       -0.35885351       7.18799516       3.69152721       0.00000000 NULL      -0.08704100      -0.14802800       0.20278900
P       -0.84747659       5.09857015       6.31178235       0.00000000 NULL       0.17171800      -0.00136600       0.20278600
P        1.20633010       5.72012266       1.07127208       0.00000000 NULL      -0.08467600       0.14939400       0.20278900
P        3.83970150       1.53479622       6.82188161       0.00000000 NULL       0.12314100      -0.12810400       0.11647600
P        7.14714288       2.55788093       1.58137135       0.00000000 NULL       0.04936900       0.17069600       0.11647700
P        4.60740484       4.91066683       4.20162648       0.00000000 NULL      -0.17251200      -0.04259100       0.11647700
P        9.96557400       0.84603831       1.68364491       0.00000000 NULL      -0.03566100      -0.09126900       0.09186700
P        4.68068848       8.20742109       4.30390004       0.00000000 NULL       0.09687200       0.01475100       0.09186800
P        0.94798675      -0.05011542       6.92415518       0.00000000 NULL      -0.06121000       0.07651800       0.09186700
P        4.46430080       0.97306043       1.61128074       0.00000000 NULL       0.08804100      -0.03170600      -0.22938700
P        7.32132070       3.37966769       4.23153587       0.00000000 NULL      -0.01656400       0.09209900      -0.22938800
P        3.80862773       4.65061587       6.85179100       0.00000000 NULL      -0.07147700      -0.06039200      -0.22939000
P       -1.04355108       2.96770466       1.40800696       0.00000000 NULL      -0.04942300      -0.02490300      -0.03231300
P        3.14975099       6.61574991       4.02826209       0.00000000 NULL       0.04627900      -0.03035100      -0.03231300
P       -2.10619990       8.42323340       6.64851723       0.00000000 NULL       0.00314500       0.05525500      -0.03231600
P        6.62436701       0.94228163       0.15669415       0.00000000 NULL      -0.12597100      -0.17346700      -0.17670900
P        6.26794282       5.26572930       2.77694929       0.00000000 NULL       0.21321200      -0.02236100      -0.17670900
P        2.70193940       2.79533306       5.39720442       0.00000000 NULL      -0.08724100       0.19582700      -0.17671000
P        5.45102312       7.20194247       1.84814792       0.00000000 NULL       0.07047100      -0.00985000       0.01589500
P        1.43358945       1.11975326       4.46840305       0.00000000 NULL      -0.02670500       0.06595600       0.01589300
P        8.70963665       0.68164825       7.08865818       0.00000000 NULL      -0.04376600      -0.05610600       0.01589200
P        7.35958239       4.60836695       6.07571262       0.00000000 NULL      -0.07273900       0.05020600       0.11041300
P        2.72541210       4.06940184       0.83520236       0.00000000 NULL      -0.00711100      -0.08809600       0.11041600
P        5.50925473       0.32557520       3.45545749       0.00000000 NULL       0.07984900       0.03789000       0.11041300
P        8.45272446       0.81851695       4.86939567       0.00000000 NULL       0.06711200       0.10741700       0.05552900
P        5.46094745       6.91101564       7.48965080       0.00000000 NULL      -0.12658300       0.00441200       0.05552600
P        1.68057732       1.27381140       2.24914053       0.00000000 NULL       0.05947000      -0.11183100       0.05553000
P        6.39713591       6.21895391       4.82085993       0.00000000 NULL       0.00930400       0.05521200       0.05580200
P        1.81182613       2.43060525       7.44111507       0.00000000 NULL      -0.05246800      -0.01954900       0.05580100
P        7.38528719       0.35378483       2.20060480       0.00000000 NULL       0.04316300      -0.03566400       0.05580200
P       -0.99120089       5.40028979       0.64045636       0.00000000 NULL      -0.03338400      -0.04452100      -0.22198000
P        1.01689538       5.44479393       3.26071149       0.00000000 NULL       0.05524800      -0.00665100      -0.22198400
P       -0.02569448       7.16160424       5.88096663       0.00000000 NULL      -0.02186400       0.05117200      -0.22198400
39
Lattice="10.40770685107246 8.508520265044221e-15 -5.869464065382667e-40 -5.203853425536235 9.013338528170092 4.837598224234608e-39 4.4187203639340326e-40 -3.969514100892906e-39 7.864199522610754" Properties=species:S:1:pos:R:3:initial_magmoms:R:1:castep_labels:S:1:forces:R:3 n_minim_iter=6 energy=-207.717552267261 stress="-0.0009075451538762756 2.7110322436261073e-08 -0.0 2.7110322436261073e-08 -0.0009075044883926213 0.0 -0.0 0.0 -0.0014100078699099384" free_energy=-207.717552267261 pbc="T T T"
P        2.32531508       6.21832403       6.08540502       0.00000000 NULL      -0.01436700       0.02981100      -0.05583500
P       -1.34403069       7.91795845       0.84260534       0.00000000 NULL      -0.01863400      -0.02734500      -0.05583800
P       -0.98128439       3.89039458       3.46400518       0.00000000 NULL       0.03300100      -0.00246300      -0.05583600
P        3.33899368       7.52812390       7.52956400       0.00000000 NULL       0.14986800      -0.05925500       0.10052400
P       -2.98518995       8.14092993       2.28676432       0.00000000 NULL      -0.02361400       0.15942100       0.10052400
P       -0.35380372       2.35762323       4.90816416       0.00000000 NULL      -0.12625500      -0.10016100       0.10052500
P       -0.36421518       7.18130723       3.69663346       0.00000000 NULL      -0.08425900      -0.05868100       0.10656600
P       -0.83323348       5.10726531       6.31803330       0.00000000 NULL       0.09295100      -0.04362900       0.10657000
P        1.19744866       5.73810451       1.07523362       0.00000000 NULL      -0.00869100       0.10231300       0.10656600
P        3.84899002       1.53471403       6.81686272       0.00000000 NULL       0.03618000      -0.05085500       0.09266100
P        7.15411051       2.56596612       1.57406304       0.00000000 NULL       0.02594800       0.05676100       0.09266100
P        4.60845975       4.91265838       4.19546288       0.00000000 NULL      -0.06213000      -0.00591000       0.09266100
P        9.97583758       0.84944565       1.70412378       0.00000000 NULL      -0.03233500      -0.11427800       0.06776400
P        4.68414655       8.21460594       4.32552362       0.00000000 NULL       0.11513600       0.02913700       0.06776400
P        0.95157615      -0.05071306       6.94692346       0.00000000 NULL      -0.08280000       0.08514300       0.06776500
P        4.49945737       0.96165732       1.58826839       0.00000000 NULL       0.02074700      -0.00714000      -0.17889400
P        7.32515850       3.41581572       4.20966823       0.00000000 NULL      -0.00419300       0.02153700      -0.17889300
P        3.78694441       4.63586549       6.83106807       0.00000000 NULL      -0.01655600      -0.01440100      -0.17889100