64
Lattice="11.996689999999997 -4.893528754118992e-31 -4.1003552212614245e-31 5.998344999999999 10.760689562306704 4.476263775052786e-13 5.9983450000000005 0.6258794707725677 10.742472468868696" Properties=species:S:1:pos:R:3:initial_magmoms:R:1:castep_labels:S:1 n_minim_iter=1 pbc="T T T"
P       10.02638663       4.34641490       5.21230028       0.00000000 NULL
P       13.96699337       5.45627897       4.03589104       0.00000000 NULL
P       13.96699337      10.03969942      10.58353651       0.00000000 NULL
P       22.02307663      11.14956349       9.40712728       0.00000000 NULL
P        4.24524290       0.55740879       1.35520802       0.00000000 NULL
P        7.75144710       1.38533460       0.47764148       0.00000000 NULL
P        7.75144710       6.25069331       6.72644425       0.00000000 NULL
P       16.24193290       7.07861912       5.84887771       0.00000000 NULL
P       11.59521297       7.77138431       4.52003065       0.00000000 NULL
P       12.39816703       4.96438954       7.49532705       0.00000000 NULL
P       18.39651203       2.70397926       9.89126688       0.00000000 NULL
P       17.59355797      10.03179459       2.12409082       0.00000000 NULL
P        4.36256872       6.68857770       0.14199185       0.00000000 NULL
P        7.63412128       0.53078262       6.66899566       0.00000000 NULL
P       13.63246628       1.62117265       5.51322808       0.00000000 NULL
P       10.36091372       5.59818767       1.29775942       0.00000000 NULL
P       18.25914033       4.65230145       8.13944678       0.00000000 NULL
P       17.73092967       8.39626145       4.17100663       0.00000000 NULL
P       11.73258467       9.71970650       2.76821055       0.00000000 NULL
P       12.26079533       3.32885641       9.54224287       0.00000000 NULL
P        9.84228182       3.20457485       7.02715077       0.00000000 NULL
P       14.15109818       7.20164362       2.79042597       0.00000000 NULL
P        8.15275318       8.27197990       1.65591454       0.00000000 NULL
P       15.84062682       2.13423857       8.16166221       0.00000000 NULL
P       11.81733708       9.58846822       7.65151401       0.00000000 NULL
P       12.17604292       8.19625950       9.12719670       0.00000000 NULL
P       12.17604292       3.89518370       2.28027778       0.00000000 NULL
P       11.81733708       2.50297498       3.75596047       0.00000000 NULL
P       14.56796096       3.36763540       6.01178516       0.00000000 NULL
P        9.42541904       6.19748113       3.01226770       0.00000000 NULL
P       15.42376404       8.43504045       0.64054893       0.00000000 NULL
P        8.56961596       1.13007608       8.38350394       0.00000000 NULL
P        8.83458806       7.88194164       8.40858331       0.00000000 NULL
P       15.15879194       8.85278956       7.37952534       0.00000000 NULL
P        3.16210194       2.18865712       3.03734708       0.00000000 NULL
P        8.83458806       3.15950504       2.00828911       0.00000000 NULL
P       12.32006438       0.82238217       8.28617821       0.00000000 NULL
P       11.67331562       8.31998293       0.33903672       0.00000000 NULL
P        5.67497062       5.88978722       2.91494198       0.00000000 NULL
P        6.32171938       3.25257788       5.71027296       0.00000000 NULL
P        6.60664317       3.56307756       2.12038681       0.00000000 NULL
P        5.39004683       2.32403824       3.43371638       0.00000000 NULL
P       17.38673683       9.25636208       7.49162304       0.00000000 NULL
P       18.60333317       8.01732276       8.80495261       0.00000000 NULL
P        5.16762581       1.30157309       6.90241455       0.00000000 NULL
P        6.82906419       6.96643331       0.89790096       0.00000000 NULL
P       12.82740919       6.36897814       1.53117832       0.00000000 NULL
P       11.16597081       1.89902826       6.26913719       0.00000000 NULL
P       17.23832939       9.93057110       0.14075325       0.00000000 NULL
P        6.75505061       0.71811184       9.90557263       0.00000000 NULL
P       12.75339561       4.86316605       5.51198948       0.00000000 NULL
P       11.23998439       5.78551688       4.53433640       0.00000000 NULL
P       14.55217632       6.96857000      10.74094059       0.00000000 NULL
P       21.43789368      11.12807342       6.33204189       0.00000000 NULL
P        9.44120368       1.27528548       5.36970436       0.00000000 NULL
P       14.55217632       5.43478891       0.96080566       0.00000000 NULL
P       15.88940176       6.46089877       2.08977936       0.00000000 NULL
P        8.10397824       2.46203006       6.32841202       0.00000000 NULL
P       14.10232324       1.39349372       7.46101559       0.00000000 NULL
P        9.89105676       7.52943511       0.95717578       0.00000000 NULL
P        9.93845268       2.22098508       9.36689028       0.00000000 NULL
P       14.05492732       9.48021308       1.67241389       0.00000000 NULL
P        8.05658232       7.28839013       3.99565405       0.00000000 NULL
P       15.93679768       4.41280804       7.04365013       0.00000000 NULL
64
Lattice="12.094625488572138 1.9074484481371848e-17 8.406467925094337e-19 6.047312744286069 10.825673010287963 0.009494623741360075 6.047312744286071 0.6391376861819429 10.806793663786648" Properties=species:S:1:pos:R:3:initial_magmoms:R:1:castep_labels:S:1 n_minim_iter=2 pbc="T T T"
P       10.10799731       4.37716264       5.24693569       0.00000000 NULL
P       14.08125367       5.49264414       4.06457221       0.00000000 NULL
P       14.08125367      10.10956798      10.65507983       0.00000000 NULL
P       22.20262279      11.22504949       9.47271635       0.00000000 NULL
P        4.27990425       0.56205215       1.36389940       0.00000000 NULL
P        7.81472123       1.39428134       0.48177145       0.00000000 NULL
P        7.81472123       6.29445750       6.77204354       0.00000000 NULL
P       16.37452974       7.12668669       5.88991560       0.00000000 NULL
P       11.68991421       7.82260069       4.55374242       0.00000000 NULL
P       12.49933676       5.00102317       7.54449593       0.00000000 NULL
P       18.54664951       2.72933303       9.95239194       0.00000000 NULL
P       17.73722696      10.09429083       2.14584641       0.00000000 NULL
P        4.39830298       6.72893890       0.14828925       0.00000000 NULL
P        7.69632251       0.53941692       6.70892226       0.00000000 NULL
P       13.74363525       1.63567124       5.54693877       0.00000000 NULL
P       10.44561572       5.63268458       1.31027274       0.00000000 NULL
P       18.40826370       4.68756948       8.19173665       0.00000000 NULL
P       17.87561276       8.45051411       4.20317359       0.00000000 NULL
P       11.82830002       9.78083714       2.79308713       0.00000000 NULL
P       12.36095096       3.35724645       9.60182311       0.00000000 NULL
P        9.92283056       3.23056660       7.07215956       0.00000000 NULL
P       14.26642042       7.24808798       2.81375586       0.00000000 NULL
P        8.21910767       8.32383427       1.67351004       0.00000000 NULL
P       15.97014331       2.15482032       8.21240538       0.00000000 NULL
P       11.91372036       9.65317305       7.70532003       0.00000000 NULL
P       12.27553062       8.25373789       9.18866244       0.00000000 NULL
P       12.27553062       3.92076770       2.29717589       0.00000000 NULL
P       11.91372036       2.52133255       3.78051830       0.00000000 NULL
P       14.68675505       3.39349545       6.05024429       0.00000000 NULL
P        9.50249593       6.23737926       3.03584705       0.00000000 NULL
P       15.54980867       8.48676311       0.65159477       0.00000000 NULL
P        8.63944230       1.14411160       8.43449657       0.00000000 NULL
P        8.90651959       7.93686498       8.46531568       0.00000000 NULL
P       15.28273139       8.91262042       7.43105595       0.00000000 NULL
P        3.18810590       2.20445963       3.05717153       0.00000000 NULL
P        8.90651959       3.18021507       2.02291180       0.00000000 NULL
P       12.42036293       0.83469111       8.33618195       0.00000000 NULL
P       11.76888804       8.37061795       0.34841644       0.00000000 NULL
P        5.72157530       5.92795877       2.93753243       0.00000000 NULL
P        6.37305019       3.27735029       5.74706596       0.00000000 NULL
P        6.66055648       3.58651901       2.13607479       0.00000000 NULL
P        5.43406901       2.34106310       3.45620567       0.00000000 NULL
P       17.52869449       9.31892435       7.54421893       0.00000000 NULL
P       18.75518197       8.07346845       8.86434981       0.00000000 NULL
P        5.21022074       1.31559679       6.94431640       0.00000000 NULL
P        6.88440475       7.00907989       0.90946376       0.00000000 NULL
P       12.93171749       6.40886445       1.54566688       0.00000000 NULL
P       11.25753348       1.91581223       6.30811328       0.00000000 NULL
P       17.37891454       9.99041976       0.15055996       0.00000000 NULL
P        6.81033644       0.73138296       9.96474958       0.00000000 NULL
P       12.85764918       4.89715210       5.54920948       0.00000000 NULL
P       11.33160179       5.82465062       4.56610006       0.00000000 NULL
P       14.67097729       7.01977162      10.81045924       0.00000000 NULL
P       21.61289917      11.20045244       6.37911339       0.00000000 NULL
P        9.51827368       1.28736627       5.40231509       0.00000000 NULL
P       14.67097729       5.46804710       0.97096924       0.00000000 NULL
P       16.01942680       6.50168864       2.10814684       0.00000000 NULL
P        8.16982418       2.48273893       6.36806452       0.00000000 NULL
P       14.21713692       1.40842098       7.50679636       0.00000000 NULL
P        9.97211405       7.57600659       0.96941500       0.00000000 NULL
P       10.01981534       2.24284558       9.42461617       0.00000000 NULL
P       14.16943563       9.53911273       1.69087984       0.00000000 NULL
P        8.12212289       7.33611324       4.02596665       0.00000000 NULL
P       16.06712809       4.44584506       7.08952936       0.00000000 NULL
64
Lattice="12.531678527303661 -2.493626699991778e-17 -8.943257606804188e-17 6.265839263651831 11.112034363782122 0.06677042218502148 6.2658392636518325 0.7129723020481128 11.089338866121178" Properties=species:S:1:pos:R:3:initial_magmoms:R:1:castep_labels:S:1 n_minim_iter=3 pbc="T T T"
P       10.47202354       4.52006288       5.40479554       0.00000000 NULL
P       14.59133352       5.65854832       4.19804885       0.00000000 NULL
P       14.59133352      10.43256621      10.98285018       0.00000000 NULL
P       23.00370207      11.57105165       9.77610349       0.00000000 NULL
P        4.43461782       0.58455147       1.40296765       0.00000000 NULL
P        8.09706071       1.43459210       0.50196034       0.00000000 NULL
P        8.09706071       6.49705480       6.98102230       0.00000000 NULL
P       16.96629635       7.34709543       6.08001498       0.00000000 NULL
P       12.11254811       8.05499005       4.71269121       0.00000000 NULL
P       12.95080894       5.17321945       7.76724686       0.00000000 NULL
P       19.21664820       2.85545902      10.22397544       0.00000000 NULL
P       18.37838738      10.37275048       2.25596263       0.00000000 NULL
P        4.55777659       6.90689697       0.18531909       0.00000000 NULL
P        7.97390194       0.58673473       6.88442526       0.00000000 NULL
P       14.23974120       1.70736593       5.69660331       0.00000000 NULL
P       10.82361585       5.78626576       1.37314104       0.00000000 NULL
P       19.07381452       4.85463791       8.42730237       0.00000000 NULL
P       18.52122106       8.69539832       4.35625786       0.00000000 NULL
P       12.25538180      10.05416894       2.91601815       0.00000000 NULL
P       12.80797525       3.49586729       9.86754208       0.00000000 NULL
P       10.28243890       3.35551557       7.27426902       0.00000000 NULL
P       14.78091816       7.45712276       2.92673789       0.00000000 NULL
P        8.51507889       8.55504660       1.76298480       0.00000000 NULL
P       16.54827816       2.25759173       8.43802211       0.00000000 NULL
P       12.34379072       9.94928225       7.95490740       0.00000000 NULL
P       12.71956633       8.52012547       9.46975348       0.00000000 NULL
P       12.71956633       4.03677892       2.37685275       0.00000000 NULL
P       12.34379072       2.60762214       3.89169883       0.00000000 NULL
P       15.21680187       3.51624982       6.22341112       0.00000000 NULL
P        9.84655518       6.41739275       3.14832162       0.00000000 NULL
P       16.11239444       8.71578085       0.71212689       0.00000000 NULL
P        8.95096261       1.21786172       8.65960584       0.00000000 NULL
P        9.22723196       8.19084439       8.72506757       0.00000000 NULL
P       15.83612509       9.18670490       7.66949731       0.00000000 NULL
P        3.30444656       2.27834105       3.14701292       0.00000000 NULL
P        9.22723196       3.27420157       2.09144266       0.00000000 NULL
P       12.86776542       0.90089237       8.55634762       0.00000000 NULL
P       12.19559163       8.59426139       0.40170001       0.00000000 NULL
P        5.92975237       6.10042340       3.04506340       0.00000000 NULL
P        6.60192616       3.39473036       5.91298423       0.00000000 NULL
P        6.90114487       3.69288544       2.20996113       0.00000000 NULL
P        5.63053366       2.42101100       3.55809455       0.00000000 NULL
P       18.16221219       9.60538878       7.78801577       0.00000000 NULL
P       19.43282340       8.33351433       9.13614919       0.00000000 NULL
P        5.40051653       1.38737974       7.12952298       0.00000000 NULL
P        7.13116200       7.19814808       0.97035292       0.00000000 NULL
P       13.39700126       6.58691077       1.61823876       0.00000000 NULL
P       11.66635579       1.99861705       6.48163714       0.00000000 NULL
P       18.00620001      10.25421278       0.20812698       0.00000000 NULL
P        7.05715705       0.80419564      10.22474771       0.00000000 NULL
P       13.32299631       5.05468175       5.71941120       0.00000000 NULL
P       11.74036074       6.00372667       4.71346349       0.00000000 NULL
P       15.20114354       7.26055510      11.12475368       0.00000000 NULL
P       22.39389204      11.52821962       6.60120876       0.00000000 NULL
P        9.86221352       1.34805176       5.54669903       0.00000000 NULL
P       15.20114354       5.61571628       1.02315412       0.00000000 NULL
P       16.59988759       6.68436630       2.19817547       0.00000000 NULL
P        8.46346947       2.58324032       6.54519653       0.00000000 NULL
P       14.72930873       1.48483527       7.70945969       0.00000000 NULL
P       10.33404832       7.78277135       1.03391231       0.00000000 NULL
P       10.38305765       2.35273570       9.68068132       0.00000000 NULL
P       14.68029941       9.80113597       1.78569028       0.00000000 NULL
P        8.41446014       7.55226674       4.16939710       0.00000000 NULL
P       16.64889691       4.60160494       7.29697450       0.00000000 NULL
64
Lattice="12.594071633937522 -6.172454774009952e-17 -1.2249198184788346e-16 6.297035816968761 11.153854951964066 0.1536578594215905 6.297035816968763 0.8021450771241925 11.12603497668692" Properties=species:S:1:pos:R:3:initial_magmoms:R:1:castep_labels:S:1 n_minim_iter=4 pbc="T T T"
P       10.52310755       4.57864345       5.45452644       0.00000000 NULL
P       14.66503571       5.71160229       4.25363772       0.00000000 NULL
P       14.66503571      10.55664346      11.09437286       0.00000000 NULL
P       23.11717919      11.68960230       9.89348414       0.00000000 NULL
P        4.45684963       0.59813841       1.41253239       0.00000000 NULL
P        8.13722200       1.44493090       0.51496796       0.00000000 NULL
P        8.13722200       6.57613843       7.05237881       0.00000000 NULL
P       17.05092126       7.42293092       6.15481438       0.00000000 NULL
P       12.17297421       8.12290045       4.78875642       0.00000000 NULL
P       13.01516906       5.25310579       7.83061806       0.00000000 NULL
P       19.31220488       2.94704551      10.27494498       0.00000000 NULL
P       18.47001003      10.42896073       2.34442950       0.00000000 NULL
P        4.58052147       6.93346146       0.23807213       0.00000000 NULL
P        8.01355017       0.64094355       6.90787649       0.00000000 NULL
P       14.31058598       1.75760653       5.72426069       0.00000000 NULL
P       10.87755728       5.81679849       1.42168793       0.00000000 NULL
P       19.16911745       4.93834090       8.48789036       0.00000000 NULL
P       18.61309745       8.76075220       4.43629514       0.00000000 NULL
P       12.31606163      10.11419584       3.00170180       0.00000000 NULL
P       12.87208164       3.58489726       9.92248370       0.00000000 NULL
P       10.33450656       3.42649677       7.32278440       0.00000000 NULL
P       14.85363670       7.50968452       2.99477711       0.00000000 NULL
P        8.55660089       8.60235171       1.83659584       0.00000000 NULL
P       16.63154238       2.33382959       8.48096566       0.00000000 NULL
P       12.40494842      10.04836152       8.05483171       0.00000000 NULL
P       12.78319484       8.62564342       9.56285306       0.00000000 NULL
P       12.78319484       4.07036150       2.41498530       0.00000000 NULL
P       12.40494842       2.64764341       3.92300664       0.00000000 NULL
P       15.29204852       3.57885895       6.26752057       0.00000000 NULL
P        9.89609475       6.46506910       3.20825919       0.00000000 NULL
P       16.19313057       8.75471388       0.78133202       0.00000000 NULL
P        8.99501270       1.28921416       8.69444775       0.00000000 NULL
P        9.27155859       8.28877624       8.81264596       0.00000000 NULL
P       15.91658468       9.27983108       7.76216950       0.00000000 NULL
P        3.32251305       2.31077623       3.17279954       0.00000000 NULL
P        9.27155859       3.30183107       2.12232308       0.00000000 NULL
P       12.93070455       0.97133536       8.58753209       0.00000000 NULL
P       12.25743871       8.62949028       0.47020995       0.00000000 NULL
P        5.96040290       6.14719030       3.10134354       0.00000000 NULL
P        6.63366874       3.45363534       5.95639851       0.00000000 NULL
P        6.93547911       3.72401699       2.24497182       0.00000000 NULL
P        5.65859252       2.45777314       3.58713705       0.00000000 NULL
P       18.25266415       9.70201701       7.88481824       0.00000000 NULL
P       19.52955075       8.43577316       9.22698347       0.00000000 NULL
P        5.42863190       1.44864541       7.15948972       0.00000000 NULL
P        7.16543974       7.23162751       1.02977190       0.00000000 NULL
P       13.46247555       6.62450035       1.67330116       0.00000000 NULL
P       11.72566771       2.05577257       6.51596046       0.00000000 NULL
P       18.09527509      10.29310138       0.28951159       0.00000000 NULL
P        7.09286818       0.88770437      10.25883687       0.00000000 NULL
P       13.38990399       5.11724644       5.77570015       0.00000000 NULL
P       11.79823927       6.06355931       4.77264831       0.00000000 NULL
P       15.27685388       7.37297158      11.21125484       0.00000000 NULL
P       22.50536102      11.62111288       6.70840372       0.00000000 NULL
P        9.91128938       1.39497157       5.57140843       0.00000000 NULL
P       15.27685388       5.64311287       1.06855731       0.00000000 NULL
P       16.68368852       6.72598602       2.25746081       0.00000000 NULL
P        8.50445475       2.64484605       6.58329755       0.00000000 NULL
P       14.80149057       1.55013109       7.74364937       0.00000000 NULL
P       10.38665270       7.82070098       1.09710899       0.00000000 NULL
P       10.43562282       2.43770827       9.72658097       0.00000000 NULL
P       14.75252045       9.85190022       1.86784932       0.00000000 NULL
P        8.45548463       7.61356321       4.24039241       0.00000000 NULL
P       16.73265864       4.67604528       7.35403787       0.00000000 NULL
64
Lattice="12.592526461499725 -2.940707293953139e-17 -9.586624419136201e-17 6.2962632307498625 11.17340410215176 0.2704328488812916 6.296263230749864 0.9198594218938655 11.13875898831144" Properties=species:S:1:pos:R:3:initial_magmoms:R:1:castep_labels:S:1 n_minim_iter=5 pbc="T T T"
P       10.52029969       4.64257967       5.50349695       0.00000000 NULL
P       14.66475323       5.76420865       4.31461740       0.00000000 NULL
P       14.66475323      10.68921143      11.20809287       0.00000000 NULL
P       23.11282615      11.81084041      10.01921332       0.00000000 NULL
P        4.45654927       0.61451069       1.42081813       0.00000000 NULL
P        8.13597720       1.45415489       0.53083059       0.00000000 NULL
P        8.13597720       6.66114245       7.12541405       0.00000000 NULL
P       17.04907573       7.50078665       6.23542651       0.00000000 NULL
P       12.17163615       8.18772507       4.87562496       0.00000000 NULL
P       13.01341677       5.34359770       7.89028036       0.00000000 NULL
P       19.30968000       3.06095273      10.30978803       0.00000000 NULL
P       18.46789938      10.47037004       2.45611729       0.00000000 NULL
P        4.57991026       6.94638476       0.30843920       0.00000000 NULL
P        8.01261620       0.71194315       6.91668511       0.00000000 NULL
P       14.30887943       1.81961242       5.74260227       0.00000000 NULL
P       10.87617349       5.83871549       1.48252204       0.00000000 NULL
P       19.16724581       5.03495163       8.54156069       0.00000000 NULL
P       18.61033357       8.81995088       4.52962066       0.00000000 NULL
P       12.31407034      10.16172397       3.10739762       0.00000000 NULL
P       12.87098258       3.69317854       9.96378373       0.00000000 NULL
P       10.33444342       3.51087294       7.36408531       0.00000000 NULL
P       14.85060950       7.55582312       3.07660823       0.00000000 NULL
P        8.55434627       8.63764528       1.92992224       0.00000000 NULL
P       16.63070665       2.42905078       8.51077130       0.00000000 NULL
P       12.40302679      10.14886293       8.16300034       0.00000000 NULL
P       12.78202613       8.73947445       9.65689287       0.00000000 NULL
P       12.78202613       4.10223117       2.45840442       0.00000000 NULL
P       12.40302679       2.69284268       3.95229695       0.00000000 NULL
P       15.28949239       3.65148975       6.30637100       0.00000000 NULL
P        9.89556053       6.50807822       3.27850735       0.00000000 NULL
P       16.19182376       8.77826209       0.87220793       0.00000000 NULL
P        8.99322916       1.38130588       8.71267042       0.00000000 NULL
P        9.26810749       8.39350429       8.90164893       0.00000000 NULL
P       15.91694543       9.37477473       7.86154353       0.00000000 NULL
P        3.32441897       2.34687253       3.19705301       0.00000000 NULL
P        9.26810749       3.32814297       2.15694761       0.00000000 NULL
P       12.92758813       1.06320683       8.60115830       0.00000000 NULL
P       12.25746479       8.64843698       0.56113334       0.00000000 NULL
P        5.96120156       6.18997917       3.16699523       0.00000000 NULL
P        6.63132490       3.52166464       5.99529641       0.00000000 NULL
P        6.93461762       3.75375080       2.28482293       0.00000000 NULL
P        5.65790885       2.49928621       3.61450264       0.00000000 NULL
P       18.25043531       9.80038256       7.98941885       0.00000000 NULL
P       19.52714408       8.54591798       9.31909856       0.00000000 NULL
P        5.42940877       1.52660980       7.17633651       0.00000000 NULL
P        7.16311769       7.25298046       1.10662444       0.00000000 NULL
P       13.45938092       6.65338215       1.74217344       0.00000000 NULL
P       11.72567200       2.12620812       6.54078751       0.00000000 NULL
P       18.09228413      10.31156209       0.39845853       0.00000000 NULL
P        7.09276879       0.99754062      10.27092959       0.00000000 NULL
P       13.38903202       5.18478975       5.83262160       0.00000000 NULL
P       11.79602090       6.12431296       4.83676652       0.00000000 NULL
P       15.27506206       7.50038588      11.29102362       0.00000000 NULL
P       22.50251732      11.70815748       6.83096269       0.00000000 NULL
P        9.90999086       1.45375412       5.58642770       0.00000000 NULL
P       15.27506206       5.66152572       1.12636677       0.00000000 NULL
P       16.68299993       6.75992351       2.32998972       0.00000000 NULL
P        8.50205299       2.71922609       6.61295905       0.00000000 NULL
P       14.79831622       1.63315117       7.76415279       0.00000000 NULL
P       10.38673670       7.84599843       1.17879598       0.00000000 NULL
P       10.43546864       2.54431619       9.75633368       0.00000000 NULL
P       14.74958428       9.88780326       1.97254623       0.00000000 NULL
P        8.45332105       7.67108853       4.32217061       0.00000000 NULL
P       16.73173187       4.76103092       7.40670930       0.00000000 NULL
64
Lattice="12.49301019909102 3.815899149389219e-17 -5.257994799198136e-17 6.24650509954551 11.259249942352284 0.6184204145341593 6.246505099545511 1.2722509643327504 11.204219319400476" Properties=species:S:1:pos:R:3:initial_magmoms:R:1:castep_labels:S:1 n_minim_iter=6 pbc="T T T"
P       10.43184331       4.84401745       5.66194207       0.00000000 NULL
P       14.55417709       5.93410186       4.50649844       0.00000000 NULL
P       14.55417709      11.10976790      11.57326194       0.00000000 NULL
P       22.92485351      12.19985232      10.41781831       0.00000000 NULL
P        4.42220896       0.66495540       1.44939454       0.00000000 NULL
P        8.07080124       1.48561696       0.57952779       0.00000000 NULL
P        8.07080124       6.93070585       7.36071441       0.00000000 NULL
P       16.91521916       7.75136741       6.49084766       0.00000000 NULL
P       12.07599176       8.40149846       5.14640842       0.00000000 NULL
P       12.91002864       5.62635655       8.08794213       0.00000000 NULL
P       19.15653374       3.40799897      10.43930787       0.00000000 NULL
P       18.32249686      10.61985604       2.79504268       0.00000000 NULL
P        4.54332132       7.00162724       0.51734567       0.00000000 NULL
P        7.94968888       0.92370905       6.95968333       0.00000000 NULL
P       14.19619398       2.00812775       5.81024512       0.00000000 NULL
P       10.78982642       5.91720854       1.66678388       0.00000000 NULL
P       19.01739586       5.33450597       8.72205006       0.00000000 NULL
P       18.46163474       9.01755783       4.81816998       0.00000000 NULL
P       12.21512964      10.32800546       3.42915061       0.00000000 NULL
P       12.77089076       4.02405835      10.11106943       0.00000000 NULL
P       10.25680311       3.77107339       7.50638181       0.00000000 NULL
P       14.72921728       7.71301290       3.32809172       0.00000000 NULL
P        8.48271219       8.76457288       2.21348236       0.00000000 NULL
P       16.50330821       2.71951341       8.62099117       0.00000000 NULL
P       12.30362697      10.47310214       8.50443276       0.00000000 NULL
P       12.68239343       9.09918773       9.96072425       0.00000000 NULL
P       12.68239343       4.20735169       2.59311289       0.00000000 NULL
P       12.30362697       2.83343728       4.04940439       0.00000000 NULL
P       15.16646778       3.87667857       6.43744231       0.00000000 NULL
P        9.81955261       6.65202541       3.49569138       0.00000000 NULL
P       16.06605771       8.87017806       1.14454286       0.00000000 NULL
P        8.91996268       1.65852592       8.78859083       0.00000000 NULL
P        9.18729100       8.72542986       9.18797674       0.00000000 NULL
P       15.79872940       9.67992376       8.17625334       0.00000000 NULL
P        3.30571920       2.45967941       3.27665687       0.00000000 NULL
P        9.18729100       3.41417331       2.26493348       0.00000000 NULL
P       12.82032204       1.33908659       8.66301023       0.00000000 NULL
P       12.16569836       8.72623034       0.83294853       0.00000000 NULL
P        5.91919326       6.33258608       3.37011078       0.00000000 NULL
P        6.57381694       3.73273085       6.12584798       0.00000000 NULL
P        6.87982407       3.85177751       2.40896052       0.00000000 NULL
P        5.61318613       2.62891522       3.70514312       0.00000000 NULL
P       18.10619633      10.11752796       8.32028039       0.00000000 NULL
P       19.37283426       8.89466567       9.61646298       0.00000000 NULL
P        5.39062889       1.76269159       7.24436549       0.00000000 NULL
P        7.10238131       7.33462562       1.33834975       0.00000000 NULL
P       13.34888641       6.75619107       1.95146604       0.00000000 NULL
P       11.63713398       2.34112613       6.63124920       0.00000000 NULL
P       17.94678552      10.39167375       0.72414712       0.00000000 NULL
P        7.03923488       1.32733741      10.33196243       0.00000000 NULL
P       13.28573998       5.39817426       6.01704657       0.00000000 NULL
P       11.70028042       6.32083690       5.03906298       0.00000000 NULL