48
Lattice="8.420431133097889 0.30180219220561294 0.27494075993345135 3.6216945311987336 12.89005506317673 1.6707130856558698 3.6216945311987274 2.861573839406665 12.678966712943657" Properties=species:S:1:pos:R:3:initial_magmoms:R:1:castep_labels:S:1:forces:R:3 n_minim_iter=1 energy=-252.214259628627 stress="-0.00018009014971132948 -0.0005665510377128584 -0.0005161133138460263 -0.0005665510377128584 0.0015351349542272366 0.0010280862743219672 -0.0005161133138460263 0.0010280862743219672 0.0013432021761264712" free_energy=-252.214259628627 pbc="T T T"
P        9.72834186       7.24459748       6.73835389       0.00000000 NULL       0.05147400      -0.11007700      -0.23674600
P       10.14569391       8.82178401       8.17516540       0.00000000 NULL      -0.05147400       0.24595200       0.08759600
P        5.93547834       8.80883361       7.88626668       0.00000000 NULL      -0.05147400       0.11007700       0.23674600
P        5.51812629       7.23164708       6.44945517       0.00000000 NULL       0.05147400      -0.24595200      -0.08759600
P       11.30865638       8.09674772      12.56273271       0.00000000 NULL       0.18679300       0.08622000      -0.02708900
P        8.56537938       2.94341375       7.86806318       0.00000000 NULL      -0.18679400       0.01896000      -0.08836500
P        4.35516382       7.95668338       2.06188785       0.00000000 NULL      -0.18679400      -0.08622000       0.02708900
P        7.09844081      13.11001735       6.75655739       0.00000000 NULL       0.18679400      -0.01896000       0.08836500
P        9.46192919      13.83065661       9.45231967       0.00000000 NULL      -0.03182500       0.09936800       0.01646500
P        1.99167544       5.20560959       1.59493147       0.00000000 NULL       0.03182500      -0.02563000      -0.09741000
P        6.20189101       2.22277448       5.17230090       0.00000000 NULL       0.03182500      -0.09936800      -0.01646500
P       13.67214476      10.84782150      13.02968909       0.00000000 NULL      -0.03182500       0.02563000       0.09741000
P        9.04043877      13.41708802       5.64704145       0.00000000 NULL      -0.17842700       0.19113800       0.05389200
P       10.83359699       9.33465714       1.92796095       0.00000000 NULL       0.17842600      -0.07142700      -0.18530400
P        6.62338142       2.63634308       8.97757912       0.00000000 NULL       0.17842700      -0.19113800      -0.05389200
P        4.83022321       6.71877396      12.69665962       0.00000000 NULL      -0.17842600       0.07142700       0.18530400
P        8.76734903       5.50387713      12.58934830       0.00000000 NULL       0.17487700      -0.11181100       0.02837900
P       11.10668674       3.15791317      10.45218319       0.00000000 NULL      -0.17487600      -0.01786200       0.11396700
P        6.89647117      10.54955396       2.03527227       0.00000000 NULL      -0.17487700       0.11181100      -0.02837900
P        4.55713346      12.89551792       4.17243737       0.00000000 NULL       0.17487600       0.01786200      -0.11396700
P        7.10413385       8.32106084       3.51167773       0.00000000 NULL       0.02518500      -0.03474800      -0.17354400
P        4.34947078      11.63263572       6.52851105       0.00000000 NULL      -0.02518700       0.17602200       0.01846900
P        8.55968635       7.73237025      11.11294284       0.00000000 NULL      -0.02518500       0.03474800       0.17354400
P       11.31434942       4.42079538       8.09610951       0.00000000 NULL       0.02518700      -0.17602200      -0.01846900
P        6.59708870       2.58550776       1.65523085       0.00000000 NULL      -0.05685400       0.13362300       0.25922100
P       13.27694706      14.31595132      12.34162462       0.00000000 NULL       0.05685200      -0.27052000      -0.10895000
P        9.06673150      13.46792334      12.96938971       0.00000000 NULL       0.05685400      -0.13362300      -0.25922100
P        2.38687313       1.73747978       2.28299594       0.00000000 NULL      -0.05685200       0.27052000       0.10895000
P        5.04525894       2.66562734       3.29852369       0.00000000 NULL       0.17708900      -0.22133400      -0.04455800
P        6.40834569      12.37052314      12.13965041       0.00000000 NULL      -0.17708800       0.06493900       0.21623400
P       10.61856126      13.38780375      11.32609687       0.00000000 NULL      -0.17708900       0.22133400       0.04455800
P        9.25547451       3.68290796       2.48497016       0.00000000 NULL       0.17708800      -0.06493900      -0.21623400
P        6.18037919      11.65956971       5.30225914       0.00000000 NULL      -0.17068200      -0.15145000       0.02133800
P        5.27322545       9.53950093       3.37088377       0.00000000 NULL       0.17068500      -0.00717000       0.15277700
P        9.48344101       4.39386139       9.32236142       0.00000000 NULL       0.17068300       0.15145000      -0.02133800
P       10.39059475       6.51393017      11.25373679       0.00000000 NULL      -0.17068500       0.00717000      -0.15277700
P        7.52108201       8.49383560       1.30622398       0.00000000 NULL       0.34858100      -0.19707300      -0.03822800
P       12.35295376      14.11428544       6.42643446       0.00000000 NULL      -0.34858300       0.05637900       0.19266800
P        8.14273819       7.55959549      13.31839658       0.00000000 NULL      -0.34858100       0.19707300       0.03822800
P        3.31086644       1.93914566       8.19818610       0.00000000 NULL       0.34858300      -0.05637900      -0.19266800
P        6.51551517       4.87992509       1.75435292       0.00000000 NULL       0.06524300      -0.05104400      -0.16583800
P       13.35852060      14.00399892      10.06635282       0.00000000 NULL      -0.06524400       0.16986000       0.03540900
P        9.14830503      11.17350601      12.87026765       0.00000000 NULL      -0.06524300       0.05104400       0.16583800
P        2.30529960       2.04943218       4.55826774       0.00000000 NULL       0.06524400      -0.16986000      -0.03540900
P       11.01894750       8.94315313       6.16522421       0.00000000 NULL       0.02320600      -0.04935700      -0.10385400
P        8.85508826       9.23455682       6.43069198       0.00000000 NULL      -0.02320600       0.10799200       0.03949100
P        4.64487270       7.11027797       8.45939635       0.00000000 NULL      -0.02320700       0.04935700       0.10385500
P        6.80873194       6.81887427       8.19392859       0.00000000 NULL       0.02320600      -0.10799200      -0.03949100
48
Lattice="8.425121901684863 0.3120607036141079 0.2842862285724467 3.6441795212076062 12.840486796246276 1.6360198169316404 3.6441795212076 2.822423529672127 12.632837663214122" Properties=species:S:1:pos:R:3:initial_magmoms:R:1:castep_labels:S:1:forces:R:3 n_minim_iter=2 energy=-252.229807790923 stress="-0.0013721096889832431 -0.0003037781970800526 -0.000276756276171244 -0.0003037781970800526 -0.001038673286027669 0.00033546726201423403 -0.000276756276171244 0.00033546726201423403 -0.001101292717606193" free_energy=-252.229807790923 pbc="T T T"
P        9.75226399       7.21245570       6.70866369       0.00000000 NULL       0.06631500      -0.28757700      -0.32041300
P       10.17377790       8.78100236       8.13760430       0.00000000 NULL      -0.06631500       0.34575500       0.25655100
P        5.96121695       8.76251533       7.84448003       0.00000000 NULL      -0.06631500       0.28757700       0.32041300
P        5.53970304       7.19396867       6.41553941       0.00000000 NULL       0.06631500      -0.34575500      -0.25655100
P       11.34246578       8.04868942      12.51335842       0.00000000 NULL       0.20191100       0.15584900      -0.02174900
P        8.58357612       2.92371038       7.84452012       0.00000000 NULL      -0.20191200       0.00716900      -0.15719500
P        4.37101517       7.92628161       2.03978530       0.00000000 NULL      -0.20191100      -0.15584900       0.02174900
P        7.12990483      13.05126065       6.70862360       0.00000000 NULL       0.20191200      -0.00716900       0.15719500
P        9.49864732      13.76566685       9.39623988       0.00000000 NULL      -0.05517300       0.04292000      -0.04867700
P        2.00227268       5.18389791       1.57827786       0.00000000 NULL       0.05517100       0.04447400      -0.04726000
P        6.21483363       2.20930418       5.15690384       0.00000000 NULL       0.05517300      -0.04292000       0.04867700
P       13.71120827      10.79107312      12.97486585       0.00000000 NULL      -0.05517100      -0.04447400       0.04726000
P        9.07107423      13.36324457       5.60458785       0.00000000 NULL      -0.16644400       0.07868600      -0.00319300
P       10.85496767       9.30860075       1.91082126       0.00000000 NULL       0.16644400      -0.00413500      -0.07864700
P        6.64240672       2.61172646       8.94855587       0.00000000 NULL       0.16644400      -0.07868600       0.00319300
P        4.85851328       6.66637029      12.64232246       0.00000000 NULL      -0.16644400       0.00413500       0.07864700
P        8.79625082       5.46183867      12.54343498       0.00000000 NULL       0.16830800      -0.21543900      -0.00728400
P       11.12979108       3.13420427      10.42296805       0.00000000 NULL      -0.16830700       0.02727800       0.21382900
P        6.91723013      10.51313236       2.00970873       0.00000000 NULL      -0.16830800       0.21543900       0.00728400
P        4.58368987      12.84076676       4.13017567       0.00000000 NULL       0.16830700      -0.02727800      -0.21382900
P        7.12410172       8.28950977       3.48688585       0.00000000 NULL       0.06170900      -0.07681100      -0.11166600
P        4.37681828      11.57666353       6.48147163       0.00000000 NULL      -0.06170700       0.11832200       0.06609900
P        8.58937923       7.68546126      11.06625786       0.00000000 NULL      -0.06170900       0.07681100       0.11166600
P       11.33666267       4.39830751       8.07167209       0.00000000 NULL       0.06170700      -0.11832200      -0.06609900
P        6.60594007       2.58084448       1.65197718       0.00000000 NULL      -0.00492500       0.06319600       0.22864000
P       13.32010183      14.24629354      12.27916118       0.00000000 NULL       0.00492500      -0.23352400      -0.04167100
P        9.10754088      13.39412656      12.90116654       0.00000000 NULL       0.00492500      -0.06319600      -0.22864000
P        2.39337912       1.72867749       2.27398253       0.00000000 NULL      -0.00492500       0.23352400       0.04167100
P        5.05612371       2.65342308       3.28680698       0.00000000 NULL       0.12549800      -0.16929800      -0.03130000
P        6.44479628      12.29973416      12.07456322       0.00000000 NULL      -0.12549900       0.04689700       0.16565900
P       10.65735723      13.32154795      11.26633673       0.00000000 NULL      -0.12549800       0.16929800       0.03130000
P        9.26868467       3.67523687       2.47858049       0.00000000 NULL       0.12549900      -0.04689700      -0.16565900
P        6.20671495      11.60871045       5.26176231       0.00000000 NULL      -0.12524700      -0.22540000      -0.03316700
P        5.29420505       9.50096036       3.34160922       0.00000000 NULL       0.12524500       0.05397400       0.22134100
P        9.50676600       4.36626058       9.29138140       0.00000000 NULL       0.12524700       0.22540000       0.03316700
P       10.41927590       6.47401067      11.21153449       0.00000000 NULL      -0.12524500      -0.05397400      -0.22134100
P        7.53922033       8.46766886       1.28934221       0.00000000 NULL       0.38320200      -0.28333800      -0.12463000
P       12.38682156      14.06019544       6.38411470       0.00000000 NULL      -0.38320000       0.15042600       0.27052700
P        8.17426061       7.50730217      13.26380151       0.00000000 NULL      -0.38320200       0.28333800       0.12463000
P        3.32665938       1.91477559       8.16902901       0.00000000 NULL       0.38320000      -0.15042600      -0.27052700
P        6.52800830       4.86555362       1.74382440       0.00000000 NULL       0.03902100       0.02894300      -0.08326800
P       13.39803360      13.94248683      10.01287936       0.00000000 NULL      -0.03902000       0.08021700      -0.03655800
P        9.18547265      11.10941741      12.80931931       0.00000000 NULL      -0.03902100      -0.02894300       0.08326800
P        2.31544735       2.03248420       4.54026435       0.00000000 NULL       0.03902000      -0.08021700       0.03655800
P       11.04511059       8.90784731       6.13500521       0.00000000 NULL       0.05491900      -0.04972600      -0.18000200
P        8.88093131       9.19459577       6.39623207       0.00000000 NULL      -0.05491900       0.18384400       0.03278000
P        4.66837036       7.06712372       8.41813850       0.00000000 NULL      -0.05491900       0.04972600       0.18000200
P        6.83254964       6.78037526       8.15691164       0.00000000 NULL       0.05491900      -0.18384400      -0.03278000
48
Lattice="8.464528560815127 0.329198201772644 0.2998984305005755 3.6915889333373206 12.840024515143085 1.6019670790980534 3.691588933337314 2.7884752367948415 12.635542486406015" Properties=species:S:1:pos:R:3:initial_magmoms:R:1:castep_labels:S:1:forces:R:3 n_minim_iter=3 energy=-252.243024715351 stress="0.0010204183657355392 0.00017978665377414333 0.00016376764690386028 0.00017978665377414333 -2.692718773909483e-06 -0.0004943923206079926 0.00016376764690386028 -0.0004943923206079926 8.957676079892084e-05" free_energy=-252.243024715351 pbc="T T T"
P        9.82541033       7.20909870       6.70570464       0.00000000 NULL       0.12464000      -0.23116600      -0.36576300
P       10.25456038       8.77555630       8.13274213       0.00000000 NULL      -0.12464000       0.38566600       0.19616900
P        6.02229610       8.74859926       7.83170337       0.00000000 NULL      -0.12464000       0.23116600       0.36576300
P        5.59314605       7.18214165       6.40466588       0.00000000 NULL       0.12464000      -0.38566600      -0.19616900
P       11.43657248       8.03099194      12.51400013       0.00000000 NULL       0.17777800       0.11074600       0.02644900
P        8.64339823       2.91601204       7.85427103       0.00000000 NULL      -0.17777400      -0.03663400      -0.10780700
P        4.41113395       7.92670602       2.02340787       0.00000000 NULL      -0.17777800      -0.11074600      -0.02644900
P        7.20430820      13.04168592       6.68313697       0.00000000 NULL       0.17777400       0.03663400       0.10780700
P        9.58964028      13.75258439       9.37348596       0.00000000 NULL      -0.00154500       0.04060900      -0.00725500
P        2.02580187       5.18192747       1.56564697       0.00000000 NULL       0.00154700       0.00345200      -0.04110200
P        6.25806615       2.20511357       5.16392204       0.00000000 NULL       0.00154500      -0.04060900       0.00725400
P       13.82190456      10.77577048      12.97176103       0.00000000 NULL      -0.00154700      -0.00345200       0.04110200
P        9.15131362      13.36191284       5.58104301       0.00000000 NULL      -0.17989600       0.07371000      -0.01698800
P       10.92865709       9.32346311       1.90202919       0.00000000 NULL       0.17990000       0.01006500      -0.07496300
P        6.69639281       2.59578511       8.95636499       0.00000000 NULL       0.17989600      -0.07371000       0.01698800
P        4.91904934       6.63423484      12.63537882       0.00000000 NULL      -0.17990100      -0.01006500       0.07496300
P        8.87319934       5.43798461      12.54765275       0.00000000 NULL       0.24890200      -0.19512200       0.01330000
P       11.20677137       3.12351761      10.43918126       0.00000000 NULL      -0.24890500       0.00488700       0.19550800
P        6.97450709      10.51971334       1.98975525       0.00000000 NULL      -0.24890200       0.19512200      -0.01330000
P        4.64093506      12.83418035       4.09822674       0.00000000 NULL       0.24890500      -0.00488700      -0.19550800
P        7.18128445       8.29133855       3.47463187       0.00000000 NULL       0.03202600      -0.05356600      -0.14323000
P        4.43415770      11.56285266       6.45496998       0.00000000 NULL      -0.03202200       0.14759000       0.04001800
P        8.66642198       7.66635941      11.06277613       0.00000000 NULL      -0.03202600       0.05356600       0.14323000
P       11.41354873       4.39484530       8.08243802       0.00000000 NULL       0.03202200      -0.14759000      -0.04001800
P        6.64458021       2.58944458       1.65809882       0.00000000 NULL      -0.02892300       0.07621200       0.17001300
P       13.43539050      14.23069471      12.26323768       0.00000000 NULL       0.02892900      -0.17635800      -0.06008300
P        9.20312622      13.36825337      12.87930918       0.00000000 NULL       0.02892300      -0.07621200      -0.17001300
P        2.41231593       1.72700324       2.27417032       0.00000000 NULL      -0.02892900       0.17635800       0.06008300
P        5.09179327       2.65223755       3.28917918       0.00000000 NULL       0.13874800      -0.18457300       0.02431700
P        6.52364888      12.27164059      12.05242230       0.00000000 NULL      -0.13875100      -0.00705200       0.18603100
P       10.75591316      13.30546041      11.24822882       0.00000000 NULL      -0.13874800       0.18457300      -0.02431700
P        9.32405755       3.68605736       2.48498570       0.00000000 NULL       0.13875100       0.00705200      -0.18603100
P        6.26962171      11.60147490       5.23807221       0.00000000 NULL      -0.16688400      -0.20578500      -0.03119700
P        5.34582044       9.49937860       3.32306970       0.00000000 NULL       0.16687900       0.05019100       0.20199700
P        9.57808472       4.35622305       9.29933580       0.00000000 NULL       0.16688400       0.20578500       0.03119700
P       10.50188599       6.45831935      11.21433830       0.00000000 NULL      -0.16687900      -0.05019100      -0.20199700
P        7.59563498       8.47676955       1.27670172       0.00000000 NULL       0.31061100      -0.29798100      -0.14725600
P       12.48433573      14.06323100       6.36594891       0.00000000 NULL      -0.31060500       0.17431500       0.28299900
P        8.25207145       7.48092841      13.26070628       0.00000000 NULL      -0.31061100       0.29798100       0.14725600
P        3.36337070       1.89446696       8.17145910       0.00000000 NULL       0.31060500      -0.17431500      -0.28299900
P        6.57170056       4.87278365       1.74097183       0.00000000 NULL      -0.01123500       0.02627300      -0.11156700
P       13.50827015      13.93595072       9.99748588       0.00000000 NULL       0.01123700       0.10865100      -0.03652800
P        9.27600587      11.08491430      12.79643617       0.00000000 NULL       0.01123600      -0.02627300       0.11156700
P        2.33943628       2.02174724       4.53992212       0.00000000 NULL      -0.01123700      -0.10865100       0.03652800
P       11.12657513       8.90938767       6.12938128       0.00000000 NULL      -0.07764400      -0.12822400      -0.13980600
P        8.95339559       9.19134786       6.38624604       0.00000000 NULL       0.07764400       0.15111900       0.11467400
P        4.72113131       7.04831028       8.40802673       0.00000000 NULL       0.07764300       0.12822400       0.13980600
P        6.89431084       6.76635009       8.15116196       0.00000000 NULL      -0.07764400      -0.15111900      -0.11467400
48
Lattice="8.418943418278213 0.37444548293380187 0.3411185481427156 3.7488082694488285 12.860842043643494 1.598028845956963 3.7488082694488223 2.786488980899354 12.656635944175115" Properties=species:S:1:pos:R:3:initial_magmoms:R:1:castep_labels:S:1:forces:R:3 n_minim_iter=4 energy=-252.308520541651 stress="-0.001408403208626734 0.0019054217603533428 0.0017358623590077809 0.0019054217603533428 0.0006271375118260514 0.0007492687285283207 0.0017358623590077809 0.0007492687285283207 0.00048723701566634676" free_energy=-252.308520541651 pbc="T T T"
P        9.84545728       7.24318902       6.73192296       0.00000000 NULL       0.21724000       0.15349200      -0.10004500
P       10.28057439       8.83298508       8.18022170       0.00000000 NULL      -0.21724000       0.08534600      -0.16212600
P        6.07110268       8.77858749       7.86386039       0.00000000 NULL      -0.21724000      -0.15349200       0.10004500
P        5.63598557       7.18879143       6.41556165       0.00000000 NULL       0.21724000      -0.08534600       0.16212600
P       11.48502143       8.07753934      12.56379306       0.00000000 NULL      -0.01053600       0.07775500      -0.08044400
P        8.64101024       2.94881042       7.89153864       0.00000000 NULL       0.01053400       0.07287000      -0.08489600
P        4.43153853       7.94423717       2.03199029       0.00000000 NULL       0.01053600      -0.07775500       0.08044400
P        7.27554972      13.07296609       6.70424471       0.00000000 NULL      -0.01053400      -0.07287000       0.08489600
P        9.65576991      13.79367771       9.40117081       0.00000000 NULL      -0.02388900       0.06908100      -0.02688800
P        2.05131834       5.19199788       1.56507005       0.00000000 NULL       0.02389200       0.02035400      -0.07128200
P        6.26079005       2.22809880       5.19461254       0.00000000 NULL       0.02388900      -0.06908100       0.02688800
P       13.86524162      10.82977863      13.03071330       0.00000000 NULL      -0.02389200      -0.02035400       0.07128200
P        9.19253358      13.40912072       5.60542213       0.00000000 NULL       0.02554600      -0.02476500      -0.07540200
P       10.93349809       9.38150389       1.93627704       0.00000000 NULL      -0.02554800       0.07737700       0.01765200
P        6.72402638       2.61265579       8.99036122       0.00000000 NULL      -0.02554600       0.02476500       0.07540200
P        4.98306187       6.64027262      12.65950631       0.00000000 NULL       0.02554800      -0.07737700      -0.01765300
P        8.92329215       5.45740444      12.59000871       0.00000000 NULL       0.22459900      -0.11512900       0.10635600
P       11.20273952       3.16624218      10.50276777       0.00000000 NULL      -0.22459800      -0.09519400       0.12451900
P        6.99326781      10.56437207       2.00577463       0.00000000 NULL      -0.22459900       0.11512900      -0.10635600
P        4.71382044      12.85553433       4.09301558       0.00000000 NULL       0.22459800       0.09519400      -0.12451900
P        7.20427124       8.32404574       3.49150143       0.00000000 NULL       0.19983200      -0.16957000      -0.11378400
P        4.50281701      11.58447099       6.46173763       0.00000000 NULL      -0.19983700       0.12905100       0.15826400
P        8.71228872       7.69773077      11.10428191       0.00000000 NULL      -0.19983200       0.16957000       0.11378400
P       11.41374295       4.43730552       8.13404571       0.00000000 NULL       0.19983700      -0.12905100      -0.15826400
P        6.62770783       2.62640940       1.69549556       0.00000000 NULL       0.13687100       0.03639400      -0.04104200
P       13.49832384      14.27672628      12.30889420       0.00000000 NULL      -0.13687300       0.03748100      -0.04005000
P        9.28885213      13.39536711      12.90028779       0.00000000 NULL      -0.13687100      -0.03639400       0.04104200
P        2.41823612       1.74505023       2.28688914       0.00000000 NULL       0.13687300      -0.03748100       0.04005000
P        5.09921366       2.66696354       3.31146867       0.00000000 NULL      -0.02983600      -0.05718000       0.11388700
P        6.60787459      12.28953377      12.07759708       0.00000000 NULL       0.02983900      -0.10807500       0.06751400
P       10.81734630      13.35481297      11.28431468       0.00000000 NULL       0.02983600       0.05718100      -0.11388700
P        9.30868537       3.73224274       2.51818626       0.00000000 NULL      -0.02983900       0.10807500      -0.06751400
P        6.31678696      11.62098813       5.25046440       0.00000000 NULL       0.06278200      -0.13572200      -0.06868700
P        5.39030129       9.52668127       3.34255805       0.00000000 NULL      -0.06277600       0.08100100       0.12875000
P        9.59977300       4.40078838       9.34531895       0.00000000 NULL      -0.06278200       0.13572200       0.06868700
P       10.52625867       6.49509523      11.25322529       0.00000000 NULL       0.06277600      -0.08100100      -0.12875000
P        7.61855413       8.50691060       1.29494605       0.00000000 NULL       0.27864400      -0.22889600      -0.16346300
P       12.50747753      14.12896632       6.41661949       0.00000000 NULL      -0.27864900       0.18403100       0.21271500
P        8.29800583       7.51486591      13.30083729       0.00000000 NULL      -0.27864400       0.22889600       0.16346300
P        3.40908243       1.89281019       8.17916385       0.00000000 NULL       0.27864900      -0.18403100      -0.21271500
P        6.56990806       4.90711900       1.76093263       0.00000000 NULL      -0.13369800       0.05897900      -0.03848500
P       13.55612361      13.99958715      10.04413987       0.00000000 NULL       0.13369600       0.03283400      -0.06230000
P        9.34665190      11.11465751      12.83485071       0.00000000 NULL       0.13369800      -0.05897900       0.03848600
P        2.36043635       2.02218936       4.55164347       0.00000000 NULL      -0.13369600      -0.03283400       0.06230000
P       11.14095442       8.95737169       6.16601744       0.00000000 NULL       0.10285500      -0.18320300      -0.11437600
P        8.98507725       9.23711251       6.42086037       0.00000000 NULL      -0.10285500       0.13090900       0.17177900
P        4.77560554       7.06440482       8.42976590       0.00000000 NULL      -0.10285500       0.18320300       0.11437600
P        6.93148271       6.78466400       8.17492298       0.00000000 NULL       0.10285500      -0.13090900      -0.17177900
48
Lattice="8.433192641793104 0.3261590875769822 0.2971298079124715 3.6782220111275055 12.788886412554804 1.4953979022474726 3.678222011127498 2.677614254571285 12.59453105371502" Properties=species:S:1:pos:R:3:initial_magmoms:R:1:castep_labels:S:1:forces:R:3 n_minim_iter=5 energy=-252.380595652323 stress="-0.0005818715445651187 -0.0001505228735534193 -0.00013711725459661535 -0.0001505228735534193 0.00018649423319826841 -0.0005696888133961127 -0.00013711725459661535 -0.0005696888133961127 0.00029287008850036554" free_energy=-252.380595652323 pbc="T T T"
P        9.79812680       7.11576241       6.60966788       0.00000000 NULL       0.03516200       0.31966000      -0.05597800
P       10.20810619       8.71329490       8.06501449       0.00000000 NULL      -0.03516200       0.02602400      -0.32347900
P        5.99150987       8.67689735       7.77739089       0.00000000 NULL      -0.03516200      -0.31966000       0.05597800
P        5.58153048       7.07936485       6.32204428       0.00000000 NULL       0.03516200      -0.02602400       0.32348000
P       11.41070271       7.91638313      12.43060756       0.00000000 NULL      -0.07239400       0.10247900       0.03219400
P        8.59553028       2.84313841       7.80889906       0.00000000 NULL       0.07239600      -0.04157600      -0.09904600
P        4.37893396       7.87627663       1.95645121       0.00000000 NULL       0.07239400      -0.10247900      -0.03219400
P        7.19410639      12.94952135       6.57815971       0.00000000 NULL      -0.07239600       0.04157600       0.09904600
P        9.55256121      13.64059592       9.24690507       0.00000000 NULL      -0.11858100      -0.12111300      -0.20910000
P        2.02047913       5.15485076       1.51642039       0.00000000 NULL       0.11858000       0.21945000       0.10115300
P        6.23707546       2.15206384       5.14015370       0.00000000 NULL       0.11858100       0.12111300       0.20910000
P       13.76915753      10.63780900      12.87063837       0.00000000 NULL      -0.11858000      -0.21945000      -0.10115300
P        9.10282828      13.28521042       5.46411224       0.00000000 NULL      -0.03572300      -0.27284500      -0.19245100
P       10.90340471       9.28045921       1.81579764       0.00000000 NULL       0.03572600       0.21697700       0.25377400
P        6.68680839       2.50744933       8.92294653       0.00000000 NULL       0.03572300       0.27284500       0.19245100
P        4.88623196       6.51220055      12.57126113       0.00000000 NULL      -0.03572600      -0.21697700      -0.25377400
P        8.85986753       5.30403735      12.48720767       0.00000000 NULL       0.15319400      -0.03422700       0.03755500
P       11.14636546       3.02959327      10.41519693       0.00000000 NULL      -0.15319300      -0.03421000       0.03757000
P        6.92976914      10.48862240       1.89985110       0.00000000 NULL      -0.15319400       0.03422800      -0.03755500
P        4.64327121      12.76306648       3.97186184       0.00000000 NULL       0.15319300       0.03421000      -0.03757000
P        7.15911158       8.23337751       3.39013602       0.00000000 NULL       0.14542700      -0.11372200      -0.12831600
P        4.41392876      11.48885139       6.35586154       0.00000000 NULL      -0.14542600       0.13833100       0.10130200