60
Lattice="10.344609999999996 -2.3886187423240634e-31 -1.9898735948791696e-31 5.172304999999998 11.261091021311259 1.8080100233255203e-13 5.172304999999998 3.0093279947016986 10.851549014337156" Properties=species:S:1:pos:R:3:initial_magmoms:R:1:castep_labels:S:1 n_minim_iter=1 pbc="T T T"
P       13.57783907       7.72944090       3.37372163       0.00000000 NULL
P        7.11138094       9.44246482       1.12099540       0.00000000 NULL
P       12.28368594       8.95383572       4.30477911       0.00000000 NULL
P        8.40553407      10.66685964       2.05205288       0.00000000 NULL
P        9.83634569      12.37923068       4.04564737       0.00000000 NULL
P       10.85287431      11.33252837       5.42212188       0.00000000 NULL
P        5.68056931       7.06377217       0.00365263       0.00000000 NULL
P        4.66404069       6.01706986       1.38012714       0.00000000 NULL
P       12.76530977       5.83745109       0.18081936       0.00000000 NULL
P        7.92391023       5.86008072       0.15106008       0.00000000 NULL
P       13.09621523      12.53621981       5.27471443       0.00000000 NULL
P       17.93761477      12.55884945       5.24495515       0.00000000 NULL
P       12.70876045      10.93912717      10.67786455       0.00000000 NULL
P       13.15276456       6.07761258       2.26204879       0.00000000 NULL
P        2.80815456       1.05759693       3.16372572       0.00000000 NULL
P       12.70876045      10.46650136       5.59945897       0.00000000 NULL
P        6.06326195       5.03902507       0.27514971       0.00000000 NULL
P        9.45365305       8.74694320      10.20801201       0.00000000 NULL
P        9.45365305      12.65868533       6.06931152       0.00000000 NULL
P        6.06326195       2.09618444       5.15062480       0.00000000 NULL
P       16.71242244       9.54310606       8.26939471       0.00000000 NULL
P        9.14910256       3.38367166       1.56041910       0.00000000 NULL
P        9.14910256       3.75153786       3.86535541       0.00000000 NULL
P       16.71242244      11.86252247       8.00792881       0.00000000 NULL
P        9.17415773       1.83149947       2.91699187       0.00000000 NULL
P       16.68736728      10.43555250       6.41115158       0.00000000 NULL
P       16.68736728      10.97007603       9.86617194       0.00000000 NULL
P        9.17415773       5.30371004       2.50878264       0.00000000 NULL
P       17.12800318      13.06546593      10.51549824       0.00000000 NULL
P        8.73352182       6.48937772       4.35444665       0.00000000 NULL
P        8.73352182       0.64583179       1.07132786       0.00000000 NULL
P        6.78339318       8.34016260       5.76182528       0.00000000 NULL
P        5.70997024       3.45445743       3.72033747       0.00000000 NULL
P        9.80694477      11.64338902       7.76040606       0.00000000 NULL
P        9.80694477       9.76223951       8.51691747       0.00000000 NULL
P        5.70997024       3.68075208       1.70543704       0.00000000 NULL
P       12.69158632      13.37109122       9.09566204       0.00000000 NULL
P       13.16993868       5.20285093       5.02838319       0.00000000 NULL
P        2.82532868       1.93235859       0.39739132       0.00000000 NULL
P       12.69158632       8.03453731       7.18166148       0.00000000 NULL
P        8.54496854      10.68781544       4.49175998       0.00000000 NULL
P       12.14425146      11.31041591       3.67300410       0.00000000 NULL
P        6.97194646       7.08588462       1.75277041       0.00000000 NULL
P       13.71727354       7.70848510       0.93401453       0.00000000 NULL
P        2.34793734       3.87273898       0.65605427       0.00000000 NULL
P       13.16897766       8.80232568       8.98235124       0.00000000 NULL
P       13.16897766      12.60330285       7.29497228       0.00000000 NULL
P       12.69254734       3.26247053       4.76972024       0.00000000 NULL
P       10.25963885       3.83976727       9.34423630       0.00000000 NULL
P       10.42958115       5.90463481       6.62881521       0.00000000 NULL
P       15.60188615       4.23990269       9.64850832       0.00000000 NULL
P       15.43194385       6.30477024       6.93308722       0.00000000 NULL
P       11.01908427       4.05653173       1.83570229       0.00000000 NULL
P       14.84244074       9.98818777       8.84421971       0.00000000 NULL
P       14.84244074      11.41744076       7.43310381       0.00000000 NULL
P       11.01908427       3.07867778       3.59007222       0.00000000 NULL
P       11.42446884       3.40383164       7.73452078       0.00000000 NULL
P        9.26475117       4.23696513       6.63890172       0.00000000 NULL
P       14.43705617       5.90757238       9.63842180       0.00000000 NULL
P        6.25216384       6.74070587       8.54280274       0.00000000 NULL
60
Lattice="10.473450561963356 2.009263513032232e-18 1.0143407351431451e-17 5.236725280981678 11.403908262325348 0.002055463646194 5.236725280981678 3.0494740946804724 10.988623008654718" Properties=species:S:1:pos:R:3:initial_magmoms:R:1:castep_labels:S:1 n_minim_iter=2 pbc="T T T"
P       13.74727804       7.82824351       3.41769478       0.00000000 NULL
P        7.19962308       9.56257758       1.13694445       0.00000000 NULL
P       12.43634836       9.06802186       4.36045025       0.00000000 NULL
P        8.51055276      10.80235594       2.07969992       0.00000000 NULL
P        9.95894609      12.53706207       4.09824423       0.00000000 NULL
P       10.98795504      11.47672562       5.49264842       0.00000000 NULL
P        5.75122976       7.15387383       0.00474628       0.00000000 NULL
P        4.72222081       6.09353738       1.39915047       0.00000000 NULL
P       12.92385569       5.91174672       0.18393486       0.00000000 NULL
P        8.02304544       5.93427268       0.15431191       0.00000000 NULL
P       13.25977072      12.69632676       5.34308280       0.00000000 NULL
P       18.16058097      12.71885272       5.31345985       0.00000000 NULL
P       12.86733147      11.08000649      10.81390546       0.00000000 NULL
P       13.31629494       6.15487181       2.29188537       0.00000000 NULL
P        2.84284438       1.07181937       3.20345387       0.00000000 NULL
P       12.86733147      10.60006705       5.67211225       0.00000000 NULL
P        6.13883505       5.10250536       0.27928026       0.00000000 NULL
P        9.57134080       8.85936919      10.33764456       0.00000000 NULL
P        9.57134080      12.82070435       6.14837315       0.00000000 NULL
P        6.13883505       2.12418583       5.21605898       0.00000000 NULL
P       16.92097439       9.66514050       8.37520507       0.00000000 NULL
P        9.26265202       3.42676380       1.58017472       0.00000000 NULL
P        9.26265202       3.79992739       3.91516451       0.00000000 NULL
P       16.92097439      12.01493305       8.11081264       0.00000000 NULL
P        9.28836320       1.85486521       2.95405017       0.00000000 NULL
P       16.89526321      10.56898883       6.49332912       0.00000000 NULL
P       16.89526321      11.11108472       9.99268859       0.00000000 NULL
P        9.28836320       5.37182597       2.54128907       0.00000000 NULL
P       17.34126912      13.23311676      10.65014098       0.00000000 NULL
P        8.84235729       6.57244385       4.41045475       0.00000000 NULL
P        8.84235729       0.65424734       1.08488448       0.00000000 NULL
P        6.86781855       8.44695678       5.83587673       0.00000000 NULL
P        5.78103094       3.49924456       3.76773391       0.00000000 NULL
P        9.92914491      11.79251200       7.86046324       0.00000000 NULL
P        9.92914491       9.88756154       8.62555447       0.00000000 NULL
P        5.78103094       3.72744663       1.72760532       0.00000000 NULL
P       12.84965494      13.54237001       9.21267229       0.00000000 NULL
P       13.33397147       5.26989533       5.09259928       0.00000000 NULL
P        2.86052091       1.95679585       0.40273996       0.00000000 NULL
P       12.84965494       8.13770353       7.27334542       0.00000000 NULL
P        8.65129448      10.82380745       4.55019695       0.00000000 NULL
P       12.29560665      11.45440469       3.72092485       0.00000000 NULL
P        7.05888136       7.17619476       1.77646985       0.00000000 NULL
P       13.88801976       7.80679199       0.94719776       0.00000000 NULL
P        2.37722800       3.92170960       0.66500566       0.00000000 NULL
P       13.33294785       8.91551973       9.09671354       0.00000000 NULL
P       13.33294785      12.76455381       7.38930417       0.00000000 NULL
P       12.85067856       3.30498158       4.83033358       0.00000000 NULL
P       10.38739494       3.89010301       9.46260827       0.00000000 NULL
P       10.55950619       5.98081761       6.71319679       0.00000000 NULL
P       15.79623147       4.29534766       9.77076546       0.00000000 NULL
P       15.62412022       6.38606227       7.02135398       0.00000000 NULL
P       11.15659433       4.10859513       1.85936797       0.00000000 NULL
P       15.02703208      10.11638748       8.95763017       0.00000000 NULL
P       15.02703208      11.56368607       7.52838754       0.00000000 NULL
P       11.15659433       3.11809606       3.63597127       0.00000000 NULL
P       11.56669418       3.44844369       7.83228811       0.00000000 NULL
P        9.38020694       4.29176308       6.72327399       0.00000000 NULL
P       14.61693223       5.98440220       9.76068825       0.00000000 NULL
P        6.32996890       6.82772159       8.65167414       0.00000000 NULL
60
Lattice="11.017208149381238 1.268123163679436e-16 1.2644135662433005e-16 5.508604074690619 11.970307180918839 0.010416007799932453 5.508604074690619 3.2088907065492083 11.53218899134929" Properties=species:S:1:pos:R:3:initial_magmoms:R:1:castep_labels:S:1 n_minim_iter=3 pbc="T T T"
P       14.46251635       8.22023537       3.59226221       0.00000000 NULL
P        7.57189996      10.03904043       1.20042762       0.00000000 NULL
P       13.08050403       9.52086570       4.58129089       0.00000000 NULL
P        8.95391227      11.33967076       2.18945630       0.00000000 NULL
P       10.47657952      13.16311091       4.30690240       0.00000000 NULL
P       11.55783678      12.04858699       5.77256626       0.00000000 NULL
P        6.04923270       7.51131914       0.00915225       0.00000000 NULL
P        4.96797545       6.39679522       1.47481611       0.00000000 NULL
P       13.59276633       6.20646217       0.19628279       0.00000000 NULL
P        8.44164997       6.22842021       0.16740669       0.00000000 NULL
P       13.95025405      13.33148592       5.61431182       0.00000000 NULL
P       19.10137041      13.35344396       5.58543572       0.00000000 NULL
P       13.53665746      11.63905433      11.35338780       0.00000000 NULL
P       14.00636292       6.46122224       2.41047142       0.00000000 NULL
P        2.98915477       1.12837671       3.36083109       0.00000000 NULL
P       13.53665746      11.12974251       5.96051970       0.00000000 NULL
P        6.45767013       5.35410532       0.29560065       0.00000000 NULL
P       10.06814210       9.30523945      10.85169630       0.00000000 NULL
P       10.06814210      13.46355738       6.46221120       0.00000000 NULL
P        6.45767013       2.23549363       5.47570186       0.00000000 NULL
P       17.80127848      10.14889193       8.79493211       0.00000000 NULL
P        9.74174190       3.59759254       1.65820523       0.00000000 NULL
P        9.74174190       3.99200641       4.11309727       0.00000000 NULL
P       17.80127848      12.61990491       8.51897539       0.00000000 NULL
P        9.77031361       1.94743348       3.10093774       0.00000000 NULL
P       17.77270677      11.09817941       6.81924102       0.00000000 NULL
P       17.77270677      11.67061743      10.49466648       0.00000000 NULL
P        9.77031361       5.64216547       2.67036476       0.00000000 NULL
P       18.24127701      13.89816566      11.18417372       0.00000000 NULL
P        9.30174337       6.90186977       4.63264314       0.00000000 NULL
P        9.30174337       0.68772918       1.13865936       0.00000000 NULL
P        7.22406886       8.87063117       6.12973379       0.00000000 NULL
P        6.08091184       3.67709880       3.95569004       0.00000000 NULL
P       10.44490039      12.38406873       8.25758460       0.00000000 NULL
P       10.44490039      10.38472811       9.05632290       0.00000000 NULL
P        6.08091184       3.91250015       1.81561247       0.00000000 NULL
P       13.51678176      14.22174611       9.67685876       0.00000000 NULL
P       14.02623862       5.53584384       5.34725900       0.00000000 NULL
P        3.00903047       2.05375511       0.42404351       0.00000000 NULL
P       13.51678176       8.54705072       7.63704874       0.00000000 NULL
P        9.09995811      11.36297689       4.78199162       0.00000000 NULL
P       12.93445819      12.02534415       3.91094008       0.00000000 NULL
P        7.42585412       7.53456198       1.87077843       0.00000000 NULL
P       14.60856219       8.19692924       0.99972689       0.00000000 NULL
P        2.50083594       4.11570814       0.70060222       0.00000000 NULL
P       14.02497629       9.36457217       9.55010747       0.00000000 NULL
P       14.02497629      13.40422467       7.76380003       0.00000000 NULL
P       13.51804409       3.47389081       5.07070029       0.00000000 NULL
P       10.92669909       4.08977077       9.93193166       0.00000000 NULL
P       11.10771721       6.28293924       7.04778737       0.00000000 NULL
P       16.61632129       4.51555041      10.25570412       0.00000000 NULL
P       16.43530316       6.70871889       7.37155983       0.00000000 NULL
P       11.73712003       4.31526819       1.95316847       0.00000000 NULL
P       15.80590035      10.62491415       9.40768371       0.00000000 NULL
P       15.80590035      12.14388269       7.90622380       0.00000000 NULL
P       11.73712003       3.27433076       3.81813403       0.00000000 NULL
P       12.16665768       3.62561465       8.21996408       0.00000000 NULL
P        9.86775862       4.50919476       7.05800477       0.00000000 NULL
P       15.37636270       6.28929490      10.24548672       0.00000000 NULL
P        6.65805360       7.17287501       9.08352741       0.00000000 NULL
60
Lattice="11.289520175987118 2.099118455259445e-16 1.865483849927872e-16 5.644760087993559 12.12064133375719 0.02530195868930368 5.644760087993559 3.2634094382809162 11.67307780188395" Properties=species:S:1:pos:R:3:initial_magmoms:R:1:castep_labels:S:1 n_minim_iter=4 pbc="T T T"
P       14.82123395       8.32853254       3.64528967       0.00000000 NULL
P        7.75780641      10.16698761       1.22761417       0.00000000 NULL
P       13.40256650       9.64567911       4.64687768       0.00000000 NULL
P        9.17647386      11.48413418       2.22920218       0.00000000 NULL
P       10.73632339      13.33384082       4.37281978       0.00000000 NULL
P       11.84271697      12.20563937       5.85647040       0.00000000 NULL
P        6.19795688       7.60702735       0.01802145       0.00000000 NULL
P        5.09156330       6.47882591       1.50167206       0.00000000 NULL
P       13.92715283       6.28518373       0.20548925       0.00000000 NULL
P        8.65188752       6.30623651       0.17780362       0.00000000 NULL
P       14.29664761      13.50643022       5.69668823       0.00000000 NULL
P       19.57191292      13.52748300       5.66900259       0.00000000 NULL
P       13.87229432      11.79997226      11.50179459       0.00000000 NULL
P       14.35150613       6.54480782       2.44799063       0.00000000 NULL
P        3.06198595       1.14721757       3.40119926       0.00000000 NULL
P       13.87229432      11.27610390       6.04577506       0.00000000 NULL
P        6.61749420       5.42038395       0.30484324       0.00000000 NULL
P       10.31678607       9.43428415      10.99098198       0.00000000 NULL
P       10.31678607      13.64179201       6.55658766       0.00000000 NULL
P        6.61749420       2.27164144       5.54434664       0.00000000 NULL
P       18.24240164      10.28538751       8.91181361       0.00000000 NULL
P        9.98139881       3.64427289       1.68061485       0.00000000 NULL
P        9.98139881       4.04775250       4.16857503       0.00000000 NULL
P       18.24240164      12.79068866       8.63575604       0.00000000 NULL
P       10.01154474       1.97482578       3.13963976       0.00000000 NULL
P       18.21225571      11.24522047       6.91318207       0.00000000 NULL
P       18.21225571      11.83085569      10.63438757       0.00000000 NULL
P       10.01154474       5.71719961       2.70955012       0.00000000 NULL
P       18.69173599      14.08627656      11.33378916       0.00000000 NULL
P        9.53206445       6.99388690       4.69604337       0.00000000 NULL
P        9.53206445       0.69813849       1.15314652       0.00000000 NULL
P        7.40221582       8.98979961       6.21378048       0.00000000 NULL
P        6.23097400       3.72914104       4.00704727       0.00000000 NULL
P       10.70330627      12.54989202       8.37189724       0.00000000 NULL
P       10.70330627      10.52618414       9.17567240       0.00000000 NULL
P        6.23097400       3.96288435       1.84214261       0.00000000 NULL
P       13.85099112      14.41211273       9.80926314       0.00000000 NULL
P       14.37280932       5.61187863       5.41743226       0.00000000 NULL
P        3.08328915       2.08014676       0.43175762       0.00000000 NULL
P       13.85099112       8.66396344       7.73830650       0.00000000 NULL
P        9.32435628      11.51047783       4.85216988       0.00000000 NULL
P       13.25468408      12.18029492       3.97132140       0.00000000 NULL
P        7.60992399       7.63237181       1.90317044       0.00000000 NULL
P       14.96911636       8.30218889       1.02232197       0.00000000 NULL
P        2.56266064       4.16701757       0.71416135       0.00000000 NULL
P       14.37161963       9.49377617       9.67381483       0.00000000 NULL
P       14.37161963      13.58230000       7.87375482       0.00000000 NULL
P       13.85218082       3.52500782       5.13502853       0.00000000 NULL
P       11.19733181       4.15274916      10.05438238       0.00000000 NULL
P       11.38170854       6.36985884       7.13875400       0.00000000 NULL
P       17.02646863       4.58557599      10.38351368       0.00000000 NULL
P       16.84209190       6.80268567       7.46788530       0.00000000 NULL
P       12.02835348       4.37264248       1.98120146       0.00000000 NULL
P       16.19544696      10.76968635       9.53336747       0.00000000 NULL
P       16.19544696      12.30638982       8.01420217       0.00000000 NULL
P       12.02835348       3.31938291       3.86798842       0.00000000 NULL
P       12.46581072       3.68181478       8.32179564       0.00000000 NULL
P       10.11322964       4.57443370       7.14794977       0.00000000 NULL
P       15.75798973       6.38100113      10.37431792       0.00000000 NULL
P        6.82105063       7.27362005       9.20047205       0.00000000 NULL
60
Lattice="11.483372603177182 2.1365035381548935e-16 1.8667319256926108e-16 5.741686301588591 12.130310357748925 0.0391579214981877 5.741686301588591 3.2793453652529645 11.678692422250052" Properties=species:S:1:pos:R:3:initial_magmoms:R:1:castep_labels:S:1 n_minim_iter=5 pbc="T T T"
P       15.07717906       8.34018822       3.65550415       0.00000000 NULL
P        7.88956616      10.17681194       1.24023698       0.00000000 NULL
P       13.63125246       9.65832628       4.65784611       0.00000000 NULL
P        9.33549275      11.49495000       2.24257894       0.00000000 NULL
P       10.92149818      13.34948441       4.38700354       0.00000000 NULL
P       12.04524703      12.22035432       5.87187537       0.00000000 NULL
P        6.30356073       7.61478391       0.02620772       0.00000000 NULL
P        5.17981188       6.48565382       1.51107956       0.00000000 NULL
P       14.16466982       6.29107114       0.21176131       0.00000000 NULL
P        8.80207539       6.31072032       0.18592149       0.00000000 NULL
P       14.54376169      13.52441790       5.71216160       0.00000000 NULL
P       19.90635612      13.54406708       5.68632178       0.00000000 NULL
P       14.11171239      11.82334041      11.51647883       0.00000000 NULL
P       14.59671913       6.55240028       2.45684953       0.00000000 NULL
P        3.11334652       1.15242759       3.40207565       0.00000000 NULL
P       14.11171239      11.29114318       6.06029669       0.00000000 NULL
P        6.73175786       5.42363120       0.31003481       0.00000000 NULL
P       10.49330105       9.45295717      11.00245907       0.00000000 NULL
P       10.49330105      13.66152643       6.57431645       0.00000000 NULL
P        6.73175786       2.28119666       5.54889036       0.00000000 NULL
P       18.55663835      10.30189860       8.92490922       0.00000000 NULL
P       10.15179317       3.64850207       1.68329061       0.00000000 NULL
P       10.15179317       4.05632580       4.17563456       0.00000000 NULL
P       18.55663835      12.81258499       8.65186630       0.00000000 NULL
P       10.18319772       1.97924314       3.14148168       0.00000000 NULL
P       18.52523379      11.26097834       6.92668186       0.00000000 NULL
P       18.52523379      11.85350525      10.65009366       0.00000000 NULL
P       10.18319772       5.72558473       2.71744350       0.00000000 NULL
P       19.01206598      14.10992238      11.35129265       0.00000000 NULL
P        9.69636554       7.00427028       4.70441645       0.00000000 NULL
P        9.69636554       0.70055759       1.15450872       0.00000000 NULL
P        7.52869337       9.00456121       6.22548286       0.00000000 NULL
P        6.33764076       3.73786845       4.01177248       0.00000000 NULL
P       10.88741815      12.56958011       8.38877982       0.00000000 NULL
P       10.88741815      10.54490348       9.18799570       0.00000000 NULL
P        6.33764076       3.96695942       1.84715270       0.00000000 NULL
P       14.08902980      14.43446710       9.82709563       0.00000000 NULL
P       14.61940171       5.62223393       5.42447295       0.00000000 NULL
P        3.13602911       2.08259394       0.43445223       0.00000000 NULL
P       14.08902980       8.68001649       7.74967989       0.00000000 NULL
P        9.48376371      11.52424115       4.86509008       0.00000000 NULL
P       13.48298150      12.19328979       3.98525215       0.00000000 NULL
P        7.74129520       7.64184843       1.91283095       0.00000000 NULL
P       15.22545001       8.31089708       1.03299301       0.00000000 NULL
P        2.60652040       4.16956575       0.71940052       0.00000000 NULL
P       14.61853851       9.51230823       9.68460555       0.00000000 NULL
P       14.61853851      13.60217536       7.89216997       0.00000000 NULL
P       14.08989301       3.53526212       5.13952466       0.00000000 NULL
P       11.39056493       4.16670702      10.05968371       0.00000000 NULL
P       11.57618028       6.38183082       7.14666689       0.00000000 NULL
P       17.31786658       4.60234242      10.39095071       0.00000000 NULL
P       17.13225124       6.81746622       7.47793389       0.00000000 NULL
P       12.23604986       4.37910092       1.98598161       0.00000000 NULL
P       16.47238165      10.78882102       9.54804891       0.00000000 NULL
P       16.47238165      12.32566257       8.02872661       0.00000000 NULL
P       12.23604986       3.32572695       3.87294357       0.00000000 NULL
P       12.67747308       3.69501383       8.32729368       0.00000000 NULL
P       10.28927214       4.58639246       7.15507887       0.00000000 NULL
P       16.03095844       6.39778078      10.38253873       0.00000000 NULL
P        6.93578677       7.28915940       9.21032392       0.00000000 NULL
60
Lattice="11.665594764858012 2.375978211254203e-16 2.0195851539705384e-16 5.832797382429006 12.063412517748104 0.05031802638805987 5.832797382429006 3.272222332739495 11.611245173635002" Properties=species:S:1:pos:R:3:initial_magmoms:R:1:castep_labels:S:1 n_minim_iter=6 pbc="T T T"
P       15.31848806       8.29891907       3.64134188       0.00000000 NULL
P        8.01270147      10.12224887       1.24355700       0.00000000 NULL
P       13.84549885       9.60898108       4.63754263       0.00000000 NULL
P        9.48569068      11.43231088       2.23975774       0.00000000 NULL
P       11.09576319      13.27996626       4.37055326       0.00000000 NULL
P       12.23542635      12.15603740       5.84858517       0.00000000 NULL
P        6.40262896       7.57519255       0.03251445       0.00000000 NULL
P        5.26296581       6.45126369       1.51054637       0.00000000 NULL
P       14.38737477       6.25753503       0.21497241       0.00000000 NULL
P        8.94381476       6.27496530       0.19205059       0.00000000 NULL
P       14.77661215      13.45626465       5.68904904       0.00000000 NULL
P       20.22017215      13.47369492       5.66612722       0.00000000 NULL
P       14.33733009      11.77006830      11.45721520       0.00000000 NULL
P       14.82665682       6.51806634       2.44949555       0.00000000 NULL
P        3.16106206       1.14975109       3.38128606       0.00000000 NULL
P       14.33733009      11.23338398       6.03512960       0.00000000 NULL
P        6.83987925       5.39221049       0.31171253       0.00000000 NULL
P       10.65851291       9.40916680      10.94358915       0.00000000 NULL
P       10.65851291      13.59428548       6.54875565       0.00000000 NULL
P        6.83987925       2.27560694       5.51906907       0.00000000 NULL
P       18.85219682      10.25096785       8.88063201       0.00000000 NULL
P       10.31179009       3.62923522       1.67418798       0.00000000 NULL
P       10.31179009       4.03858222       4.15659362       0.00000000 NULL
P       18.85219682      12.75248443       8.61171279       0.00000000 NULL
P       10.34446968       1.97029586       3.12294933       0.00000000 NULL
P       18.81951723      11.20371854       6.89486884       0.00000000 NULL
P       18.81951723      11.79973375      10.59747596       0.00000000 NULL
P       10.34446968       5.69752157       2.70783227       0.00000000 NULL
P       19.31278985      14.04185942      11.29536588       0.00000000 NULL
P        9.85119706       6.96919926       4.68191782       0.00000000 NULL
P        9.85119706       0.69861817       1.14886379       0.00000000 NULL
P        7.64719509       8.96159286       6.19697892       0.00000000 NULL
P        6.43769507       3.72276562       3.99080288       0.00000000 NULL
P       11.06069709      12.50832673       8.35168643       0.00000000 NULL
P       11.06069709      10.49512555       9.14065838       0.00000000 NULL
P        6.43769507       3.94505181       1.83997872       0.00000000 NULL
P       14.31288369      14.36354924       9.78094785       0.00000000 NULL
P       14.85110323       5.59582333       5.39660997       0.00000000 NULL
P        3.18550846       2.07199410       0.43417163       0.00000000 NULL
P       14.31288369       8.63990304       7.71139695       0.00000000 NULL
P        9.63319661      11.46409724       4.84492161       0.00000000 NULL
P       13.69799293      12.12789501       3.97198888       0.00000000 NULL
P        7.86519555       7.60333494       1.90911075       0.00000000 NULL
P       15.46599399       8.26713271       1.03617801       0.00000000 NULL
P        2.64754176       4.14494752       0.71967743       0.00000000 NULL
P       14.85085039       9.46898585       9.63266506       0.00000000 NULL
P       14.85085039      13.53446643       7.85967974       0.00000000 NULL
P       14.31313653       3.52286991       5.11110417       0.00000000 NULL
P       11.57284223       4.15192170      10.00107998       0.00000000 NULL
P       11.75834731       6.35129467       7.10877642       0.00000000 NULL
P       17.59114469       4.58874509      10.33325035       0.00000000 NULL
P       17.40563961       6.78811806       7.44094680       0.00000000 NULL
P       12.43164134       4.35768670       1.97720778       0.00000000 NULL
P       16.73234558      10.73763328       9.50161456       0.00000000 NULL
P       16.73234558      12.26581900       7.99073024       0.00000000 NULL
P       12.43164134       3.31013073       3.85357382       0.00000000 NULL
P       12.87492281       3.68356173       8.28053853       0.00000000 NULL
P       10.45626672       4.56816473       7.11723407       0.00000000 NULL
P       16.28906411       6.37187504      10.32479271       0.00000000 NULL
P        7.04212543       7.25647804       9.16148824       0.00000000 NULL
60
Lattice="12.06757569100471 1.966822321134918e-16 2.337011028355876e-16 6.033787845502355 11.895249837622364 0.05350881881372241 6.033787845502355 3.2303585719659953 11.44834553067261" Properties=species:S:1:pos:R:3:initial_magmoms:R:1:castep_labels:S:1 n_minim_iter=7 pbc="T T T"
P       15.85293188       8.18868030       3.59290343       0.00000000 NULL
P        8.28221951       9.98296319       1.23331692       0.00000000 NULL
P       14.31600735       9.47509086       4.57111908       0.00000000 NULL
P        9.81914403      11.26937375       2.21153257       0.00000000 NULL
P       11.48054894      13.09637652       4.30557634       0.00000000 NULL
P       12.65460244      11.98121297       5.77208137       0.00000000 NULL
P        6.62081460       7.47684108       0.03235463       0.00000000 NULL
P        5.44676110       6.36167752       1.49885966       0.00000000 NULL