12
Lattice="5.201810000000003 1.4278008129376118e-16 1.6119416986229074e-15 1.5718807471012046 7.1524008602002045 1.4189469752284704e-15 2.342895900124625 1.2659588464663096 7.165939949032012" Properties=species:S:1:pos:R:3:initial_magmoms:R:1:castep_labels:S:1 n_minim_iter=1 pbc="T T T"
P        6.15469354       6.78873927       5.87286257       0.00000000 NULL
P        2.86592391       1.18309215       6.03898410       0.00000000 NULL
P        6.70809825       6.95780059       2.97814243       0.00000000 NULL
P        4.41509611       1.71697732       1.47272391       0.00000000 NULL
P        5.62157215       6.87576999       1.24742605       0.00000000 NULL
P        3.79226440       4.10609158       0.42071377       0.00000000 NULL
P        3.07495570       4.69572717       3.73015838       0.00000000 NULL
P        5.65353292       4.92604549       1.74685766       0.00000000 NULL
P        4.82724813       1.64360134       5.95479577       0.00000000 NULL
P        8.19218735       5.45922383       6.59582207       0.00000000 NULL
P        6.31146586       2.79508934       6.67815657       0.00000000 NULL
P        1.80197374       1.55565078       0.26149948       0.00000000 NULL
12
Lattice="5.206231804394273 0.002618401663751609 0.0011092502297488168 1.5768171841311929 7.167474087056864 0.002502185844523773 2.347052806407463 1.2718371517143228 7.174058413205729" Properties=species:S:1:pos:R:3:initial_magmoms:R:1:castep_labels:S:1 n_minim_iter=2 pbc="T T T"
P        6.16460255       6.80688137       5.88208940       0.00000000 NULL
P        2.86999971       1.18864812       6.04605418       0.00000000 NULL
P        6.71807095       6.97592351       2.98482127       0.00000000 NULL
P        4.42015200       1.72333201       1.47607160       0.00000000 NULL
P        5.62993752       6.89259823       1.25185630       0.00000000 NULL
P        3.79768377       4.11642953       0.42322679       0.00000000 NULL
P        3.08070253       4.70785777       3.73605764       0.00000000 NULL
P        5.66118059       4.93897008       1.75129560       0.00000000 NULL
P        4.83356324       1.65110005       5.96195552       0.00000000 NULL
P        8.20324645       5.47626060       6.60589431       0.00000000 NULL
P        6.31988701       2.80610510       6.68687256       0.00000000 NULL
P        1.80417973       1.55989152       0.26278864       0.00000000 NULL
12
Lattice="5.305308219558255 0.0648172866134732 0.026606289681337755 1.692278469281158 7.515723800832473 0.06144000753558991 2.4419384729576388 1.4094943573600718 7.3576922515002146" Properties=species:S:1:pos:R:3:initial_magmoms:R:1:castep_labels:S:1 n_minim_iter=3 pbc="T T T"
P        6.39190379       7.22830065       6.09282914       0.00000000 NULL
P        2.96263815       1.31868886       6.20605722       0.00000000 NULL
P        6.94671979       7.39679804       3.13838541       0.00000000 NULL
P        4.53500668       1.87193275       1.55295915       0.00000000 NULL
P        5.82204625       7.28278767       1.35449112       0.00000000 NULL
P        3.92212289       4.35649708       0.48165211       0.00000000 NULL
P        3.21310749       4.98950893       3.87097475       0.00000000 NULL
P        5.83597280       5.23911448       1.85331864       0.00000000 NULL
P        4.97698733       1.82669757       6.12403327       0.00000000 NULL
P        8.45542439       5.87327178       6.83559984       0.00000000 NULL
P        6.51151327       3.06381294       6.88469157       0.00000000 NULL
P        1.85460680       1.65846744       0.29265468       0.00000000 NULL
12
Lattice="5.286502405580967 0.11360564011115698 0.03168860340733821 1.75367889809346 7.622908565003861 0.08720230310607044 2.452343224036915 1.4721030334115792 7.348771396009325" Properties=species:S:1:pos:R:3:initial_magmoms:R:1:castep_labels:S:1 n_minim_iter=4 pbc="T T T"
P        6.43966401       7.38981764       6.10866897       0.00000000 NULL
P        2.96604517       1.37940369       6.20029190       0.00000000 NULL
P        6.99204119       7.55838928       3.16233279       0.00000000 NULL
P        4.53840279       1.94274251       1.56641855       0.00000000 NULL
P        5.86591309       7.42649923       1.38058031       0.00000000 NULL
P        3.95062909       4.45028882       0.49889217       0.00000000 NULL
P        3.24896146       5.09358930       3.88312029       0.00000000 NULL
P        5.86245595       5.35709972       1.86845382       0.00000000 NULL
P        4.98246005       1.91240974       6.11629666       0.00000000 NULL
P        8.48036896       6.04402077       6.84984825       0.00000000 NULL
P        6.52441024       3.18606577       6.88196279       0.00000000 NULL
P        1.86069219       1.69796924       0.30081013       0.00000000 NULL
12
Lattice="5.229471606658025 0.2016522426067286 0.03942146176558331 1.8575079461763928 7.752603412461403 0.1346960366498168 2.458737027152126 1.575248250168756 7.2968300946308515" Properties=species:S:1:pos:R:3:initial_magmoms:R:1:castep_labels:S:1 n_minim_iter=5 pbc="T T T"
P        6.49704505       7.62309120       6.10804978       0.00000000 NULL
P        2.95761714       1.47913242       6.15938594       0.00000000 NULL
P        7.04362264       7.78866199       3.19032848       0.00000000 NULL
P        4.52430196       2.05439395       1.58222717       0.00000000 NULL
P        5.91990315       7.62448319       1.42165683       0.00000000 NULL
P        3.98568761       4.58384930       0.52805887       0.00000000 NULL
P        3.29883915       5.24074717       3.88661600       0.00000000 NULL
P        5.88391616       5.52647289       1.88548095       0.00000000 NULL
P        4.96924773       2.05320756       6.07271402       0.00000000 NULL
P        8.48737392       6.30491614       6.84210647       0.00000000 NULL
P        6.51712004       3.38324286       6.84262240       0.00000000 NULL
P        1.86420834       1.75528038       0.31373071       0.00000000 NULL
12
Lattice="5.073473702696608 0.4596463827424639 0.07157548627466641 2.1651061491112036 8.039923025073492 0.3088517909034368 2.4955582342269436 1.8932556645492569 7.150398968992762" Properties=species:S:1:pos:R:3:initial_magmoms:R:1:castep_labels:S:1 n_minim_iter=6 pbc="T T T"
P        6.68901504       8.24815662       6.14326982       0.00000000 NULL
P        2.94624772       1.77947208       6.04477390       0.00000000 NULL
P        7.21865043       8.38748905       3.31698312       0.00000000 NULL
P        4.49519922       2.36455736       1.64407720       0.00000000 NULL
P        6.09064025       8.11718922       1.58113399       0.00000000 NULL
P        4.09703449       4.92707150       0.64205196       0.00000000 NULL
P        3.45820268       5.63085250       3.92093880       0.00000000 NULL
P        5.95801402       5.96372271       1.96427602       0.00000000 NULL
P        4.95167653       2.47000174       5.95940027       0.00000000 NULL
P        8.54227535       7.02771579       6.85436822       0.00000000 NULL
P        6.52003747       3.95695136       6.74613660       0.00000000 NULL
P        1.88131112       1.90548238       0.36241648       0.00000000 NULL
12
Lattice="5.156985091361221 0.6551670829157673 0.13363377659319475 2.459179244459186 8.375129996116517 0.4718893187924278 2.6662460586438086 2.1747495500983605 7.217651612095579" Properties=species:S:1:pos:R:3:initial_magmoms:R:1:castep_labels:S:1 n_minim_iter=7 pbc="T T T"
P        7.11630377       8.85315641       6.35390361       0.00000000 NULL
P        3.08296758       2.03636685       6.10991678       0.00000000 NULL
P        7.64371518       8.96435904       3.55223858       0.00000000 NULL
P        4.65809756       2.63483360       1.76355974       0.00000000 NULL
P        6.43959269       8.59180076       1.78349676       0.00000000 NULL
P        4.32301796       5.25350294       0.78818390       0.00000000 NULL
P        3.72458542       6.02321422       4.06269968       0.00000000 NULL
P        6.24036612       6.37428180       2.11659180       0.00000000 NULL
P        5.16400205       2.82832347       6.04551902       0.00000000 NULL
P        8.96649868       7.68442131       7.07992729       0.00000000 NULL
P        6.81760621       4.46673198       6.87216497       0.00000000 NULL
P        1.96908759       2.04870589       0.42558467       0.00000000 NULL
12
Lattice="5.079243573291683 0.6840106872515853 0.1493802834698125 2.4753468140087937 8.285526060002123 0.49950312467828256 2.6599430707998026 2.19323711243981 7.050607536348306" Properties=species:S:1:pos:R:3:initial_magmoms:R:1:castep_labels:S:1 n_minim_iter=8 pbc="T T T"
P        7.08047699       8.81208185       6.24629195       0.00000000 NULL
P        3.06250085       2.05347853       5.97190531       0.00000000 NULL
P        7.59298810       8.91314681       3.51827174       0.00000000 NULL
P        4.60818034       2.64011876       1.74659939       0.00000000 NULL
P        6.39625304       8.52726433       1.79215409       0.00000000 NULL
P        4.29232794       5.22242999       0.80551767       0.00000000 NULL
P        3.71518286       5.99257499       3.99448538       0.00000000 NULL
P        6.18504416       6.33955548       2.10194805       0.00000000 NULL
P        5.11484857       2.84939452       5.91783792       0.00000000 NULL
P        8.89636048       7.67705425       6.96002612       0.00000000 NULL
P        6.76106927       4.49165670       6.73579713       0.00000000 NULL
P        1.95280488       2.03831345       0.42930152       0.00000000 NULL
12
Lattice="5.0910803898909105 0.7097101156117611 0.1711233954386212 2.514259938023176 8.372492131528407 0.5184769944611352 2.7014818202804824 2.231257425131732 7.0610757208624175" Properties=species:S:1:pos:R:3:initial_magmoms:R:1:castep_labels:S:1 n_minim_iter=9 pbc="T T T"
P        7.15328126       8.92738059       6.27930337       0.00000000 NULL
P        3.09645456       2.08882015       5.98385318       0.00000000 NULL
P        7.65821721       9.02653680       3.55773924       0.00000000 NULL
P        4.63575225       2.68587141       1.77186882       0.00000000 NULL
P        6.44564581       8.62718053       1.82654537       0.00000000 NULL
P        4.32291734       5.28876386       0.83258775       0.00000000 NULL
P        3.76057086       6.07075899       4.01509222       0.00000000 NULL
P        6.22666883       6.42034397       2.13153778       0.00000000 NULL
P        5.15615652       2.89910657       5.93761931       0.00000000 NULL
P        8.97275454       7.79036060       7.00274421       0.00000000 NULL
P        6.81926692       4.57273792       6.76390452       0.00000000 NULL
P        1.96590904       2.06664191       0.44104550       0.00000000 NULL
12
Lattice="5.085530786207786 0.7306066996761964 0.19070015354168862 2.541315411147787 8.410496726575188 0.5381845450637628 2.7310365223368778 2.2600962823783175 7.038876253775932" Properties=species:S:1:pos:R:3:initial_magmoms:R:1:castep_labels:S:1 n_minim_iter=10 pbc="T T T"
P        7.19666095       8.99310188       6.28554435       0.00000000 NULL
P        3.11789530       2.11534995       5.96816899       0.00000000 NULL
P        7.69263374       9.08807077       3.58182783       0.00000000 NULL
P        4.64611022       2.71584400       1.78785892       0.00000000 NULL
P        6.46990534       8.67710391       1.85460981       0.00000000 NULL
P        4.33693478       5.32413904       0.85630044       0.00000000 NULL
P        3.78999870       6.11537556       4.01864245       0.00000000 NULL
P        6.24443607       6.46474298       2.15222656       0.00000000 NULL
P        5.17714015       2.93472264       5.92994299       0.00000000 NULL
P        9.01365584       7.86109051       7.01365757       0.00000000 NULL
P        6.85072822       4.62984175       6.76113094       0.00000000 NULL
P        1.97157722       2.08252101       0.45070620       0.00000000 NULL
12
Lattice="5.082585531238456 0.7437945119829223 0.20508882108541684 2.558558434346452 8.436030928612105 0.5515839266094499 2.75274110774615 2.2789187733889955 7.02459519832364" Properties=species:S:1:pos:R:3:initial_magmoms:R:1:castep_labels:S:1 n_minim_iter=11 pbc="T T T"
P        7.22700484       9.03633813       6.29104291       0.00000000 NULL
P        3.13390925       2.13260007       5.95839087       0.00000000 NULL
P        7.71632457       9.12831127       3.59934002       0.00000000 NULL
P        4.65397755       2.73542469       1.79966145       0.00000000 NULL
P        6.48617488       8.70969965       1.87456592       0.00000000 NULL
P        4.34618272       5.34722769       0.87308956       0.00000000 NULL
P        3.81047585       6.14510169       4.02167315       0.00000000 NULL
P        6.25682044       6.49391103       2.16749888       0.00000000 NULL
P        5.19294927       2.95755990       5.92596190       0.00000000 NULL
P        9.04322182       7.90730539       7.02276474       0.00000000 NULL
P        6.87396536       4.66724501       6.76080356       0.00000000 NULL
P        1.97543936       2.09297246       0.45762683       0.00000000 NULL
12
Lattice="5.072379324535388 0.7989686104145061 0.2701839058420471 2.6313377802405444 8.545249305953519 0.611156187592257 2.8512459601932814 2.360126996645369 6.9639825305825065" Properties=species:S:1:pos:R:3:initial_magmoms:R:1:castep_labels:S:1 n_minim_iter=12 pbc="T T T"
P        7.36196909       9.22126366       6.31886107       0.00000000 NULL
P        3.20736227       2.20676811       5.91754028       0.00000000 NULL
P        7.82093628       9.29916720       3.67916558       0.00000000 NULL
P        4.69090378       2.81905084       1.85322063       0.00000000 NULL
P        6.55734214       8.84749243       1.96444042       0.00000000 NULL
P        4.38644687       5.44484024       0.94812490       0.00000000 NULL
P        3.90135478       6.27302503       4.03678288       0.00000000 NULL
P        6.31227588       6.61816556       2.23760899       0.00000000 NULL
P        5.26590632       3.05447824       5.91129007       0.00000000 NULL
P        9.17713911       8.10462385       7.06676112       0.00000000 NULL
P        6.98031847       4.82763924       6.76316264       0.00000000 NULL
P        1.99257087       2.13748640       0.48873752       0.00000000 NULL
12
Lattice="5.0667127704553465 0.8401953895074622 0.34347789775352017 2.686311588008784 8.637258108017896 0.6697312839379841 2.95969582745959 2.4292719788643105 6.906935206672906" Properties=species:S:1:pos:R:3:initial_magmoms:R:1:castep_labels:S:1 n_minim_iter=13 pbc="T T T"
P        7.49349151       9.37522677       6.35392673       0.00000000 NULL
P        3.28987739       2.26955771       5.88145412       0.00000000 NULL
P        7.91621894       9.43607492       3.76539155       0.00000000 NULL
P        4.73087182       2.88833435       1.91261149       0.00000000 NULL
P        6.61711019       8.95581052       2.05957941       0.00000000 NULL
P        4.41758170       5.52166515       1.02673995       0.00000000 NULL
P        3.98972164       6.38355958       4.05424777       0.00000000 NULL
P        6.36299670       6.72046354       2.31688986       0.00000000 NULL
P        5.34697784       3.13119447       5.90388837       0.00000000 NULL
P        9.31504285       8.26706170       7.12024967       0.00000000 NULL
P        7.09484474       4.96275074       6.77502130       0.00000000 NULL
P        2.00691125       2.17391095       0.52189112       0.00000000 NULL
12
Lattice="5.062562993515482 0.8752068054730934 0.4211492581111141 2.7331977155668534 8.72556113210545 0.7239639836101824 3.0733464260920416 2.4896182038894787 6.856311930186766" Properties=species:S:1:pos:R:3:initial_magmoms:R:1:castep_labels:S:1 n_minim_iter=14 pbc="T T T"
P        7.62381899       9.51601223       6.39364318       0.00000000 NULL
P        3.37699759       2.32508304       5.85156902       0.00000000 NULL
P        8.00638724       9.55918588       3.85361224       0.00000000 NULL
P        4.77241351       2.95191996       1.97530400       0.00000000 NULL
P        6.67170658       9.05370798       2.15492015       0.00000000 NULL
P        4.44324729       5.58962370       1.10481226       0.00000000 NULL
P        4.07808839       6.48738811       4.07279231       0.00000000 NULL
P        6.41187627       6.81580957       2.40074319       0.00000000 NULL
P        5.43202289       3.19615817       5.90367035       0.00000000 NULL
P        9.45482226       8.41321785       7.18044306       0.00000000 NULL
P        7.21338636       5.08444613       6.79544664       0.00000000 NULL
P        2.01931541       2.20716854       0.55528841       0.00000000 NULL
12
Lattice="5.058176256058053 0.9092424170465279 0.4990676459855705 2.7786705239438163 8.81204588330894 0.7758528304277017 3.1869931188386262 2.5468322096759723 6.798602404102552" Properties=species:S:1:pos:R:3:initial_magmoms:R:1:castep_labels:S:1 n_minim_iter=15 pbc="T T T"
P        7.75293613       9.65223864       6.42632195       0.00000000 NULL
P        3.46416955       2.37886809       5.81552978       0.00000000 NULL
P        8.09386018       9.67730061       3.93694020       0.00000000 NULL
P        4.81395024       3.01466033       2.03580916       0.00000000 NULL
P        6.72525093       9.14822947       2.24742723       0.00000000 NULL
P        4.46608739       5.65313448       1.17987063       0.00000000 NULL
P        4.16714762       6.58931238       4.08546717       0.00000000 NULL
P        6.46072211       6.91058415       2.48379774       0.00000000 NULL
P        5.51689762       3.25749254       5.89757983       0.00000000 NULL
P        9.59345544       8.55458588       7.23249478       0.00000000 NULL
P        7.33173619       5.20230671       6.80961503       0.00000000 NULL
P        2.03050450       2.23905943       0.58747895       0.00000000 NULL
12
Lattice="5.061280526483074 0.9456810955090058 0.5749627435273468 2.8297111382866103 8.918417836674863 0.8320502109272413 3.3018113381151992 2.6134492626671904 6.742699729000919" Properties=species:S:1:pos:R:3:initial_magmoms:R:1:castep_labels:S:1 n_minim_iter=16 pbc="T T T"
P        7.89178709       9.81325883       6.46307254       0.00000000 NULL
P        3.55371337       2.44228645       5.78028544       0.00000000 NULL
P        8.19224985       9.81825811       4.02352638       0.00000000 NULL
P        4.86222700       3.08619130       2.09609478       0.00000000 NULL
P        6.78965144       9.26407347       2.34326124       0.00000000 NULL
P        4.49409748       5.72693854       1.25486442       0.00000000 NULL
P        4.26265324       6.70857125       4.10017484       0.00000000 NULL
P        6.52058514       7.02407018       2.57061046       0.00000000 NULL
P        5.60770646       3.32932190       5.89224272       0.00000000 NULL
P        9.74352693       8.71906415       7.28672498       0.00000000 NULL
P        7.45832161       5.33557493       6.82540193       0.00000000 NULL
P        2.04417638       2.27571786       0.61963529       0.00000000 NULL
12
Lattice="5.057483694887485 0.9601394069909628 0.6044870437145464 2.8484437473199073 8.956452027772743 0.8562746323374631 3.344292206952287 2.641251698067361 6.709468667004073" Properties=species:S:1:pos:R:3:initial_magmoms:R:1:castep_labels:S:1 n_minim_iter=17 pbc="T T T"
P        7.94030415       9.87487453       6.46985124       0.00000000 NULL
P        3.58593172       2.46925666       5.75676294       0.00000000 NULL
P        8.22414171       9.87034476       4.05453038       0.00000000 NULL
P        4.87693641       3.11433126       2.11764723       0.00000000 NULL
P        6.80956649       9.30589910       2.38099248       0.00000000 NULL
P        4.50047403       5.75253765       1.28417544       0.00000000 NULL
P        4.29776373       6.75479274       4.10063892       0.00000000 NULL
P        6.53930827       7.06777907       2.60421978       0.00000000 NULL
P        5.63857191       3.35862988       5.88098701       0.00000000 NULL
P        9.79435372       8.78322030       7.29858509       0.00000000 NULL
P        7.50184170       5.38898906       6.82158545       0.00000000 NULL
P        2.04755076       2.28906248       0.63192986       0.00000000 NULL
12
Lattice="5.057951844576398 0.973055661254071 0.628409716212218 2.8663448439737254 8.995845030011697 0.876254101110758 3.3806020119765128 2.6661254878762675 6.685989849639786" Properties=species:S:1:pos:R:3:initial_magmoms:R:1:castep_labels:S:1 n_minim_iter=18 pbc="T T T"
P        7.98538081       9.93431114       6.47841547       0.00000000 NULL
P        3.61422221       2.49357114       5.74047462       0.00000000 NULL
P        8.25614417       9.92207148       4.08151622       0.00000000 NULL
P        4.89226391       3.14037575       2.13608060       0.00000000 NULL
P        6.83097812       9.34882039       2.41258141       0.00000000 NULL
P        4.50881444       5.77837147       1.30816492       0.00000000 NULL
P        4.32953329       6.79865074       4.10281937       0.00000000 NULL
P        6.55967253       7.11043049       2.63284230       0.00000000 NULL
P        5.66740094       3.38569451       5.87472757       0.00000000 NULL
P        9.84241072       8.84377215       7.31158308       0.00000000 NULL
P        7.54214173       5.43744126       6.82165576       0.00000000 NULL
P        2.05180707       2.30206530       0.64205605       0.00000000 NULL
12
Lattice="5.0594532071695255 1.05173803780616 0.7619923434556566 2.9749854634289297 9.230212829614816 0.9919777307699089 3.5844486099840394 2.8143386137782627 6.544543321498653" Properties=species:S:1:pos:R:3:initial_magmoms:R:1:castep_labels:S:1 n_minim_iter=19 pbc="T T T"
P        8.24415628      10.28920291       6.52132299       0.00000000 NULL
P        3.77279364       2.63991052       5.63998637       0.00000000 NULL
P        8.44143097      10.23041275       4.23171795       0.00000000 NULL
P        4.98018020       3.29719336       2.23867147       0.00000000 NULL
P        6.95674411       9.60470067       2.59098492       0.00000000 NULL
P        4.55713424       5.93027876       1.44197750       0.00000000 NULL
P        4.51371714       7.06072567       4.11149959       0.00000000 NULL
P        6.68007681       7.36758625       2.79469488       0.00000000 NULL
P        5.82910781       3.54819794       5.83127802       0.00000000 NULL
P       10.11632412       9.20639485       7.37770904       0.00000000 NULL
P        7.77042173       5.72756235       6.81387673       0.00000000 NULL
P        2.07671800       2.37921760       0.69844617       0.00000000 NULL
12
Lattice="5.06956856122072 1.128361124212032 0.8039602505283647 3.0833975660247077 9.525535701503149 1.044787664326786 3.665466639762808 2.9372270007003314 6.388887223401635" Properties=species:S:1:pos:R:3:initial_magmoms:R:1:castep_labels:S:1 n_minim_iter=20 pbc="T T T"
P        8.41077387      10.67391355       6.44853717       0.00000000 NULL
P        3.83172858       2.78286046       5.50836196       0.00000000 NULL
P        8.58122688      10.56659715       4.24108609       0.00000000 NULL
P        5.04370326       3.46132028       2.26641389       0.00000000 NULL
P        7.05943512       9.89662210       2.65147734       0.00000000 NULL
P        4.58505409       6.08892328       1.48855711       0.00000000 NULL
P        4.64081270       7.35269832       4.05037769       0.00000000 NULL
P        6.78749684       7.67048317       2.85617037       0.00000000 NULL
P        5.90095207       3.69834953       5.72469319       0.00000000 NULL
P       10.28732346       9.58262377       7.29926033       0.00000000 NULL
P        7.89463717       6.01506210       6.70529909       0.00000000 NULL
P        2.09552397       2.46173201       0.71454062       0.00000000 NULL
12
Lattice="4.889777791036702 1.0829451950029807 0.7911272746173366 2.966622331769638 9.308156849673392 1.051283869715365 3.555757501896784 2.891118874880351 6.268247580908657" Properties=species:S:1:pos:R:3:initial_magmoms:R:1:castep_labels:S:1 n_minim_iter=21 pbc="T T T"
P        8.12555542      10.43512931       6.34772794       0.00000000 NULL
P        3.71046294       2.74972757       5.40187346       0.00000000 NULL
P        8.28067468      10.29726338       4.18184023       0.00000000 NULL
P        4.87166545       3.38020566       2.24088343       0.00000000 NULL
P        6.79792538       9.64239129       2.63208981       0.00000000 NULL
P        4.40984631       5.92729062       1.47959798       0.00000000 NULL
P        4.49026100       7.20897337       3.97877241       0.00000000 NULL
P        6.55210362       7.49537916       2.83536811       0.00000000 NULL
P        5.70860446       3.62118376       5.62040726       0.00000000 NULL
P        9.93634871       9.36175156       7.17468166       0.00000000 NULL
P        7.63126861       5.89089787       6.57858524       0.00000000 NULL
P        2.01894488       2.39780682       0.70678498       0.00000000 NULL
12
Lattice="5.0044654451846435 1.1225817158918783 0.8015922692048681 3.0557781451473756 9.514445639778222 1.0743547109141696 3.6314755619070054 2.9633100761781694 6.370063982233895" Properties=species:S:1:pos:R:3:initial_magmoms:R:1:castep_labels:S:1 n_minim_iter=22 pbc="T T T"
P        8.32645444      10.68304137       6.45364989       0.00000000 NULL
P        3.78949763       2.82187608       5.48717548       0.00000000 NULL
P        8.48979280      10.53941928       4.25234248       0.00000000 NULL
P        4.98871199       3.47019440       2.28027100       0.00000000 NULL
P        6.97135714       9.86600583       2.68015394       0.00000000 NULL
P        4.51865501       6.06097121       1.50620376       0.00000000 NULL
P        4.60384261       7.37681105       4.04400207       0.00000000 NULL
P        6.71732565       7.67545932       2.88686291       0.00000000 NULL
P        5.83882911       3.71637214       5.71039004       0.00000000 NULL
P       10.17705560       9.59325377       7.29181777       0.00000000 NULL
P        7.80903972       6.04376670       6.68273889       0.00000000 NULL
P        2.07076371       2.45642301       0.71961715       0.00000000 NULL
12
Lattice="4.996107698024563 1.1202387672209675 0.7982238944983537 3.05003108980716 9.505548394764602 1.0674116667999782 3.622500805230946 2.9548689261971512 6.344606146107879" Properties=species:S:1:pos:R:3:initial_magmoms:R:1:castep_labels:S:1 n_minim_iter=23 pbc="T T T"
P        8.31012687      10.66763556       6.42531270       0.00000000 NULL
P        3.77995248       2.81686169       5.46442853       0.00000000 NULL
P        8.47433493      10.52266212       4.23224412       0.00000000 NULL
P        4.97952729       3.46550284       2.27197577       0.00000000 NULL
P        6.95735580       9.85265838       2.66810769       0.00000000 NULL
P        4.50847836       6.05138867       1.49921994       0.00000000 NULL
P        4.59556359       7.36932689       4.02418177       0.00000000 NULL
P        6.70541308       7.66621764       2.87575552       0.00000000 NULL
P        5.82720003       3.70811194       5.68753588       0.00000000 NULL
P       10.15752327       9.57801366       7.26038754       0.00000000 NULL
P        7.79365341       6.03420232       6.65388983       0.00000000 NULL
P        2.06694811       2.45286482       0.71600291       0.00000000 NULL
12
Lattice="4.994206432057433 1.1206443071305239 0.7970389426112844 3.0500141765844746 9.514184527520465 1.0649704354967597 3.6201107976242524 2.954471360779286 6.3296577921226485" Properties=species:S:1:pos:R:3:initial_magmoms:R:1:castep_labels:S:1 n_minim_iter=24 pbc="T T T"
P        8.30762166      10.67448583       6.41030802       0.00000000 NULL
P        3.77661686       2.81993331       5.45055657       0.00000000 NULL
P        8.47243380      10.52614258       4.22213541       0.00000000 NULL
P        4.97773281       3.46876326       2.26927778       0.00000000 NULL
P        6.95383781       9.85784775       2.66385097       0.00000000 NULL
P        4.50462376       6.05262589       1.49683908       0.00000000 NULL
P        4.59548585       7.37729580       4.01215071       0.00000000 NULL
P        6.70401718       7.67241439       2.87260548       0.00000000 NULL
P        5.82492960       3.70911753       5.67470117       0.00000000 NULL
P       10.15411130       9.58344468       7.24328410       0.00000000 NULL
P        7.79052203       6.03913208       6.63682978       0.00000000 NULL
P        2.06642904       2.45432515       0.71450205       0.00000000 NULL
12
Lattice="4.983291075229934 1.124286235461205 0.7959981785791551 3.0517233685926937 9.568085037825242 1.0648368751362616 3.614647109806656 2.965638445584079 6.268924366242386" Properties=species:S:1:pos:R:3:initial_magmoms:R:1:castep_labels:S:1 n_minim_iter=25 pbc="T T T"
P        8.30116755      10.72912635       6.35942992       0.00000000 NULL
P        3.76438486       2.84881199       5.39300184       0.00000000 NULL
P        8.46690386      10.55689805       4.19166331       0.00000000 NULL
P        4.96988152       3.49288979       2.26668211       0.00000000 NULL
P        6.93673425       9.89535678       2.66018176       0.00000000 NULL
P        4.48491804       6.06460147       1.49578087       0.00000000 NULL
P        4.59982540       7.43171226       3.96512510       0.00000000 NULL
P        6.69939669       7.71512340       2.87400500       0.00000000 NULL
P        5.81866968       3.72641559       5.62537186       0.00000000 NULL
P       10.14255836       9.63028650       7.18215767       0.00000000 NULL
P        7.78003893       6.08107386       6.56941477       0.00000000 NULL
P        2.06469505       2.46545904       0.71176937       0.00000000 NULL
12