16
Lattice="7.663208892620737 -0.14462801360462185 0.36507114557517045 -1.6808000499584366 6.26723873469067 -0.06823982138899472 -0.6441964024527842 -1.396967963048901 7.781977319630209" Properties=species:S:1:pos:R:3:initial_magmoms:R:1:castep_labels:S:1:forces:R:3 n_minim_iter=1 energy=-83.096320896191 stress="-0.0024291685381627307 0.0008222011305961027 -8.180506282270294e-05 0.0008222011305961027 -0.004442938732767822 -0.0006964007426612227 -8.180506282270294e-05 -0.0006964007426612227 -0.001443625056267614" free_energy=-83.096320896191 pbc="T T T"
P        5.73593017       2.37543156       5.68817283       0.00000000 NULL       0.05342200       0.06040000       0.04978800
P        1.86050180      -0.15340733       2.72152145       0.00000000 NULL      -0.02713700      -0.07322200      -0.10815100
P        1.01174195       4.25684121       4.42139574       0.00000000 NULL       0.11851400      -0.05690300       0.10334700
P        3.64714774       0.28407238       6.89700231       0.00000000 NULL       0.28594000      -0.30272500       0.23883200
P        3.74245555       0.33328319       0.79412636       0.00000000 NULL       0.32222600       0.03049400      -0.31844100
P        3.62482827       0.90587321       3.73749694       0.00000000 NULL       0.12395200       0.17541100      -0.06862400
P        2.08226909       2.30864289       4.82629004       0.00000000 NULL       0.02615700       0.03273700      -0.07030300
P       -0.74053913       4.37332420       5.77384530       0.00000000 NULL       0.08039700      -0.06568600      -0.03664100
P        5.80580714       0.99885089       0.58010292       0.00000000 NULL      -0.35997900       0.01930300       0.07101700
P        2.75930816       2.33007504       7.03499494       0.00000000 NULL      -0.04826600       0.28260200       0.24866700
P        0.79742194       1.76781621       2.82475019       0.00000000 NULL       0.03632700       0.07264200      -0.06239500
P        5.37660557       2.33938454       3.39747671       0.00000000 NULL      -0.24882900       0.12810800      -0.14624000
P        6.71237628       0.81976014       4.27430048       0.00000000 NULL       0.07778700      -0.03275100      -0.01388000
P       -0.56942756       2.64974076       7.18519793       0.00000000 NULL      -0.10418100       0.04117700      -0.01006800
P        4.40999431      -0.66376470       5.05561984       0.00000000 NULL      -0.15562900      -0.26946500       0.01075700
P        0.94386997       1.21223539       6.42658497       0.00000000 NULL      -0.18070200      -0.04212200       0.11233500
16
Lattice="7.688223652614397 -0.15356858019433348 0.3664712105548185 -1.6931386339227783 6.30619228304357 -0.06272334759718143 -0.6439018039550122 -1.3973056311717504 7.795575037722289" Properties=species:S:1:pos:R:3:initial_magmoms:R:1:castep_labels:S:1:forces:R:3 n_minim_iter=2 energy=-83.105844351855 stress="0.0015808615601889768 4.462344170131715e-05 7.574067849600418e-05 4.462344170131715e-05 0.00033431829557117366 -0.0008599215284768362 7.574067849600418e-05 -0.0008599215284768362 0.0016687048575915102" free_energy=-83.105844351855 pbc="T T T"
P        5.75270301       2.38872362       5.70212393       0.00000000 NULL       0.12474100       0.05885100       0.01981500
P        1.86689423      -0.15409291       2.72642885       0.00000000 NULL      -0.03154300       0.05537800      -0.05243700
P        1.01124398       4.28488475       4.43433832       0.00000000 NULL       0.12067500      -0.06425200       0.12983100
P        3.66041895       0.28707941       6.91177972       0.00000000 NULL       0.27056900      -0.26914300       0.22886100
P        3.75544655       0.33199235       0.79523366       0.00000000 NULL       0.33851900       0.07251100      -0.32441700
P        3.63641951       0.91136677       3.74567748       0.00000000 NULL       0.10930000       0.11419700      -0.03493000
P        2.08709247       2.32465324       4.83769558       0.00000000 NULL      -0.01742000       0.02854300      -0.07018200
P       -0.74682900       4.40521083       5.78880726       0.00000000 NULL       0.11853200      -0.18249400      -0.04993200
P        5.82228666       0.99900436       0.58303202       0.00000000 NULL      -0.42415700       0.02856800       0.03809800
P        2.76627350       2.34842008       7.05188160       0.00000000 NULL      -0.07052500       0.15898500       0.18469200
P        0.79849772       1.78031219       2.83169180       0.00000000 NULL       0.07274500      -0.03039400      -0.01196500
P        5.39092473       2.35096997       3.40624975       0.00000000 NULL      -0.18833700       0.02217100      -0.06292600
P        6.73395484       0.82110315       4.28396350       0.00000000 NULL       0.03108200       0.10674700      -0.02609400
P       -0.57377588       2.67291391       7.20138471       0.00000000 NULL      -0.05451500       0.02958100      -0.08635400
P        4.42499885      -0.66881033       5.06524246       0.00000000 NULL      -0.24085800      -0.20063600       0.00293000
P        0.94564657       1.22421617       6.44057648       0.00000000 NULL      -0.15881000       0.07138700       0.11501000
16
Lattice="7.665095160911205 -0.164359788273578 0.3623380509880731 -1.6976341801826864 6.3445917546763235 -0.03114241239036416 -0.6414247473272991 -1.366021206217996 7.749974367197867" Properties=species:S:1:pos:R:3:initial_magmoms:R:1:castep_labels:S:1:forces:R:3 n_minim_iter=3 energy=-83.117990329996 stress="-0.0010609764630238687 -0.0008619687184395675 0.00012964570155391867 -0.0008619687184395675 0.0011066869253653611 0.0008846646797066847 0.00012964570155391867 0.0008846646797066847 -0.0007979156721968144" free_energy=-83.117990329996 pbc="T T T"
P        5.73213712       2.42262480       5.68469055       0.00000000 NULL       0.09212100       0.04470400       0.02039300
P        1.86042467      -0.14409034       2.71062529       0.00000000 NULL      -0.08045800       0.15779000      -0.02416000
P        1.00264437       4.32867911       4.43498234       0.00000000 NULL       0.14422500      -0.06231000       0.05369100
P        3.65188103       0.31260753       6.88164129       0.00000000 NULL       0.15182400      -0.05199900       0.01304500
P        3.74874710       0.33302202       0.78699639       0.00000000 NULL       0.15246900      -0.07394600      -0.19255400
P        3.62504587       0.93156546       3.73004350       0.00000000 NULL       0.05538100       0.08586500      -0.02599700
P        2.07612773       2.35903966       4.82343134       0.00000000 NULL       0.00241200       0.04913200      -0.14388500
P       -0.75075129       4.45757112       5.78093654       0.00000000 NULL       0.06705200      -0.14730900      -0.06740100
P        5.79648753       0.99917369       0.58460019       0.00000000 NULL      -0.15370000       0.01631900       0.10811300
P        2.75180708       2.39545951       7.03091135       0.00000000 NULL      -0.03881500       0.06427900       0.21740300
P        0.79378216       1.80316167       2.82573052       0.00000000 NULL       0.16505400      -0.05031200      -0.08626100
P        5.36702022       2.37379039       3.39834570       0.00000000 NULL      -0.14791500       0.04106000      -0.11010100
P        6.71211429       0.83771870       4.26490971       0.00000000 NULL      -0.03320500       0.12025400       0.03583800
P       -0.57869809       2.72501722       7.17764909       0.00000000 NULL      -0.02155300      -0.05543800      -0.01148400
P        4.40809554      -0.65803605       5.03586539       0.00000000 NULL      -0.18389500      -0.20571100       0.03373400
P        0.93694188       1.26212245       6.41609589       0.00000000 NULL      -0.17099600       0.06762200       0.17962800
16
Lattice="7.704141851594999 -0.1199676273784289 0.35110218310425856 -1.6700356157331244 6.321910693075945 -0.03503359133493479 -0.6644743066720967 -1.374793008308073 7.752054801529158" Properties=species:S:1:pos:R:3:initial_magmoms:R:1:castep_labels:S:1:forces:R:3 n_minim_iter=4 energy=-83.135687345506 stress="0.00035153214201181447 0.001800421413219862 -0.0007661469055182594 0.001800421413219862 0.0003867250474597417 0.000861167750227663 -0.0007661469055182594 0.000861167750227663 -0.0003906677113031561" free_energy=-83.135687345506 pbc="T T T"
P        5.77251767       2.44772797       5.67469386       0.00000000 NULL       0.05533800       0.05285100      -0.03018100
P        1.86261818      -0.13131464       2.70581065       0.00000000 NULL       0.04263100       0.07284100      -0.02994500
P        1.03249518       4.31823187       4.43310367       0.00000000 NULL       0.07138400       0.01022700       0.07522100
P        3.67270545       0.31835961       6.88131658       0.00000000 NULL      -0.02096600       0.14022200      -0.15808300
P        3.78093545       0.35280313       0.76882127       0.00000000 NULL       0.07334400      -0.14692600      -0.11853300
P        3.64794808       0.95215106       3.72196899       0.00000000 NULL       0.04828600       0.03275400      -0.07065800
P        2.09328711       2.36330074       4.81267607       0.00000000 NULL      -0.05756400      -0.06479400       0.05140000
P       -0.73365563       4.43104703       5.77456656       0.00000000 NULL       0.07676700      -0.05170600      -0.10952900
P        5.81864554       1.03118740       0.57871396       0.00000000 NULL       0.04474900      -0.02438500       0.22198000
P        2.76697769       2.40567583       7.03421478       0.00000000 NULL      -0.17614700      -0.07147400       0.08249500
P        0.80962277       1.79989795       2.81991656       0.00000000 NULL      -0.06573400       0.00553000       0.03056600
P        5.39546112       2.39881470       3.38322146       0.00000000 NULL      -0.17008300       0.02087900      -0.08632900
P        6.74616023       0.87528329       4.25433236       0.00000000 NULL       0.07330100       0.11108700      -0.03008000
P       -0.57911045       2.70825286       7.17369476       0.00000000 NULL      -0.02330700      -0.03100500       0.06598000
P        4.41027853      -0.64657687       5.03068803       0.00000000 NULL      -0.09666700      -0.17824800      -0.00328100
P        0.93130405       1.26123259       6.42029588       0.00000000 NULL       0.12466800       0.12214600       0.10897600
16
Lattice="7.711544726369289 -0.14746563527293532 0.3664583853242854 -1.6933338991754134 6.31201586292737 -0.058915768460500534 -0.6453985021237517 -1.3946088115123687 7.763282073024751" Properties=species:S:1:pos:R:3:initial_magmoms:R:1:castep_labels:S:1:forces:R:3 n_minim_iter=5 energy=-83.143596025072 stress="-0.0004765116211891603 -0.00018161776004314574 6.378731359439248e-05 -0.00018161776004314574 -0.00031125772988878527 -0.00039199144477018944 6.378731359439248e-05 -0.00039199144477018944 4.6443731027216445e-05" free_energy=-83.143596025072 pbc="T T T"
P        5.78228971       2.40454510       5.68371958       0.00000000 NULL       0.02376100      -0.00971500      -0.04222700
P        1.86897254      -0.14370131       2.71136303       0.00000000 NULL       0.05178200       0.02682300      -0.03319800
P        1.03038353       4.28802700       4.42802067       0.00000000 NULL       0.03638200      -0.07257000       0.02200200
P        3.69216441       0.27995143       6.89547503       0.00000000 NULL      -0.02480400       0.21643800      -0.12412600
P        3.79011351       0.33478994       0.76913910       0.00000000 NULL      -0.08038000      -0.21372200      -0.09573700
P        3.65700158       0.92748684       3.72826216       0.00000000 NULL       0.03217800      -0.06073300       0.03170200
P        2.09549396       2.33455700       4.81205122       0.00000000 NULL      -0.04834600      -0.04139900       0.09768900
P       -0.73593597       4.39977025       5.76243590       0.00000000 NULL       0.09994500       0.01129700      -0.03857700
P        5.81540141       1.00685437       0.59056817       0.00000000 NULL       0.14086600       0.04152100       0.18357000
P        2.77172292       2.36900101       7.04399706       0.00000000 NULL      -0.14914400      -0.09008000       0.05153800
P        0.81134473       1.78274164       2.81755499       0.00000000 NULL      -0.03625900       0.02298600       0.01888500
P        5.39280449       2.36415510       3.38627807       0.00000000 NULL      -0.05708400      -0.02995700      -0.04388400
P        6.75756446       0.83884159       4.26853675       0.00000000 NULL      -0.01881100       0.13344600      -0.08718700
P       -0.57633898       2.67930556       7.17088376       0.00000000 NULL      -0.04609600       0.00869000       0.06433400
P        4.42060619      -0.68294742       5.04669931       0.00000000 NULL      -0.04220500      -0.03523900      -0.07157600
P        0.93755501       1.23604346       6.42864616       0.00000000 NULL       0.11821600       0.09221300       0.06679400
16
Lattice="7.813575826821275 -0.14594301261142598 0.3791742853534724 -1.7171475194056496 6.291365577745022 -0.013217369591050568 -0.6373138212020903 -1.3292850530999445 7.704643555920444" Properties=species:S:1:pos:R:3:initial_magmoms:R:1:castep_labels:S:1:forces:R:3 n_minim_iter=6 energy=-83.159794341202 stress="0.002619097389776151 -0.0005483801112135057 0.0008256963054250982 -0.0005483801112135057 -0.0022961949718585434 0.0017487909545554096 0.0008256963054250982 0.0017487909545554096 -0.0003366996372452963" free_energy=-83.159794341202 pbc="T T T"
P        5.88004588       2.44310432       5.67655740       0.00000000 NULL       0.01412400      -0.02217000       0.00337400
P        1.90237190      -0.11169050       2.69140830       0.00000000 NULL       0.11279400       0.05944300      -0.01970300
P        1.06615010       4.29704920       4.44634589       0.00000000 NULL      -0.03912400      -0.02382800      -0.07933800
P        3.76504560       0.34831305       6.85498594       0.00000000 NULL       0.11309100       0.17212600      -0.02715400
P        3.84976062       0.31195194       0.74620118       0.00000000 NULL       0.05720100      -0.23226000       0.01496600
P        3.72245109       0.95332043       3.72050586       0.00000000 NULL      -0.13421900      -0.03225300      -0.12725400
P        2.12551134       2.36048983       4.81059905       0.00000000 NULL      -0.01040100      -0.04663600       0.02092200
P       -0.71612748       4.42047393       5.75024981       0.00000000 NULL       0.04429900       0.18937600      -0.10263400
P        5.89118488       1.01241231       0.63589387       0.00000000 NULL      -0.18924000       0.03252300       0.05622000
P        2.79848015       2.41175593       7.04547029       0.00000000 NULL      -0.10929800      -0.03937300       0.05458200
P        0.82924053       1.79904853       2.81580752       0.00000000 NULL       0.00750300       0.10657800       0.00810500
P        5.44911776       2.38097621       3.38344641       0.00000000 NULL       0.02840800       0.03199200      -0.14626900
P        6.85476560       0.89138603       4.25426171       0.00000000 NULL      -0.05269700      -0.00471800      -0.00747800
P       -0.57759622       2.72620941       7.15290814       0.00000000 NULL       0.03866200      -0.13569900       0.15118600
P        4.46934394      -0.66317692       5.01361917       0.00000000 NULL       0.12955300       0.02603200       0.01311900
P        0.96857207       1.29907658       6.42031854       0.00000000 NULL      -0.01065600      -0.08113200       0.18735600
16
Lattice="7.783828501762318 -0.1136861314372393 0.3508943647735933 -1.682467262470132 6.347567838146013 -0.02292214844865539 -0.6688180757349995 -1.366171445143762 7.6775706617889865" Properties=species:S:1:pos:R:3:initial_magmoms:R:1:castep_labels:S:1:forces:R:3 n_minim_iter=7 energy=-83.172168351928 stress="-0.0001720105377563566 0.00011236617990541488 -0.0006608784364172305 0.00011236617990541488 0.0001256848229206737 -0.00031359350372291237 -0.0006608784364172305 -0.00031359350372291237 0.00017985432356376198" free_energy=-83.172168351928 pbc="T T T"
P        5.85982086       2.48161048       5.62248571       0.00000000 NULL      -0.02640800       0.07833300       0.00393600
P        1.89039524      -0.10034375       2.66738954       0.00000000 NULL       0.13967900       0.11047800      -0.03440600
P        1.07803134       4.32227148       4.42056413       0.00000000 NULL      -0.11168400      -0.07460700      -0.20346300
P        3.73966516       0.36911988       6.80295645       0.00000000 NULL       0.05739100      -0.08079700       0.22113500
P        3.84294633       0.30088056       0.70251907       0.00000000 NULL       0.10151800      -0.00589500      -0.15677600
P        3.70706166       0.96931764       3.68750673       0.00000000 NULL      -0.20827000      -0.17132500      -0.09729600
P        2.10456751       2.37687343       4.78216610       0.00000000 NULL       0.02307300      -0.07084800       0.00096500
P       -0.69625338       4.44052944       5.70637830       0.00000000 NULL      -0.11123300       0.10734800       0.06693100
P        5.86855257       1.05305409       0.63820255       0.00000000 NULL      -0.18740500       0.03804600       0.03462800
P        2.74998904       2.42507017       7.01888988       0.00000000 NULL       0.12929000       0.08770400       0.18266200
P        0.82606768       1.81549441       2.79639489       0.00000000 NULL      -0.01515900       0.10020200      -0.03005200
P        5.40964696       2.41994132       3.33101401       0.00000000 NULL       0.00792200       0.01664000      -0.21971700
P        6.81799982       0.94191550       4.20134991       0.00000000 NULL      -0.03941700      -0.11511800      -0.00473800
P       -0.59583376       2.72956838       7.12532025       0.00000000 NULL       0.01832500       0.00443000       0.11933800
P        4.41604214      -0.68231217       4.97244191       0.00000000 NULL       0.37762700       0.22678800       0.05332700
P        0.95319451       1.31434174       6.40667917       0.00000000 NULL      -0.15524800      -0.25138100       0.06352800
16
Lattice="7.7880744808707405 -0.07973750246854641 0.4157666715435853 -1.655474969281104 6.359948673425194 -0.03348534878467068 -0.6073825320895836 -1.3688378128413248 7.632361371437474" Properties=species:S:1:pos:R:3:initial_magmoms:R:1:castep_labels:S:1:forces:R:3 n_minim_iter=8 energy=-83.18991884119 stress="-0.00028961594066613083 0.0016696360297876179 0.0020894908060132516 0.0016696360297876179 0.0007983358466418203 -0.000250720965478792 0.0020894908060132516 -0.000250720965478792 0.0009154954227484959" free_energy=-83.18991884119 pbc="T T T"
P        5.92789016       2.52419540       5.64275162       0.00000000 NULL      -0.00788300       0.16286800       0.08848100
P        1.92580198      -0.07506634       2.66363441       0.00000000 NULL       0.18879400       0.05887300      -0.06521100
P        1.13967673       4.32947960       4.40553241       0.00000000 NULL       0.17064300       0.09681200      -0.26776800
P        3.81246191       0.40597474       6.80187111       0.00000000 NULL       0.10749800      -0.12344000       0.33172100
P        3.86037124       0.29193812       0.70404993       0.00000000 NULL       0.05825700      -0.00718800      -0.12665600
P        3.73842879       0.98017249       3.69498002       0.00000000 NULL      -0.14652500      -0.13305200      -0.07941500
P        2.15261572       2.38873256       4.78251325       0.00000000 NULL       0.07684500      -0.07377100       0.03610900
P       -0.61771265       4.45618673       5.66841516       0.00000000 NULL      -0.29227300       0.01063600       0.21226800
P        5.87025138       1.08939695       0.71159648       0.00000000 NULL      -0.22218500       0.07171500      -0.00518400
P        2.80895371       2.44745779       7.03232050       0.00000000 NULL       0.04018000       0.05416700       0.09920400
P        0.85920442       1.83340987       2.78912173       0.00000000 NULL       0.08635100       0.19786800      -0.09143700
P        5.43626265       2.45293512       3.34014861       0.00000000 NULL      -0.00777500      -0.06549300      -0.22771200
P        6.85670668       0.99049765       4.23115685       0.00000000 NULL      -0.09964000      -0.17094700       0.03645900
P       -0.52584417       2.73718340       7.09889373       0.00000000 NULL      -0.15385000       0.10113000       0.06792600
P        4.46487340      -0.66484148       4.98216293       0.00000000 NULL       0.26367000       0.12067900      -0.09420200
P        1.01336295       1.32613979       6.40319761       0.00000000 NULL      -0.06210500      -0.30085600       0.08541900
16
Lattice="7.86088744007392 -0.08295860558803465 0.39548790135708256 -1.674309726762325 6.365325166924635 -0.022734993427251996 -0.6261922289764101 -1.3614366101291713 7.481700490296997" Properties=species:S:1:pos:R:3:initial_magmoms:R:1:castep_labels:S:1:forces:R:3 n_minim_iter=9 energy=-83.256532503763 stress="0.0018551389991485374 0.0016966276750404973 -2.5535420765934853e-05 0.0016966276750404973 0.001069611941780608 -0.0008379825098276702 -2.5535420765934853e-05 -0.0008379825098276702 0.00026842813007444137" free_energy=-83.256532503763 pbc="T T T"
P        5.99192395       2.55034041       5.51900078       0.00000000 NULL      -0.06156600       0.16106200       0.20331800
P        1.97923301      -0.02560941       2.58824620       0.00000000 NULL      -0.00767400      -0.09885100      -0.24561400
P        1.15796258       4.29995904       4.30321343       0.00000000 NULL       0.23197300       0.38695800      -0.16384800
P        3.86915464       0.45702839       6.67069150       0.00000000 NULL       0.05254500      -0.28499100       0.32899600
P        3.92111899       0.20861560       0.60218649       0.00000000 NULL       0.08951900       0.12263000      -0.07357400
P        3.74589507       0.94874762       3.59871928       0.00000000 NULL       0.10093900       0.13967100       0.00547600
P        2.15088427       2.37077009       4.70376409       0.00000000 NULL       0.08014200      -0.02199100       0.10318100
P       -0.61601350       4.47008436       5.55132709       0.00000000 NULL      -0.20845500      -0.06240400       0.24942400
P        5.89277119       1.11095459       0.76462548       0.00000000 NULL      -0.20213100       0.06122700       0.12445700
P        2.77957818       2.45105700       6.96251703       0.00000000 NULL       0.15623700       0.12403900       0.17133900
P        0.86601872       1.86300194       2.72890844       0.00000000 NULL      -0.00772500       0.13002800      -0.17138000
P        5.43794824       2.45264687       3.20146318       0.00000000 NULL       0.00939300      -0.21716400      -0.51049500
P        6.89859300       1.02849624       4.11626700       0.00000000 NULL      -0.06574400      -0.23376200       0.01864600
P       -0.56295680       2.74229057       7.00240185       0.00000000 NULL      -0.05939400       0.10755500      -0.02149900
P        4.52415630      -0.66820820       4.86541866       0.00000000 NULL       0.12592200      -0.00968000      -0.10275300
P        1.00478077       1.32664534       6.33683620       0.00000000 NULL      -0.23398100      -0.30432700       0.08432600
16
Lattice="7.822368698213235 -0.0733932009852441 0.4038386187338929 -1.6603125979343099 6.349581797448803 0.01720591079663075 -0.6154234949496561 -1.3068298094074666 7.486660562223822" Properties=species:S:1:pos:R:3:initial_magmoms:R:1:castep_labels:S:1:forces:R:3 n_minim_iter=10 energy=-83.300323013944 stress="0.0010893751638283834 0.0023582070580063217 -0.000728159603068107 0.0023582070580063217 0.0010631954677839525 0.00123633480726798 -0.000728159603068107 0.00123633480726798 0.00446492306863286" free_energy=-83.300323013944 pbc="T T T"
P        5.98138732       2.60434515       5.55396222       0.00000000 NULL      -0.06852900       0.13549900       0.27774600
P        1.99512662       0.02069062       2.57352859       0.00000000 NULL      -0.05982900      -0.14386800      -0.38053400
P        1.18184237       4.30990653       4.32589725       0.00000000 NULL       0.14509800       0.44393600      -0.06721800
P        3.87874905       0.53548915       6.69716909       0.00000000 NULL       0.11663200      -0.49473200       0.27355300
P        3.91530630       0.15773105       0.55469378       0.00000000 NULL       0.10135600       0.25531400      -0.00199100
P        3.72629396       0.95883839       3.60673680       0.00000000 NULL       0.15360700       0.29957200       0.07138200
P        2.14163676       2.38508139       4.74567403       0.00000000 NULL       0.09768100      -0.06912900       0.18253200
P       -0.59100786       4.50014813       5.58830273       0.00000000 NULL      -0.16888700      -0.06269300       0.18421300
P        5.84870888       1.13711460       0.83755648       0.00000000 NULL      -0.25222900       0.04973000       0.13226900
P        2.75120309       2.49430981       7.04612748       0.00000000 NULL       0.18910300       0.12665300       0.04630600
P        0.86951651       1.89803530       2.73739640       0.00000000 NULL       0.02013700       0.16843200      -0.10209000
P        5.39041217       2.46236989       3.16839935       0.00000000 NULL      -0.01370500      -0.23061400      -0.68188800
P        6.85665175       1.08079998       4.12223008       0.00000000 NULL      -0.00515600      -0.22820400       0.14779700
P       -0.56210444       2.78320549       7.05942924       0.00000000 NULL      -0.14210300       0.08618800      -0.19305600
P        4.52325387      -0.63629379       4.86296655       0.00000000 NULL       0.14228600      -0.03010500       0.10187100
P        0.99881298       1.35907294       6.40200978       0.00000000 NULL      -0.25546500      -0.30597800       0.00910800
16
Lattice="7.843850744603501 -0.052062189493150036 0.4391138207054478 -1.6476169010559754 6.357325464442474 0.014473614071705894 -0.5774718786418663 -1.3048550646519816 7.323207120671464" Properties=species:S:1:pos:R:3:initial_magmoms:R:1:castep_labels:S:1:forces:R:3 n_minim_iter=11 energy=-83.369488495437 stress="0.0026858456821355374 0.004078529601317467 -0.0011647495909227561 0.004078529601317467 0.0024380069226307 0.0009042220968618591 -0.0011647495909227561 0.0009042220968618591 0.000909613447595979" free_energy=-83.369488495437 pbc="T T T"
P        6.04895436       2.65468962       5.47826361       0.00000000 NULL      -0.03321200       0.21198700       0.68566800
P        2.04696017       0.06519090       2.49196889       0.00000000 NULL      -0.09837700      -0.19612400      -0.57989600
P        1.25371361       4.31304747       4.22376232       0.00000000 NULL       0.14336000       0.40487100      -0.04460500
P        3.95964093       0.59535317       6.58643584       0.00000000 NULL       0.11069200      -0.72089100       0.52075700
P        3.94371246       0.08057698       0.48631716       0.00000000 NULL       0.22798300       0.62136200       0.21938100
P        3.75325598       0.95432702       3.54253083       0.00000000 NULL       0.14772000       0.47710700       0.07039700
P        2.17191267       2.37582035       4.68629043       0.00000000 NULL       0.10935900       0.04964200       0.14343500
P       -0.53082917       4.51538469       5.46947010       0.00000000 NULL      -0.14356500      -0.06367700       0.23526100
P        5.84861091       1.18549649       0.94441559       0.00000000 NULL      -0.38396600      -0.14455600      -0.10612100
P        2.76851070       2.50880089       6.99069428       0.00000000 NULL       0.15692800       0.07424100       0.02001400
P        0.89718812       1.93834468       2.67054622       0.00000000 NULL      -0.01082800       0.07500100      -0.11770900
P        5.38780718       2.46165639       3.03340252       0.00000000 NULL      -0.13518500      -0.27783600      -1.08987800
P        6.87818931       1.13454117       4.05197624       0.00000000 NULL       0.15860000      -0.27344400       0.20612500
P       -0.53763899       2.79137429       6.94585147       0.00000000 NULL      -0.20770900       0.10827700      -0.26037600
P        4.58643031      -0.63271921       4.76778942       0.00000000 NULL       0.18060000      -0.09688300       0.11232600
P        1.02477834       1.35252643       6.33748940       0.00000000 NULL      -0.22239900      -0.24907700      -0.01477900
16
Lattice="7.848301142540569 -0.03765922045566712 0.45200717626656345 -1.637785076223761 6.3321431762237586 0.022475846836600873 -0.5641119686988039 -1.2874045411593165 7.261554583865319" Properties=species:S:1:pos:R:3:initial_magmoms:R:1:castep_labels:S:1:forces:R:3 n_minim_iter=12 energy=-83.432638230621 stress="0.0017629454553644494 0.00468733041130679 -0.0020912022980466233 0.00468733041130679 0.0019083662926576846 -6.753451606972849e-05 -0.0020912022980466233 -6.753451606972849e-05 -0.0013943551165379003" free_energy=-83.432638230621 pbc="T T T"
P        6.08289644       2.68605382       5.47836075       0.00000000 NULL      -0.07039800       0.24750900       0.76213000
P        2.08112657       0.09966745       2.43162854       0.00000000 NULL      -0.08324900      -0.19649600      -0.72957000
P        1.28702872       4.28189638       4.18437758       0.00000000 NULL       0.20253500       0.63221700      -0.05059800
P        4.00490438       0.64092395       6.55899539       0.00000000 NULL       0.12368000      -0.82323100       0.50024900
P        3.95813112       0.03174542       0.44026489       0.00000000 NULL       0.15388400       0.78860700       0.36474400
P        3.75523211       0.95327412       3.52239843       0.00000000 NULL       0.16395100       0.56524600       0.07427500
P        2.17939963       2.36547217       4.68468043       0.00000000 NULL       0.19093500      -0.04656500       0.15563300