18
Lattice="8.446796714057305 -1.523416850049797 0.5800811861631813 -1.963470242152926 8.355474746284909 0.5800811861631736 -0.34282873713572914 -0.3612691402715143 5.271303528819284" Properties=species:S:1:pos:R:3:initial_magmoms:R:1:castep_labels:S:1:forces:R:3 n_minim_iter=18 energy=-95.610366566787 stress="7.072468925045521e-05 1.7452267374867135e-05 -1.2097279134248127e-05 1.7452267374867135e-05 7.255592875242855e-05 -1.2735438354632775e-05 -1.2097279134248127e-05 -1.2735438354632775e-05 1.0016325154732966e-05" free_energy=-95.610366566787 pbc="T T T"
P       -1.54302937       4.99441654       4.70365970       0.00000000 NULL      -0.00017400       0.00256800      -0.00244400
P        1.07215924       7.75027343       1.72780621       0.00000000 NULL      -0.00257400       0.00004000       0.00244400
P        3.08220903       1.55178850       1.77592992       0.00000000 NULL       0.00073600      -0.00456400      -0.00090700
P        4.75217273       3.31157782       4.65553599       0.00000000 NULL       0.00459600      -0.00049500       0.00090600
P       -1.63726493       6.30487911       1.57760815       0.00000000 NULL       0.00236100      -0.00108500       0.00390600
P       -0.24143951       7.77578454       4.85385776       0.00000000 NULL       0.00120400      -0.00230000      -0.00390500
P       -0.79365261       4.55743192       2.55724011       0.00000000 NULL      -0.00075800      -0.00011900       0.00075600
P        1.54777041       7.02479766       3.87422580       0.00000000 NULL       0.00008200       0.00076200      -0.00075700
P        4.15124689       5.39982772       4.12110493       0.00000000 NULL       0.00062200      -0.00217100       0.00164500
P        0.96536686       2.04258251       2.31036098       0.00000000 NULL       0.00220000      -0.00050800      -0.00164500
P        1.37012492       4.28532338       2.16780928       0.00000000 NULL      -0.00271300       0.00422300       0.00194700
P        1.93276739       4.87822980       4.26365662       0.00000000 NULL      -0.00435900       0.00248800      -0.00194700
P        2.36016976       1.55668107       3.99924198       0.00000000 NULL       0.00218600       0.00097900      -0.00225800
P        4.70949221       4.03237115       2.43222393       0.00000000 NULL      -0.00086300      -0.00223400       0.00225800
P        5.26719589      -0.75549092       0.79217037       0.00000000 NULL      -0.00091500       0.00352200      -0.00078800
P        7.17066075       1.25035935       5.63929554       0.00000000 NULL      -0.00356600       0.00072900       0.00079000
P        5.22231136       0.65758508       4.68976398       0.00000000 NULL       0.00176000      -0.00008100      -0.00164800
P        5.75717249       1.22121584       1.74170193       0.00000000 NULL       0.00017500      -0.00175400       0.00164700
