10
Lattice="7.282482855996487 -0.35130165713808276 0.09257049951364893 2.7873342172987203 4.367742993328153 0.3419449001659168 2.965584107457779 0.6751705029308607 6.398689237167068" Properties=species:S:1:pos:R:3:initial_magmoms:R:1:castep_labels:S:1:forces:R:3 n_minim_iter=3 energy=-54.081509133428 stress="-8.590800998158024e-05 1.2189650064953952e-05 -9.674325448376152e-06 1.2189650064953952e-05 -1.4366373290838584e-05 4.595304587978672e-06 -9.674325448376152e-06 4.595304587978672e-06 6.152870985167233e-05" free_energy=-54.081509133428 pbc="T T T"
P        9.15000722       2.67990222       2.99163727       0.00000000 NULL      -0.00469100      -0.00798000       0.00055500
P       12.39109538       3.19502550       6.09124925       0.00000000 NULL       0.00119800      -0.00250100       0.00075200
P        9.29485023       4.32541151       4.49694071       0.00000000 NULL       0.00436000       0.00473300      -0.00131000
P        3.92562916       1.65101676       5.85589438       0.00000000 NULL      -0.00530500       0.00196800       0.00128500
P        5.10110588       4.13346771       1.10073651       0.00000000 NULL      -0.00323700      -0.00032400       0.00330200
P        4.14045821       2.92029366       2.73567176       0.00000000 NULL      -0.00436000      -0.00473000       0.00131200
P        8.33420256       3.11223746       6.13187596       0.00000000 NULL       0.00323600       0.00032400      -0.00330200
P        8.78044986      -0.15324171       3.99160080       0.00000000 NULL       0.00469200       0.00797700      -0.00056100
P        6.72234506       1.22694541       1.03477319       0.00000000 NULL       0.00530600      -0.00196700      -0.00128400
P        5.53936170      -0.66836499       0.89198882       0.00000000 NULL      -0.00119800       0.00249900      -0.00075000
