12
Lattice="3.307516515209462 0.0 0.0 0.0 9.364103836406551 0.0 0.0 0.0 9.364103836406551" Properties=species:S:1:pos:R:3:initial_magmoms:R:1:castep_labels:S:1:forces:R:3 n_minim_iter=14 energy=-64.682459265254 stress="-1.8550163155597665e-05 -0.0 0.0 -0.0 5.068539003481146e-05 0.0 0.0 0.0 5.068539003481146e-05" free_energy=-64.682459265254 pbc="T T T"
P        3.08690180       2.65671108       1.41457255       0.00000000 NULL       0.00245400      -0.00265700      -0.00504000
P        1.43314354       6.70739276       7.94953129       0.00000000 NULL       0.00245000       0.00265700       0.00504000
P        2.26002267       1.41457255       6.70739276       0.00000000 NULL       0.00245400      -0.00504000       0.00265700
P        0.60626441       7.94953129       2.65671108       0.00000000 NULL       0.00245000       0.00504000      -0.00265700
P        2.29210673       8.97808688       5.35046204       0.00000000 NULL       0.00132500       0.00068500       0.00218500
P        0.63834847       0.38601696       4.01364180       0.00000000 NULL       0.00132200      -0.00068500      -0.00218500
P        1.46522760       5.35046204       0.38601696       0.00000000 NULL       0.00132200       0.00218500      -0.00068500
P       -0.18853066       4.01364180       8.97808688       0.00000000 NULL       0.00132500      -0.00218500       0.00068500
P        3.08534081       8.01984000      -0.69829602       0.00000000 NULL      -0.00377300       0.00189200      -0.00095200
P        1.43158255       1.34426384      10.06239985       0.00000000 NULL      -0.00377700      -0.00189200       0.00095200
P        2.25846168      -0.69829602       1.34426384       0.00000000 NULL      -0.00377300      -0.00095100      -0.00189200
P        0.60470343      10.06239985       8.01984000       0.00000000 NULL      -0.00377700       0.00095200       0.00189200
