2
Lattice="2.376541427798235 0.5184932956350077 -0.10457051304615934 1.8494541217690739 2.898701225118107 -0.21929913799174053 0.15768238932593628 0.27940986900207704 4.862048095681709" Properties=species:S:1:pos:R:3:initial_magmoms:R:1:castep_labels:S:1:forces:R:3 n_minim_iter=4 energy=-11.11233655974 stress="-0.00035609231970166344 -0.001419533883582771 0.00030393912835835485 -0.001419533883582771 0.003882131594031714 0.0007633016746272321 0.00030393912835835485 0.0007633016746272321 0.00044761944358230436" free_energy=-11.11233655974 pbc="T T T"
P        3.87996775       3.27235062       3.80672282       0.00000000 NULL      -0.00400400       0.00110700      -0.00705900
P        3.79889135       3.13304894       1.37013332       0.00000000 NULL       0.00400400      -0.00110700       0.00705900
