28
Lattice="3.5156477298579336 -1.9731011588914423e-16 0.2081065107684236 1.7578238649289664 6.318157388738407 0.10405325538421355 -0.4430920445605041 -8.885462434672701e-15 25.488680302550534" Properties=species:S:1:pos:R:3:initial_magmoms:R:1:castep_labels:S:1:forces:R:3 n_minim_iter=9 energy=-150.515479524881 stress="3.2642387235655842e-06 0.0 -3.7935747327924355e-06 0.0 3.6347739300243806e-06 -1.764453364089505e-08 -3.7935747327924355e-06 -1.764453364089505e-08 -2.9995707189521584e-07" free_energy=-150.515479524881 pbc="T T T"
P        2.55183318       3.37557351      22.75363861       0.00000000 NULL      -0.00009400       0.00320800       0.00614400
P        1.01555534       2.94258389       9.90524521       0.00000000 NULL      -0.00009500      -0.00320900       0.00614200
P        0.80644504       4.54808175      23.46548819       0.00000000 NULL       0.00343300       0.00787700      -0.00123700
P       -0.72983280       1.77007565      10.61709478       0.00000000 NULL       0.00343300      -0.00787600      -0.00123700
P        2.37006643       4.78997757       5.88860504       0.00000000 NULL      -0.00186800       0.00407200      -0.00499400
P        0.39069655       1.52817983      18.52889194       0.00000000 NULL      -0.00186900      -0.00407100      -0.00499400
P        4.40538917       1.61760025       0.19383389       0.00000000 NULL      -0.00366400      -0.00081800      -0.00278400
P        2.42601928       4.70055715      12.83412078       0.00000000 NULL      -0.00366400       0.00081700      -0.00278200
P        1.04637505       4.89483346      10.96242902       0.00000000 NULL      -0.00414500      -0.00484600      -0.00173200
P        2.58265289       1.42332394      23.81082243       0.00000000 NULL      -0.00414600       0.00484700      -0.00173400
P        2.31406087       0.80501696      16.05544435       0.00000000 NULL      -0.00039000       0.00090700       0.00960800
P        4.29343076       5.51314044       3.41515746       0.00000000 NULL      -0.00038800      -0.00090800       0.00960500
P        4.20601978       4.65500541      14.52285052       0.00000000 NULL      -0.00287700       0.00478800       0.00791700
P        2.66974194       1.66315199       1.67445711       0.00000000 NULL      -0.00287800      -0.00478700       0.00791900
P        1.12791968       5.89660495       7.60995305       0.00000000 NULL       0.00367800      -0.00332700      -0.00488200
P       -0.85145021       0.42155245      20.25023995       0.00000000 NULL       0.00367900       0.00332700      -0.00488200
P        2.46660243       5.76224338       9.41773803       0.00000000 NULL       0.00659400      -0.00230400      -0.00517500
P        0.48723255       0.55591402      22.05802493       0.00000000 NULL       0.00659400       0.00230400      -0.00517400
P        2.51087376       2.43370403      12.90562867       0.00000000 NULL      -0.00243000      -0.00184000      -0.00394400
P        4.04715161       3.88445337      25.75402207       0.00000000 NULL      -0.00242900       0.00184000      -0.00394500
P        3.43753009       4.04841049       8.33597876       0.00000000 NULL      -0.00050600      -0.00032800      -0.00413700
P        1.45816020       2.26974691      20.97626565       0.00000000 NULL      -0.00050700       0.00032800      -0.00413800
P        4.25731444       3.76620123       4.86370108       0.00000000 NULL       0.00363700      -0.00442300      -0.00208300
P        2.27794455       2.55195617      17.50398797       0.00000000 NULL       0.00363600       0.00442300      -0.00208300
P        2.62429885       3.91299908       1.59874281       0.00000000 NULL      -0.00079300       0.00492800       0.00523400
P        4.16057669       2.40515832      14.44713622       0.00000000 NULL      -0.00079300      -0.00492700       0.00523200
P        2.46916975       6.50751422       4.38065302       0.00000000 NULL      -0.00057500       0.00378700       0.00206900
P        4.00544759      -0.18935682      17.22904643       0.00000000 NULL      -0.00057300      -0.00378600       0.00206500
