10
Lattice="3.3239724717465955 -1.0176666119984836 0.08713327989566505 -2.6635999421910186 7.446354007201042 -0.35227081192096327 -0.37473863473503843 -3.3848210914659327 7.929946902121673" Properties=species:S:1:pos:R:3:initial_magmoms:R:1:castep_labels:S:1:forces:R:3 n_minim_iter=14 energy=-53.990237788461 stress="-3.138950511560572e-05 2.0382795529614107e-06 -3.267070940603861e-05 2.0382795529614107e-06 -2.7371182568338944e-06 -3.7620816891802035e-05 -3.267070940603861e-05 -3.7620816891802035e-05 -6.924326824203191e-05" free_energy=-53.990237788461 pbc="T T T"
P       -1.28191136       4.87079244       2.51011651       0.00000000 NULL       0.00213700      -0.00051500      -0.00607400
P        2.12310876       0.36789589       4.25386912       0.00000000 NULL      -0.00387700      -0.00146700       0.00383800
P       -0.28921864       1.31595731       2.13043904       0.00000000 NULL       0.00439500       0.00280500      -0.00368300
P       -0.35963355       2.58702839       7.07366988       0.00000000 NULL       0.00069200      -0.00182200       0.00296700
P       -1.75509548       3.61585872       4.29660299       0.00000000 NULL      -0.00177100       0.00169200      -0.00173900
P       -0.52868954      -2.30943789       5.70562194       0.00000000 NULL      -0.00165900      -0.00165100      -0.00070700
P        1.76315822       1.99259388      -0.32089435       0.00000000 NULL       0.00333800       0.00191400       0.00311600
P        0.33301612       3.17110999       1.02228232       0.00000000 NULL      -0.00141600      -0.00432100      -0.00118500
P       -1.71849293       4.01779335       8.19241226       0.00000000 NULL       0.00310600      -0.00002700       0.00337000
P        3.58725291      -1.87750924       3.89700345       0.00000000 NULL      -0.00494500       0.00339200       0.00009800
