9
Lattice="5.092202509563798 -1.1982332821996855 -1.0047587232178032 -0.0962795495780565 5.230393832715775 -1.0047587232181654 -0.09627954957835942 -0.07770628265071101 5.325459742672992" Properties=species:S:1:pos:R:3:initial_magmoms:R:1:castep_labels:S:1:forces:R:3 n_minim_iter=17 energy=-47.635354304757 stress="-3.723301604725291e-05 1.8545180406677694e-05 1.5549420494829758e-05 1.8545180406677694e-05 -4.522170914551407e-05 1.2553660582981824e-05 1.5549420494829758e-05 1.2553660582981824e-05 -4.971534901328597e-05" free_energy=-47.635354304757 pbc="T T T"
P        1.24441394       2.77762065       1.02826010       0.00000000 NULL       0.00101700       0.00202900      -0.00274000
P        2.97771972       1.12233417       0.44114931       0.00000000 NULL       0.00220000      -0.00260000       0.00103600
P        1.72563174       0.90042844       2.55587267       0.00000000 NULL      -0.00207700       0.00149000       0.00247700
P        2.97490404      -1.13255544       3.13573509       0.00000000 NULL      -0.00231600      -0.00574500       0.00059900
P       -0.47903831       3.63625449       2.55220416       0.00000000 NULL      -0.00610400       0.00040900      -0.00113800
P        3.45318766       2.29772375      -1.66178548       0.00000000 NULL      -0.00089000      -0.00217500      -0.00576200
P        4.60790016       0.18324279       4.24085717       0.00000000 NULL       0.00426400       0.00075700       0.00128600
P        1.15182991       4.95426621       3.65783071       0.00000000 NULL       0.00164000       0.00196400       0.00372100
P        5.08577029       3.61578824      -0.55875508       0.00000000 NULL       0.00226500       0.00386900       0.00052100
