32
Lattice="9.440328730909437 -0.7704978656086446 0.6596346794900247 -2.33362064188727 9.1797433628778 0.6596346794900292 -2.4879336236180287 -2.94392908219101 7.316348029858508" Properties=species:S:1:pos:R:3:initial_magmoms:R:1:castep_labels:S:1:forces:R:3 n_minim_iter=17 energy=-171.200256683336 stress="2.5194231763060244e-05 -1.6225509451736335e-05 1.086245590746494e-05 -1.6225509451736335e-05 1.9709979268635827e-05 1.2862238584989865e-05 1.086245590746494e-05 1.2862238584989865e-05 1.9725129137404954e-05" free_energy=-171.200256683336 pbc="T T T"
P        0.75696939       3.98056843       2.12032861       0.00000000 NULL       0.00194300       0.00406500      -0.00004300
P        3.79865330       1.41002157       2.12032861       0.00000000 NULL       0.00368300       0.00259500      -0.00004300
P        1.16801892      -0.36574111       4.13102484       0.00000000 NULL      -0.00309900      -0.00301300      -0.00620700
P       -0.55535618       1.09069440       4.13102484       0.00000000 NULL      -0.00245500      -0.00355800      -0.00620700
P        3.36901419       5.71728987       3.27961745       0.00000000 NULL       0.00132500      -0.00291800       0.00138700
P        5.07558333       4.27505718       3.27961745       0.00000000 NULL      -0.00309700       0.00082000       0.00138700
P        2.60034543       5.52530927       0.35938385       0.00000000 NULL      -0.00152800       0.00029000      -0.00379800
P        5.01444337       3.48513939       0.35938385       0.00000000 NULL       0.00054000      -0.00145700      -0.00379800
P        3.90009612       2.52230460       4.90146667       0.00000000 NULL       0.00551200       0.00356800       0.00121600
P        1.83677222       4.26603306       4.90146667       0.00000000 NULL       0.00259900       0.00603000       0.00121600
P       -3.50729485       1.16527791       6.42040811       0.00000000 NULL       0.00525300      -0.00062900      -0.00111100
P        1.73371048      -3.26392980       6.42040811       0.00000000 NULL      -0.00149700       0.00507400      -0.00111300
P        1.72635455       3.78593271       8.67249460       0.00000000 NULL      -0.00243900      -0.00140400       0.00056200
P        3.44512426       2.33338924       8.67249460       0.00000000 NULL      -0.00097700      -0.00264100       0.00056300
P        4.74710083       3.86738766       6.51527295       0.00000000 NULL      -0.00652500       0.00138100       0.00049500
P        3.02181553       5.32543750       6.51527295       0.00000000 NULL       0.00245000      -0.00620400       0.00049500
P        7.20710694       2.49079279       2.77791416       0.00000000 NULL      -0.00065400      -0.00010200      -0.00030600
P        1.25435133       7.52150530       2.77791416       0.00000000 NULL       0.00000900      -0.00066700      -0.00030500
P        2.04363678      -0.01834875       2.11305321       0.00000000 NULL      -0.00339900      -0.00274000       0.00011600
P       -0.35881032       2.01197493       2.11305321       0.00000000 NULL      -0.00213700      -0.00380700       0.00011600
P        0.90071054       6.96858570       0.42519363       0.00000000 NULL       0.00000400      -0.00371100       0.00024100
P        6.72088556       2.04991792       0.42519363       0.00000000 NULL      -0.00365900      -0.00061300       0.00024300
P        5.14552496      -0.13753665       1.09557294       0.00000000 NULL      -0.00303500       0.00378800       0.00247600
P       -0.99348181       5.05057792       1.09557294       0.00000000 NULL       0.00423900      -0.00236400       0.00247400
P        6.18011228       4.94319820       5.11463066       0.00000000 NULL       0.00594600       0.00231200      -0.00163900
P        3.84365508       6.91775338       5.11463066       0.00000000 NULL       0.00128900       0.00624700      -0.00163900
P       -1.79982862       4.01403208       4.40750687       0.00000000 NULL       0.00086300       0.00288800       0.00317200
P        4.25792203      -1.10541241       4.40750687       0.00000000 NULL       0.00270300       0.00133400       0.00317200
P        5.12510792       0.92199984       3.91328528       0.00000000 NULL      -0.00257600       0.00084100      -0.00374500
P        0.05462938       5.20709425       3.91328528       0.00000000 NULL       0.00125800      -0.00240100      -0.00374600
P        0.63998508       2.49904453       5.55206860       0.00000000 NULL       0.00004800      -0.00261400       0.00718500
P        2.35736860       1.04767254       5.55206860       0.00000000 NULL      -0.00258600      -0.00038900       0.00718500
