2
Lattice="2.356090190574786 -0.03743773682250158 0.42888821016402073 0.02828291806775652 3.864092155753017 0.17695853719630802 1.7474599134875801 2.0002741350459265 3.9564925747313953" Properties=species:S:1:pos:R:3:initial_magmoms:R:1:castep_labels:S:1:forces:R:3 n_minim_iter=18 energy=-10.475270012102 stress="0.00024854987556085037 2.7857395766471395e-05 0.00012783449390614096 2.7857395766471395e-05 3.714319435529519e-05 4.178609364970709e-05 0.00012783449390614096 4.178609364970709e-05 0.00014392987812676886" free_energy=-10.475270012102 pbc="T T T"
P        0.82796858       2.43755501       0.87401915       0.00000000 NULL       0.00047900      -0.00084100      -0.00062100
P        1.70209791       3.43683258       2.85104728       0.00000000 NULL      -0.00047900       0.00084100       0.00062100
