30
Lattice="5.433360982451496 0.25320879886041786 0.42751538038528214 -1.27332719606109 13.761830376086646 -2.5435489192864456 -1.2733271960610701 -8.84458589869073 10.845778749617986" Properties=species:S:1:pos:R:3:initial_magmoms:R:1:castep_labels:S:1:forces:R:3 n_minim_iter=12 energy=-158.79071277932 stress="-1.5850015059268244e-05 1.7012538525153751e-07 2.693651933149344e-07 1.7012538525153751e-07 -9.569552920398985e-06 -1.9847961612679377e-06 2.693651933149344e-07 -1.9847961612679377e-06 -1.1724474466918459e-05" free_energy=-158.79071277932 pbc="T T T"
P        2.02626467       4.54363591       2.08108091       0.00000000 NULL       0.00089400      -0.00147700       0.00288400
P        0.86044191       5.52919259       3.74508563       0.00000000 NULL      -0.00089400      -0.00323900      -0.00009000
P        1.84143827      -5.01928736       6.09577795       0.00000000 NULL      -0.00284200       0.00212400       0.00254300
P        1.04526831      -2.58746233      10.20164872       0.00000000 NULL       0.00284200      -0.00120700      -0.00309000
P        0.71522922       7.35370584       0.53946834       0.00000000 NULL      -0.00297600       0.00285900      -0.00237200
P        2.17147737       8.23163138       2.02174967       0.00000000 NULL       0.00297600       0.00345300      -0.00136700
P        2.88457250       6.34328495       3.14647825       0.00000000 NULL      -0.00503200      -0.00119700      -0.00073400
P        0.00213408       5.45983577       1.65487086       0.00000000 NULL       0.00503200       0.00006800       0.00140200
P        2.51643428      -1.55160154       7.17405743       0.00000000 NULL       0.00084600      -0.00118700      -0.00085800
P        0.37027230      -1.86644255       6.64248279       0.00000000 NULL      -0.00084600       0.00018200       0.00145400
P        4.03502863       0.44088804       4.64233290       0.00000000 NULL       0.00171400       0.00030200      -0.00538500
P       -1.14832204       1.31132368       6.11196834       0.00000000 NULL      -0.00171400       0.00486300       0.00232500
P        3.33497388       3.62223893       6.20533719       0.00000000 NULL      -0.00507300       0.00066200       0.00099300
P       -0.44826729       1.46965616       2.57093647       0.00000000 NULL       0.00507300      -0.00055600      -0.00105500
P        0.82230809      -3.37313837       5.01073691       0.00000000 NULL      -0.00289700       0.00080100      -0.00025800
P        2.06439850      -0.84479791       9.27956343       0.00000000 NULL       0.00289500       0.00060900      -0.00057700
P        1.66375560       1.52764615       3.32938744       0.00000000 NULL      -0.00269700      -0.00724900       0.00574200
P        1.22295099       2.98499721       5.78996541       0.00000000 NULL       0.00269600      -0.00851900       0.00359700
P        1.78145608       3.49045076       7.87881874       0.00000000 NULL      -0.00245300       0.00292600      -0.00245800
P        1.10525051      -0.06121701       1.88221593       0.00000000 NULL       0.00245300       0.00356200      -0.00138500
P       -0.25164079      -3.10557161       8.45400363       0.00000000 NULL      -0.00383900      -0.00633500       0.00239100
P        3.13834738      -3.73572412       7.39005999       0.00000000 NULL       0.00383900      -0.00513800       0.00440800
P       -0.49942126      -5.25722995       7.81858418       0.00000000 NULL      -0.00066000       0.00476700      -0.00108000
P        3.38612785      -4.21260879       9.58231282       0.00000000 NULL       0.00066100       0.00323900      -0.00366200
P        2.64961014      -2.19017655       4.53197583       0.00000000 NULL       0.00314300       0.00049100      -0.00027400
P        0.23709644       0.14358649       8.47227964       0.00000000 NULL      -0.00314400       0.00047600      -0.00029500
P        2.12182991       1.40584911       7.12196956       0.00000000 NULL       0.00150100       0.00397200       0.00110400
P        0.76487668      -0.39938764       4.07402462       0.00000000 NULL      -0.00150000       0.00094100      -0.00401400
P        2.36086880      10.23163408       0.56848794       0.00000000 NULL       0.00564000      -0.00144800      -0.00222500
P        0.52583779       9.58934113      -0.51595349       0.00000000 NULL      -0.00563900       0.00125400       0.00233600
