48
Lattice="5.370010520461574 1.182200967091777e-37 -7.225431296271053e-37 9.746546266385428e-38 15.149037103810695 8.143434080213967e-13 1.3651146270392281e-36 -7.574518551906054 13.119450974772695" Properties=species:S:1:pos:R:3:initial_magmoms:R:1:castep_labels:S:1:forces:R:3 n_minim_iter=18 energy=-258.04401156244 stress="-3.045141636960048e-06 0.0 0.0 0.0 9.388405908412209e-06 -9.369666575261687e-09 0.0 -9.369666575261687e-09 9.388405908412209e-06" free_energy=-258.04401156244 pbc="T T T"
P        2.22289623       6.37577673       9.23044253       0.00000000 NULL       0.00260600      -0.00100000       0.00206200
P        4.01289974       3.96735178       0.90636204       0.00000000 NULL       0.00260600      -0.00128600      -0.00189700
P        0.43289273      12.38042942       2.98264509       0.00000000 NULL       0.00260300       0.00228500      -0.00016500
P        1.04049264      10.58668592       4.16254890       0.00000000 NULL       0.00232100      -0.00540200       0.00200900
P        2.83049615       6.25082181       7.08706319       0.00000000 NULL       0.00232200       0.00096200      -0.00568300
P       -0.74951087       5.88605020       1.86983758       0.00000000 NULL       0.00232600       0.00444100       0.00367300
P        4.85439874       5.28955042      12.38099482       0.00000000 NULL      -0.00447900       0.00429300       0.00292000
P        1.27439173      -5.79251194      11.50983729       0.00000000 NULL      -0.00448900      -0.00467500       0.00226200
P        3.06439524       0.50296379       2.34806853       0.00000000 NULL      -0.00448900       0.00037900      -0.00518000
P        1.60391353       5.74792527      12.77439120       0.00000000 NULL       0.00464100       0.00004000       0.00061400
P        3.39391704      -6.36239062      11.71010337       0.00000000 NULL       0.00464700      -0.00055300      -0.00026900
P        5.18392055       0.61446762       1.75440608       0.00000000 NULL       0.00464700       0.00051000      -0.00034400
P        3.07768605       8.42652603       6.82236629       0.00000000 NULL       0.00003900      -0.00027000      -0.00226000
P        4.86768956       5.02743233       3.88640115       0.00000000 NULL       0.00004000       0.00209200       0.00089600
P        6.65769307       9.26959957       2.41068223       0.00000000 NULL       0.00003600      -0.00182200       0.00136300
P        2.70894464       5.29220291       4.49877522       0.00000000 NULL      -0.00175700       0.00018400      -0.00063400
P        4.49894815       8.60688279       2.33379324       0.00000000 NULL      -0.00175400       0.00045700       0.00047700
P        0.91894113       8.82447223       6.28688121       0.00000000 NULL      -0.00175900      -0.00064100       0.00015900
P        1.07137200       4.03995220      11.49270774       0.00000000 NULL       0.00046500      -0.00333600      -0.00046200
P        2.86137551      -4.39843365      10.87179703       0.00000000 NULL       0.00046800       0.00207000      -0.00265900
P        4.65137901       0.35848372       3.87439587       0.00000000 NULL       0.00046800       0.00126800       0.00312200
P        1.40461818       2.29890057       8.21047178       0.00000000 NULL       0.00169400       0.00291800      -0.00117200
P        3.19462169      -0.68540812      11.00512007       0.00000000 NULL       0.00169400      -0.00044400       0.00311300
P       -0.38538533      -1.61349018       7.02330879       0.00000000 NULL       0.00170000      -0.00247600      -0.00193900
P        4.95967599       5.59207937       6.97422842       0.00000000 NULL       0.00026800      -0.00006100       0.00253800
P        1.37966898       6.31313920       1.35576727       0.00000000 NULL       0.00026300      -0.00216700      -0.00132200
P        3.16967248      10.81833936       4.78945398       0.00000000 NULL       0.00026800       0.00222800      -0.00121500
P        3.34129758      10.25159560       1.48018171       0.00000000 NULL      -0.00385000       0.00438500      -0.00519200
P        5.13130109       8.74136510       8.13805005       0.00000000 NULL      -0.00384800       0.00230400       0.00639200
P        1.55129408       3.73059723       3.50121790       0.00000000 NULL      -0.00385100      -0.00668900      -0.00120100
P        4.25422636       2.30759577       2.83364625       0.00000000 NULL      -0.00161700      -0.00030700       0.00131900
P        6.04422986       3.96671178      13.70106310       0.00000000 NULL      -0.00161900      -0.00098300      -0.00092900
P        2.46422285      -6.27430528       9.70419129       0.00000000 NULL      -0.00161700       0.00129600      -0.00039400
P        3.63539956      11.90285142       2.93200290       0.00000000 NULL      -0.00363500       0.00174200       0.00268700
P        0.05539255       6.65842316       8.84216895       0.00000000 NULL      -0.00364100      -0.00319800       0.00016400
P        1.84539605       4.16228335       1.34527782       0.00000000 NULL      -0.00364000       0.00145700      -0.00285200
P        1.24539347      -3.09716896       7.10418877       0.00000000 NULL       0.00085800       0.00613300       0.00092900
P        3.03539697       2.97069584       6.88512828       0.00000000 NULL       0.00086500      -0.00386900       0.00484600
P       -0.54461004       0.12647539      12.24958359       0.00000000 NULL       0.00086500      -0.00226300      -0.00577300
P        4.59249774       0.78118029      10.15989248       0.00000000 NULL      -0.00095400       0.00007500       0.00277400
P        1.01249073      -1.61479582       8.71602541       0.00000000 NULL      -0.00095900      -0.00244200      -0.00132500
P        2.80249423       0.83361780       7.36298276       0.00000000 NULL      -0.00095400       0.00236500      -0.00145200
P        1.33997995       1.84508179       6.06194909       0.00000000 NULL      -0.00026900       0.00092700      -0.00128000
P        3.12998346       1.40217650      11.68636282       0.00000000 NULL      -0.00026900       0.00064400       0.00144300
P        4.91998697      -3.24725602       8.49058873       0.00000000 NULL      -0.00026300      -0.00157000      -0.00016500
P        0.20005221       6.94366727       5.12543542       0.00000000 NULL       0.00366600       0.00144100       0.00153000
P        1.99005571       7.23844695       3.45067323       0.00000000 NULL       0.00366700      -0.00204500       0.00048300
P       -1.58995130       8.54144371       4.54334102       0.00000000 NULL       0.00366900       0.00060400      -0.00201300
