32
Lattice="5.814776790158289 -1.0022921372868672 0.0 -3.1534416174500888 6.616808051778359 0.0 0.0 0.0 17.12778050384798" Properties=species:S:1:pos:R:3:initial_magmoms:R:1:castep_labels:S:1:forces:R:3 n_minim_iter=6 energy=-172.215711372587 stress="-1.18705033264823e-05 1.471413364981789e-06 -1.653273443799763e-08 1.471413364981789e-06 2.2038135005850844e-05 0.0 -1.653273443799763e-08 0.0 1.7210576549955537e-05" free_energy=-172.215711372587 pbc="T T T"
P        3.51984081       0.77043583       8.36463887       0.00000000 NULL      -0.00152600      -0.00044500       0.00458400
P        2.04888276       4.34293401      16.92852912       0.00000000 NULL       0.00152700       0.00044400       0.00458500
P       -0.85850563       4.84408008       8.76314163       0.00000000 NULL       0.00152600       0.00044500      -0.00458400
P        0.61245241       1.27158190       0.19925138       0.00000000 NULL      -0.00152700      -0.00044400      -0.00458500
P        2.83506289       2.77147037       9.00974616       0.00000000 NULL      -0.00268600       0.00316600      -0.00750600
P        2.73366068       2.34189947      17.57363641       0.00000000 NULL       0.00268900      -0.00316500      -0.00750900
P       -0.17372771       2.84304554       8.11803434       0.00000000 NULL       0.00268600      -0.00316600       0.00750600
P       -0.07232551       3.27261644      -0.44585591       0.00000000 NULL      -0.00268900       0.00316500       0.00750900
P       -0.45533535       6.06311146       1.37848641       0.00000000 NULL       0.00417400      -0.00342500       0.00571600
P        0.20928212       0.05255052       9.94237666       0.00000000 NULL      -0.00417400       0.00342500       0.00571600
P        3.11667052      -0.44859555      15.74929409       0.00000000 NULL      -0.00417400       0.00342500      -0.00571600
P        2.45205305       5.56196539       7.18540384       0.00000000 NULL       0.00417400      -0.00342500      -0.00571600
P        4.79358675      -0.10655867       5.31294743       0.00000000 NULL       0.00703100       0.00511500      -0.00264700
P        0.77513681       5.21992852      13.87683768       0.00000000 NULL      -0.00703100      -0.00511500      -0.00264700
P       -2.13225158       5.72107458      11.81483307       0.00000000 NULL      -0.00703100      -0.00511500       0.00264700
P        1.88619836       0.39458740       3.25094282       0.00000000 NULL       0.00703100       0.00511500       0.00264700
P       -1.05993900       3.91254310       1.46650728       0.00000000 NULL      -0.00013000      -0.00001000      -0.00044700
P        0.81388578       2.20311888      10.03039754       0.00000000 NULL       0.00013100       0.00000900      -0.00044400
P        3.72127418       1.70197281      15.66127322       0.00000000 NULL       0.00013000       0.00001000       0.00044700
P        1.84744939       3.41139703       7.09738297       0.00000000 NULL      -0.00013100      -0.00000900       0.00044400
P        1.24788309       0.49214399      14.83337321       0.00000000 NULL       0.00555000       0.00136500      -0.00721300
P       -1.49393631       5.62351799       6.26948296       0.00000000 NULL      -0.00555200      -0.00136600      -0.00721300
P        1.41345209       5.12237192       2.29440729       0.00000000 NULL      -0.00555000      -0.00136500       0.00721300
P        4.15527148      -0.00900208      10.85829755       0.00000000 NULL       0.00555200       0.00136600       0.00721300
P       -1.17702859       1.48276104      12.96575572       0.00000000 NULL      -0.00138700      -0.00273100      -0.00220600
P        0.93097536       4.63290094       4.40186546       0.00000000 NULL       0.00138600       0.00273100      -0.00220600
P        3.83836376       4.13175487       4.16202479       0.00000000 NULL       0.00138700       0.00273100       0.00220600
P        1.73035981       0.98161497      12.72591504       0.00000000 NULL      -0.00138600      -0.00273100       0.00220600
P        2.95328670       0.81502998       6.18508093       0.00000000 NULL       0.00289600       0.00501100      -0.00711400
P        2.61543687       4.29833986      14.74897118       0.00000000 NULL      -0.00289500      -0.00501000      -0.00711400
P       -0.29195153       4.79948593      10.94269958       0.00000000 NULL      -0.00289600      -0.00501100       0.00711400
P        0.04589831       1.31617605       2.37880933       0.00000000 NULL       0.00289500       0.00501000       0.00711400
