10
Lattice="4.550500989262045 -0.7169650822687542 0.0 -1.688224826799767 4.746392967121842 0.0 0.0 0.0 9.07873232419978" Properties=species:S:1:pos:R:3:initial_magmoms:R:1:castep_labels:S:1:forces:R:3 n_minim_iter=14 energy=-52.456211410785 stress="0.00011556052816827571 -4.159962912088467e-06 -0.0 -4.159962912088467e-06 3.1550887541034605e-05 0.0 -0.0 0.0 0.0001513254041137636" free_energy=-52.456211410785 pbc="T T T"
P        0.51973081       2.56063497       2.75975784       0.00000000 NULL       0.00307800       0.00415400      -0.00099500
P        1.36384322       0.18743848       6.31897449       0.00000000 NULL       0.00307800       0.00415400       0.00099500
P        2.45707085       3.68957284       2.41450704       0.00000000 NULL      -0.00333300      -0.00608500      -0.00213500
P        3.30118327       1.31637636       6.66422529       0.00000000 NULL      -0.00333200      -0.00608600       0.00213500
P        2.41932226      -0.05500213       3.48857178       0.00000000 NULL       0.00046300      -0.00325600      -0.00615000
P        1.57520985       2.31819435       5.59016055       0.00000000 NULL       0.00046300      -0.00325600       0.00615000
P        2.58258487       0.04339848       1.22959230       0.00000000 NULL      -0.00125400       0.00253700       0.00167700
P        1.73847246       2.41659496       7.84914003       0.00000000 NULL      -0.00125500       0.00253700      -0.00167700
P       -0.65576533       3.11064605       0.92715079       0.00000000 NULL       0.00104600       0.00265000       0.00298900
P        0.18834709       0.73744957       8.15158154       0.00000000 NULL       0.00104700       0.00265000      -0.00298900
