104
Lattice="14.752975 0.0 0.0 0.0 12.828814 0.0 0.0 0.0 12.8717" Properties=species:S:1:pos:R:3:forces:R:3 energy=-571.3206553837467 hash=65caec19db865b84795faa891699f15e virial="26.5960839552 0.0 0.0 0.0 -8.69836786862 0.0 0.0 0.0 9.45073549841" config_type=rss_3c pressure=0.0037420489448516097 uploaded="2020-04-10 10:56:53.323000" hash_structure=f5bb3ec5005e822dba26f0166ed6c15a filename=rss_3c/rss_3c_mbd2.xyz username=gabor stress="-0.010060142762966325 4.296316871797677e-12 -2.5546417485669366e-12 4.296316871797677e-12 0.006069804669349903 1.2384888364624695e-07 -2.5546417485669366e-12 1.2384888364624695e-07 -0.0034417387132426847" volume=2436.138773885412 n_atoms=104 free_energy=-570.88456 modified="2020-04-10 10:56:53.323000" formula=P104 miguel_caro=T pbc="T T T"
P        5.55284000       1.54336000       4.79899000      -0.07714046       0.31312211      -0.14786229
P        3.40593000       1.92310000       4.54218000       0.08195060       0.36466097      -0.41091877
P        2.83521000      12.72241000       5.14557000      -0.64456547      -0.13706364      -0.04456884
P        0.61386000       0.19271000       4.91270000      -0.27687835      -0.41357414       0.04827868
P        6.32144000       3.56955000       4.26074000      -0.04199762      -0.42726329      -0.40673177
P        4.67563000       3.69629000       7.41183000       0.11049537       0.30552514      -0.05236024
P        2.84625000       3.29862000       6.23727000      -0.46286140      -0.40379277      -0.01110951
P        1.91349000       1.94200000       7.76613000      -0.09733223       0.18811677      -0.04782546
P        0.02843000       1.52844000       6.62131000      -0.03269897      -0.03128222       0.36887838
P        5.98915000       4.94149000       6.02491000       0.01650777      -0.35861602       0.16060289
P        5.84247000       1.90315000       6.94732000       0.38872375      -0.33301810       0.35637728
P        2.80712000      12.81238000       7.35081000      -0.02197620      -0.11502600       0.28336809
P        4.90134000       0.16568000       7.93271000       0.37588699      -0.18562038       0.54294407
P        9.20015000       4.87104000       4.79899000       0.07707070      -0.31314715      -0.14789686
P       11.34706000       4.49130000       4.54218000      -0.08197735      -0.36460403      -0.41095884
P       11.91778000       6.52081000       5.14557000       0.64445552       0.13703166      -0.04459143
P       14.13912000       6.22169000       4.91270000       0.27696835       0.41363856       0.04830330
P        8.43153000       2.84485000       4.26074000       0.04207139       0.42731572      -0.40670808
P       10.07734000       2.71812000       7.41183000      -0.11030979      -0.30568099      -0.05235474
P       11.90673000       3.11579000       6.23727000       0.46283789       0.40369705      -0.01103880
P       12.83948000       4.47241000       7.76613000       0.09749501      -0.18812975      -0.04782956
P       14.72456000       4.88597000       6.62131000       0.03250129       0.03121389       0.36894898
P        8.76383000       1.47291000       6.02491000      -0.01655438       0.35866880       0.16060787
P        8.91052000       4.51125000       6.94732000      -0.38885693       0.33313876       0.35629944
P       11.94585000       6.43084000       7.35081000       0.02211020       0.11504754       0.28333452
P        9.85164000       6.24872000       7.93271000      -0.37595268       0.18568056       0.54296986
P        5.55284000      11.28544000       1.63686000      -0.07714415      -0.31300344       0.14787114
P        3.40593000      10.90571000       1.89367000       0.08193435      -0.36467560       0.41091664
P        2.83521000       0.10640000       1.29028000      -0.64455432       0.13707250       0.04456277
P        0.61386000      12.63610000       1.52315000      -0.27687321       0.41365024      -0.04827437
P        6.32144000       9.25926000       2.17511000      -0.04198178       0.42719413       0.40673898
P        4.67563000       9.13252000      11.89572000       0.11049506      -0.30553182       0.05235463
P        2.84625000       9.53019000       0.19858000      -0.46287133       0.40379067       0.01110708
P        1.91349000      10.88681000      11.54142000      -0.09734004      -0.18809711       0.04783610
P        0.02843000      11.30038000      12.68624000      -0.03269228       0.03119230      -0.36888953
P        5.98915000       7.88732000       0.41094000       0.01650439       0.35861438      -0.16060784
P        5.84247000      10.92566000      12.36023000       0.38872327       0.33300166      -0.35639453
P        2.80712000       0.01643000      11.95674000      -0.02197086       0.11502907      -0.28336803
P        4.90134000      12.66313000      11.37484000       0.37588655       0.18562231      -0.54293424
P        9.20015000       7.95776000       1.63686000       0.07707568       0.31327156       0.14788260
P       11.34706000       8.33751000       1.89367000      -0.08199216       0.36461269       0.41093776
P       11.91778000       6.30800000       1.29028000       0.64446649      -0.13701369       0.04458093
P       14.13912000       6.60712000       1.52315000       0.27696061      -0.41363129      -0.04831024
P        8.43153000       9.98396000       2.17511000       0.04208826      -0.42738686       0.40670459
P       10.07734000      10.11070000      11.89572000      -0.11033579       0.30556863       0.05235700
P       11.90673000       9.71303000       0.19858000       0.46283007      -0.40377467       0.01107301
P       12.83948000       8.35641000      11.54142000       0.09747842       0.18803033       0.04786250
P       14.72456000       7.94284000      12.68624000       0.03249326      -0.03119865      -0.36895065
P        8.76383000      11.35590000       0.41094000      -0.01657900      -0.35864448      -0.16058589
P        8.91052000       8.31756000      12.36023000      -0.38881957      -0.33309344      -0.35629947
P       11.94585000       6.39797000      11.95674000       0.02213331      -0.11496516      -0.28335633
P        9.85164000       6.58009000      11.37484000      -0.37594840      -0.18567324      -0.54297281
P        9.20015000      11.28544000       8.07271000       0.07708171      -0.31303059       0.14789931
P       11.34706000      10.90571000       8.32952000      -0.08196889      -0.36470005       0.41094286
P       11.91778000       0.10640000       7.72613000       0.64445550       0.13709317       0.04456392
P       14.13912000      12.63610000       7.95900000       0.27696720       0.41364253      -0.04831549
P        8.43153000       9.25926000       8.61096000       0.04205691       0.42724751       0.40671945
P       10.07734000       9.13252000       5.45987000      -0.11033434      -0.30557951       0.05235012
P       11.90673000       9.53019000       6.63443000       0.46283787       0.40375140       0.01106755
P       12.83948000      10.88681000       5.10557000       0.09748972      -0.18807665       0.04785400
P       14.72456000      11.30038000       6.25039000       0.03249275       0.03118055      -0.36893323
P        8.76383000       7.88732000       6.84679000      -0.01655959       0.35860834      -0.16057927
P        8.91052000      10.92566000       5.92438000      -0.38882319       0.33305710      -0.35633625
P       11.94585000       0.01643000       5.52089000       0.02212751       0.11502793      -0.28334412
P        9.85164000      12.66313000       4.93899000      -0.37593882       0.18563414      -0.54296798
P        5.55284000       7.95776000       8.07271000      -0.07713811       0.31324442       0.14785443
P        3.40593000       8.33751000       8.32952000       0.08195762       0.36458823       0.41091155
P        2.83521000       6.30800000       7.72613000      -0.64456531      -0.13699303       0.04457978
P        0.61386000       6.60712000       7.95900000      -0.27686662      -0.41363901      -0.04826912
P        6.32144000       9.98396000       8.61096000      -0.04201313      -0.42733348       0.40672412
P        4.67563000      10.11070000       5.45987000       0.11049651       0.30552094       0.05236151
P        2.84625000       9.71303000       6.63443000      -0.46286353      -0.40381394       0.01111255
P        1.91349000       8.35641000       5.10557000      -0.09732873       0.18805079       0.04784460
P        0.02843000       7.94284000       6.25039000      -0.03269279      -0.03121040      -0.36890695
P        5.98915000      11.35590000       6.84679000       0.01652381      -0.35865052      -0.16061445
P        5.84247000       8.31756000       5.92438000       0.38871965      -0.33303800      -0.35635775
P        2.80712000       6.39797000       5.52089000      -0.02197666      -0.11496630      -0.28338024
P        4.90134000       6.58009000       4.93899000       0.37589614      -0.18566141      -0.54293907
P        9.20015000       1.54336000      11.23484000       0.07707802       0.31314925      -0.14789046
P       11.34706000       1.92310000      10.97803000      -0.08198514       0.36468543      -0.41094498
P       11.91778000      12.72241000      11.58142000       0.64446664      -0.13708431      -0.04456999
P       14.13912000       0.19271000      11.34855000       0.27697234      -0.41356643       0.04831980
P        8.43153000       3.56955000      10.69659000       0.04207275      -0.42731668      -0.40671225
P       10.07734000       3.69629000       0.97598000      -0.11033465       0.30557282      -0.05235572
P       11.90673000       3.29862000      12.67312000       0.46282794      -0.40375350      -0.01106997
P       12.83948000       1.94200000       1.33028000       0.09748191       0.18809630      -0.04784336
P       14.72456000       1.52844000       0.18546000       0.03249944      -0.03127047       0.36892208
P        8.76383000       4.94149000      12.46076000      -0.01656296      -0.35860998       0.16057432
P        8.91052000       1.90315000       0.51147000      -0.38882367      -0.33307353       0.35631899
P       11.94585000      12.81238000       0.91496000       0.02213285      -0.11502486       0.28334418
P        9.85164000       0.16568000       1.49686000      -0.37593926      -0.18563222       0.54297781
P        5.55284000       4.87104000      11.23484000      -0.07713313      -0.31312001      -0.14786870
P        3.40593000       4.49130000      10.97803000       0.08194282      -0.36457958      -0.41093263
P        2.83521000       6.52081000      11.58142000      -0.64455435       0.13701099      -0.04459028
P        0.61386000       6.22169000      11.34855000      -0.27687436       0.41364627       0.04826218
P        6.32144000       2.84485000      10.69659000      -0.04199626       0.42726233      -0.40672761
P        4.67563000       2.71812000       0.97598000       0.11047051      -0.30563330      -0.05235925
P        2.84625000       3.11579000      12.67312000      -0.46287135       0.40373632      -0.01107833
P        1.91349000       4.47241000       1.33028000      -0.09734533      -0.18815022      -0.04781166
P        0.02843000       4.88597000       0.18546000      -0.03270082       0.03122563       0.36890528
P        5.98915000       1.47291000      12.46076000       0.01649918       0.35867484       0.16063644
P        5.84247000       4.51125000       0.51147000       0.38875700       0.33308333       0.35635772
P        2.80712000       6.43084000       0.91496000      -0.02195355       0.11504868       0.28335843
P        4.90134000       6.24872000       1.49686000       0.37590042       0.18566872       0.54293612
104
Lattice="14.889483 0.0 0.0 0.0 12.391801 -1e-06 0.0 -2e-06 13.347013" Properties=species:S:1:pos:R:3:forces:R:3 energy=-570.8543579039766 hash=2a03cfe65dbe78e74669f4a756e0817d virial="26.3757318784 0.0 0.0 0.0 11.6352465281 -0.0 0.0 -0.0 5.35105200861" config_type=rss_3c pressure=0.005869352902749718 uploaded="2020-04-10 10:56:53.293000" hash_structure=389247ae759652655bed27dccf1a710e filename=rss_3c/rss_3c_mbd2.xyz username=gabor stress="-0.006334290018156725 2.3695547118554212e-08 -5.884826915171845e-09 2.3695547118554212e-08 -0.005921169392541829 -8.750324467899859e-08 -5.884826915171845e-09 -8.750324467899859e-08 0.001877575755371648" volume=2462.6241389572056 n_atoms=104 free_energy=-569.77517532 modified="2020-04-10 10:56:53.293000" formula=P104 miguel_caro=T pbc="T T T"
P       13.33855000       1.06165000      11.95313000      -0.32049401       0.29111964       0.20055133
P       11.16165000       1.34697000      11.59177000      -0.28528948       0.18994589      -0.10530100
P       10.27593000      11.89413000      12.35433000      -0.15373837       0.42330383      -0.38775106
P        8.16584000       0.09854000      11.85261000      -0.12148237      -0.14862729       0.35526560
P       13.77690000       3.12620000      11.20159000       0.04976859       0.11907361      -0.57972287
P       12.15737000       3.40535000       0.98354000       0.14566919       0.00174088       0.15242046
P       10.45252000       2.90202000      13.05469000      -0.13786069      -0.27371807      -0.32025304
P        9.40458000       1.86157000       1.37042000      -0.07430801      -0.07477839      -0.04039913
P        7.55619000       1.51609000       0.15572000       0.01866419      -0.00421259       0.28688594
P       13.37872000       4.56250000      12.87660000       0.03100763      -0.06802134      -0.19907574
P       13.41294000       1.59319000       0.76070000       0.51992422       0.01695330       0.13925918
P       10.24094000      12.20672000       1.19632000      -0.20261315      -0.06603786       0.16659063
P       12.35360000      12.32120000       1.74348000       0.34019857      -0.33164754       0.28328625
P        1.55096000       5.13427000      11.95313000       0.32070184      -0.29112264       0.20053065
P        3.72788000       4.84895000      11.59177000       0.28515239      -0.18986670      -0.10527175
P        4.61360000       6.69360000      12.35433000       0.15372348      -0.42339687      -0.38777760
P        6.72369000       6.09738000      11.85261000       0.12147204       0.14869192       0.35527615
P        1.11262000       3.06972000      11.20159000      -0.04976304      -0.11908540      -0.57971957
P        2.73215000       2.79057000       0.98354000      -0.14557192      -0.00166585       0.15239425
P        4.43701000       3.29390000      13.05469000       0.13776922       0.27372575      -0.32023780
P        5.48494000       4.33435000       1.37042000       0.07439236       0.07495291      -0.04041269
P        7.33334000       4.67984000       0.15572000      -0.01873082       0.00416141       0.28694082
P        1.51081000       1.63342000      12.87660000      -0.03109476       0.06803083      -0.19909475
P        1.47659000       4.60274000       0.76070000      -0.51995276      -0.01699566       0.13926909
P        4.64859000       6.38102000       1.19632000       0.20262688       0.06587917       0.16660718
P        2.53593000       6.26653000       1.74348000      -0.34018636       0.33166025       0.28327175
P        5.89381000       5.13427000       8.06739000      -0.32051465      -0.29109881      -0.20052262
P        3.71691000       4.84895000       8.42875000      -0.28531710      -0.18987854       0.10527307
P        2.83119000       6.69360000       7.66619000      -0.15372827      -0.42338661       0.38779965
P        0.72110000       6.09738000       8.16790000      -0.12148821       0.14871687      -0.35512371
P        6.33215000       3.06972000       8.81893000       0.04986735      -0.11906912       0.57972753
P        4.71263000       2.79057000       5.68996000       0.14570144      -0.00167575      -0.15233443
P        3.00778000       3.29390000       6.96583000      -0.13782303       0.27373944       0.32023266
P        1.95984000       4.33435000       5.30309000      -0.07429403       0.07494440       0.04038909
P        0.11145000       4.67984000       6.51779000       0.01864679       0.00413493      -0.28696684
P        5.93398000       1.63342000       7.14392000       0.03097051       0.06805910       0.19903700
P        5.96820000       4.60274000       5.91281000       0.51986129      -0.01703242      -0.13933589
P        2.79620000       6.38102000       5.47719000      -0.20271447       0.06585814      -0.16662184
P        4.90885000       6.26653000       4.93003000       0.34028656       0.33158523      -0.28332155
P        8.99570000       1.06165000       8.06739000       0.32072032       0.29115639      -0.20052865
P       11.17262000       1.34698000       8.42875000       0.28515694       0.18981098       0.10531228
P       12.05834000      11.89413000       7.66619000       0.15369455       0.42336074       0.38777248
P       14.16843000       0.09854000       8.16790000       0.12148671      -0.14861195      -0.35511848
P        8.55736000       3.12620000       8.81893000      -0.04981477       0.11910369       0.57973042
P       10.17689000       3.40535000       5.68996000      -0.14553684       0.00172964      -0.15231235
P       11.88175000       2.90202000       6.96583000       0.13774222      -0.27362510       0.32020304
P       12.92968000       1.86157000       5.30309000       0.07442587      -0.07480246       0.04035863
P       14.77808000       1.51609000       6.51779000      -0.01870224      -0.00418262      -0.28696650
P        8.95555000       4.56250000       7.14392000      -0.03104908      -0.06801021       0.19908972
P        8.92133000       1.59319000       5.91281000      -0.51998925       0.01691818      -0.13929927
P       12.09333000      12.20672000       5.47719000       0.20259094      -0.06606673      -0.16661618
P        9.98067000      12.32120000       4.93003000      -0.34019066      -0.33164463      -0.28332568
P        1.55096000      11.33017000       1.39388000       0.32069842      -0.29113301      -0.20054187
P        3.72788000      11.04485000       1.75524000       0.28514906      -0.18982449       0.10530296
P        4.61360000       0.49770000       0.99268000       0.15369905      -0.42338560       0.38779112
P        6.72369000      12.29329000       1.49440000       0.12147044       0.14861509      -0.35526791
P        1.11262000       9.26562000       2.14542000      -0.04974997      -0.11904747       0.57975645
P        2.73215000       8.98647000      12.36347000      -0.14549188      -0.00169541      -0.15237019
P        4.43701000       9.48980000       0.29233000       0.13779287       0.27374767       0.32011566
P        5.48494000      10.53025000      11.97659000       0.07436376       0.07492084       0.04046873
P        7.33334000      10.87574000      13.19129000      -0.01873492       0.00416873      -0.28693462
P        1.51081000       7.82933000       0.47041000      -0.03107866       0.06791308       0.19910014
P        1.47659000      10.79863000      12.58631000      -0.51994823      -0.01685064      -0.13929679
P        4.64859000       0.18512000      12.15069000       0.20263163       0.06585437      -0.16660278
P        2.53593000       0.07063000      11.60353000      -0.34019503       0.33156518      -0.28326672
P       13.33855000       7.25756000       1.39388000      -0.32050296       0.29104237      -0.20056305
P       11.16165000       7.54288000       1.75524000      -0.28529728       0.18981147       0.10533585
P       10.27593000       5.69823000       0.99268000      -0.15371018       0.42336422       0.38779006
P        8.16584000       6.29444000       1.49440000      -0.12147949      -0.14859902      -0.35526847
P       13.77690000       9.32210000       2.14542000       0.04976733       0.11913482       0.57974417
P       12.15737000       9.60125000      12.36347000       0.14561960       0.00172479      -0.15237980
P       10.45252000       9.09792000       0.29233000      -0.13786039      -0.27364879       0.32011462
P        9.40458000       8.05747000      11.97659000      -0.07427178      -0.07483499       0.04044805
P        7.55619000       7.71199000      13.19129000       0.01865474      -0.00426476      -0.28690608
P       13.37872000      10.75840000       0.47041000       0.03100714      -0.06799184       0.19907807
P       13.41294000       7.78909000      12.58631000       0.51992091       0.01696707      -0.13926659
P       10.24094000       6.01081000      12.15069000      -0.20262886      -0.06594075      -0.16660595
P       12.35360000       6.12530000      11.60353000       0.34018773      -0.33167060      -0.28328493
P        8.99570000       7.25755000       5.27962000       0.32071278       0.29116777       0.20062564
P       11.17262000       7.54288000       4.91827000       0.28514032       0.18980611      -0.10540636
P       12.05834000       5.69823000       5.68082000       0.15370332       0.42334622      -0.38766763
P       14.16843000       6.29444000       5.17911000       0.12150203      -0.14860024       0.35520530
P        8.55736000       9.32210000       4.52808000      -0.04980834       0.11910099      -0.57972268
P       10.17689000       9.60125000       7.65705000      -0.14553614       0.00174741       0.15234283
P       11.88175000       9.09792000       6.38118000       0.13775122      -0.27361672      -0.32018055
P       12.92968000       8.05747000       8.04392000       0.07440415      -0.07477152      -0.04029724
P       14.77808000       7.71199000       6.82923000      -0.01867994      -0.00422560       0.28689494
P        8.95555000      10.75840000       6.20309000      -0.03106550      -0.06803436      -0.19905530
P        8.92133000       7.78909000       7.43421000      -0.51999851       0.01691419       0.13919024
P       12.09333000       6.01082000       7.86983000       0.20259224      -0.06609364       0.16651144
P        9.98067000       6.12530000       8.41699000      -0.34019700      -0.33166354       0.28328798
P        5.89381000      11.33017000       5.27962000      -0.32050682      -0.29111163       0.20061720
P        3.71691000      11.04485000       4.91827000      -0.28530874      -0.18986928      -0.10537088
P        2.83119000       0.49770000       5.68082000      -0.15371483      -0.42337299      -0.38768567
P        0.72110000      12.29329000       5.17911000      -0.12151064       0.14861579       0.35519348
P        6.33215000       9.26562000       4.52808000       0.04986001      -0.11906778      -0.57972149
P        4.71263000       8.98647000       7.65705000       0.14569853      -0.00169313       0.15236463
P        3.00778000       9.48980000       6.38118000      -0.13783450       0.27373594      -0.32020812
P        1.95984000      10.53025000       8.04392000      -0.07427231       0.07493446      -0.04033616
P        0.11145000      10.87574000       6.82923000       0.01865073       0.00417246       0.28683151
P        5.93398000       7.82932000       6.20309000       0.03098731       0.06808871      -0.19900364
P        5.96820000      10.79864000       7.43421000       0.51986936      -0.01701878       0.13922900
P        2.79620000       0.18512000       7.86983000      -0.20271880       0.06587123       0.16652450
P        4.90885000       0.07063000       8.41699000       0.34029332       0.33159965       0.28328303
104
Lattice="12.943911 0.24864 -0.016578 0.24758 13.078507 -0.10008 -0.023239 -0.133746 16.279084" Properties=species:S:1:pos:R:3:forces:R:3 energy=-564.56903550516 hash=e4724269cb8291177014383e86479694 virial="9.43688046502 -2.29643045408 -1.48755793306 -2.29643045408 17.2412984863 -0.689551531013 -1.48755793306 -0.689551531013 -1.39997563866" config_type=rss_3c pressure=0.0030588429534144515 uploaded="2020-04-10 10:56:53.299000" hash_structure=2f85a93544bd858272d2942ccbbe2898 filename=rss_3c/rss_3c_mbd2.xyz username=gabor stress="-0.0012952866656669114 0.000333129051474357 0.00038580737250648307 0.000333129051474357 -0.004461975075483762 0.0007781155642853264 0.00038580737250648307 0.0007781155642853264 -0.007799650141967685" volume=2754.658509512892 n_atoms=104 free_energy=-568.50559371 modified="2020-04-10 10:56:53.299000" formula=P104 miguel_caro=T pbc="T T T"
P       11.56466000      11.71978000       2.43582000      -0.16640225       0.21128092      -0.50212941
P       11.51399000      10.28244000       4.11301000      -0.07535673      -0.42043270      -0.09838804
P       11.50866000      11.84246000       5.67230000      -0.06590626       0.02756532       0.58841427
P       11.32961000      10.55544000       7.56835000      -0.13554017       0.12520702       0.19557400
P       11.36653000      10.43519000       0.54418000       0.03622132       0.05648777      -0.19490826
P        8.41953000      10.30399000       2.34860000       0.58576592      -0.37925943       0.08323046
P        9.47892000       9.35829000       4.07124000      -0.41757576      -0.07604097      -0.00263081
P        8.37528000      10.36833000       5.72777000       0.60951238      -0.44462717       0.08799425
P        9.52161000       9.27819000       7.32820000      -0.51229309      -0.52618979      -0.03128426
P        9.55102000       9.18788000       0.76564000      -0.51666181      -0.85670601       0.09821206
P        9.42757000      12.27072000       2.11207000      -0.04239923       0.49183536       0.21023424
P        9.36073000      12.35953000       5.93696000      -0.11117185       0.45546979      -0.27288834
P        8.55582000      12.90350000       3.99024000      -0.37957975       0.55007909       0.02849588
P        1.67220000       1.41810000       2.34905000       0.06560843      -0.02106839      -0.59389999
P        1.66806000       2.97743000       3.90906000       0.06619599       0.41464763       0.10477737
P        1.61706000       1.53883000       5.58569000       0.16609688      -0.20355429       0.50520364
P        1.81424000       2.82386000       7.47870000      -0.05827158      -0.06597735       0.18191115
P        1.84999000       2.70680000       0.45327000       0.13052369      -0.12128125      -0.18869061
P        4.80419000       2.89448000       2.29303000      -0.60366658       0.44123606      -0.08249781
P        3.70225000       3.90173000       3.95210000       0.42108694       0.07863441      -0.00110094
P        4.76254000       2.95520000       5.67444000      -0.59089234       0.38269447      -0.08943278
P        3.62796000       4.07029000       7.25545000       0.53401813       0.87941366      -0.08552467
P        3.65850000       3.98484000       0.69258000       0.50882024       0.50981405       0.03524925
P        3.81996000       0.90254000       2.08223000       0.11341606      -0.45697133       0.27792775
P        3.75452000       0.98849000       5.90958000       0.03863037      -0.49325299      -0.21704953
P        4.62487000       0.35887000       4.02936000       0.38342079      -0.56015301      -0.01914034
P       11.41600000       1.89460000      13.69041000      -0.07247153       0.34447532       0.46403338
P        9.95914000       2.00931000      12.04039000      -0.56986879       0.03933149      -0.03966290
P       11.45166000       2.02195000      10.44108000      -0.11341321       0.26650139      -0.58433365
P       10.03836000       2.21202000       8.63452000       0.33021217       0.10730974      -0.28958179
P       10.04498000       2.01667000      15.52042000       0.07861782      -0.06853587       0.50444835
P        9.97948000       5.06385000      13.83963000      -0.36510287      -0.61115562       0.01638994
P        9.02188000       4.06409000      12.10844000      -0.28629991       0.06698309       0.07543547
P        9.95475000       5.17064000      10.43283000      -0.35751108      -0.46700879      -0.04709935
P        8.74879000       4.00422000       8.89693000      -0.03959046       0.54920000       0.19360986
P        8.76321000       3.83317000      15.32729000      -0.07073964       0.60211050      -0.20810936
P       11.95476000       4.03374000      14.03792000       0.45662251       0.11130834      -0.19103474
P       11.94706000       4.18053000      10.21152000       0.45480293       0.04601264       0.11402783
P       12.64760000       4.88573000      12.15138000       0.57237329       0.22090425       0.05677739
P        1.70872000      11.10480000      13.86087000       0.11463153      -0.26033325       0.59408906
P        3.20044000      11.11226000      12.26045000       0.56337109      -0.05626512       0.04741341
P        1.74096000      11.23315000      10.61258000       0.07026708      -0.34653125      -0.45843101
P        3.10908000      11.10916000       8.78138000      -0.07022038       0.06714691      -0.50372010
P        3.12012000      10.91159000      15.66957000      -0.32767544      -0.09408501       0.27560468
P        3.19611000       7.95153000      13.87593000       0.36410431       0.46487963       0.02407630
P        4.12529000       9.05142000      12.19393000       0.31118171      -0.05562818      -0.08580428
P        3.16668000       8.05938000      10.45833000       0.38237399       0.60957930       0.00327134
P        4.39014000       9.29231000       8.97700000       0.07307189      -0.60095530       0.20726159
P        4.40873000       9.11986000      15.40567000       0.03329883      -0.55271515      -0.19403627
P        1.20749000       8.94784000      14.09532000      -0.46860340      -0.03760744      -0.12086110
P        1.19460000       9.09534000      10.26306000      -0.46018786      -0.10427062       0.20131410
P        0.50942000       8.24536000      12.15346000      -0.57833399      -0.22754186      -0.06312314
P       10.84316000       2.22637000       2.48414000      -0.28612281       0.01917036       0.23684390
P       11.28758000       3.80122000       3.98025000       0.41423107      -0.40755374       0.09179267