2
Lattice="20.0 0.0 0.0 0.0 20.0 0.0 0.0 0.0 20.0" Properties=species:S:1:pos:R:3:forces:R:3 energy=-8.065701803736395 cutoff=-1.0 nneightol=1.2 stress="-0.002451796690048026 -0.0 -0.0 -0.0 -0.0 -0.0 -0.0 -0.0 -0.0" pbc="T T T"
P       10.85000000      10.00000000      10.00000000      11.53787469       0.00000000       0.00000000
P        9.15000000      10.00000000      10.00000000     -11.53787469       0.00000000       0.00000000
2
Lattice="20.0 0.0 0.0 0.0 20.0 0.0 0.0 0.0 20.0" Properties=species:S:1:pos:R:3:forces:R:3 energy=-8.86432444949494 cutoff=-1.0 nneightol=1.2 stress="-0.0010643408696986393 -0.0 -0.0 -0.0 -0.0 -0.0 -0.0 -0.0 -0.0" pbc="T T T"
P       10.90000000      10.00000000      10.00000000       4.73041161       0.00000000       0.00000000
P        9.10000000      10.00000000      10.00000000      -4.73041161       0.00000000       0.00000000
4
Lattice="20.0 0.0 0.0 0.0 20.0 0.0 0.0 0.0 20.0" Properties=species:S:1:pos:R:3:forces:R:3 energy=-11.593753507136933 cutoff=-1.0 nneightol=1.2 stress="-0.003917628992070965 -0.0 -0.0 -0.0 -0.0039176289920709794 -5.995204332975846e-17 -0.0 -5.995204332975846e-17 -0.0031564752843599698" pbc="T T T"
P       11.10000000      10.00000000       9.57218260      14.24594950      -0.00000000     -14.75620112
P        8.90000000      10.00000000       9.57218260     -14.24594950      -0.00000000     -14.75620112
P       10.00000000      11.10000000      10.42781740       0.00000000      14.24594950      14.75620112
P       10.00000000       8.90000000      10.42781740       0.00000000     -14.24594950      14.75620112
4
Lattice="20.0 0.0 0.0 0.0 20.0 0.0 0.0 0.0 20.0" Properties=species:S:1:pos:R:3:forces:R:3 energy=-17.187597899933962 cutoff=-1.0 nneightol=1.2 stress="0.0005064784154291457 -0.0 -0.0 -0.0 0.0005064784154294486 8.090750291955828e-17 -0.0 8.090750291955828e-17 0.0017919319634771911" pbc="T T T"
P       11.10000000      10.00000000       8.82218260      -1.84171540       0.00000000       3.04278666
P        8.90000000      10.00000000       8.82218260       1.84171540       0.00000000       3.04278666
P       10.00000000      11.10000000      11.17781740       0.00000000      -1.84171540      -3.04278666
P       10.00000000       8.90000000      11.17781740      -0.00000000       1.84171540      -3.04278666
4
Lattice="20.0 0.0 0.0 0.0 20.0 0.0 0.0 0.0 20.0" Properties=species:S:1:pos:R:3:forces:R:3 energy=-16.083374205359878 cutoff=-1.0 nneightol=1.2 stress="0.0014401432521362286 -2.168404344971009e-22 -0.0 -2.168404344971009e-22 0.001440143252136428 1.0424994201230219e-16 -0.0 1.0424994201230219e-16 -9.962144089693084e-05" pbc="T T T"
P       11.10000000      10.00000000       8.37218260      -5.23686092       0.00000000      -0.12241367
P        8.90000000      10.00000000       8.37218260       5.23686092       0.00000000      -0.12241367
P       10.00000000      11.10000000      11.62781740       0.00000000      -5.23686092       0.12241367
P       10.00000000       8.90000000      11.62781740       0.00000000       5.23686092       0.12241367
248
Lattice="19.207643 0.0 0.0 0.0 19.207643 0.0 0.0 0.0 19.207643" Properties=species:S:1:pos:R:3:forces:R:3 energy=-1311.0545984528567 hash=0a52d05be110f62b0b8ba1dd06f580af virial="0.494352900131 -7.65209813893 7.72109612803 -7.65209813893 14.1363610828 -13.2346104406 7.72109612803 -13.2346104406 19.6957855958" config_type=liq_12_03_01_liqP4 pressure=0.0016146784108647724 uploaded="2020-04-10 10:56:38.097000" hash_structure=7256de5227695c2198da4cf346617eea filename=liq_12_03_01_liqP4/liq_12_03_01_liqP4_mbd2.xyz username=gabor stress="-0.0007328923509476315 0.0006620781762768825 -0.0013508125983663678 0.0006620781762768825 -0.0018989348094174683 0.002125693373660026 -0.0013508125983663678 0.002125693373660026 -0.003392410424420407" volume=7086.343911736328 n_atoms=248 free_energy=-1310.85738039 modified="2020-04-10 10:56:38.097000" formula=P248 miguel_caro=T pbc="T T T"
P       19.07786000       1.83802000       2.14603000       0.80215500       0.47708091      -0.20020764
P        1.84009000       2.77358000       1.36927000      -1.01266609      -1.11550973       0.74803294
P        1.74336000       0.66243000       2.09671000      -0.27341112      -0.72359453      -1.22049646
P        1.56765000       2.19952000       3.55407000      -0.20947102       0.87161490      -0.10793780
P       17.28258000      18.89348000       5.16478000      -0.23557408       0.80048908       0.77451806
P       15.20283000      18.88955000       4.58162000      -0.48895659       0.58932212      -1.70196452
P       16.13352000       1.63244000       5.24472000      -0.31622867      -0.55204911      -0.73102413
P       15.56991000       0.04130000       6.60745000       0.91744673      -0.36884883       1.35026170
P        2.46893000       6.49209000       9.63336000      -0.52422544       0.57637016       0.28758705
P        0.67446000       6.85221000      11.06187000       0.93375142       1.20509096       0.50975471
P        1.57443000       4.92107000      10.78613000       1.15136644      -2.06481138       1.85829019
P        0.45238000       5.76483000       9.27418000      -1.62909633      -0.24278584      -3.12381971
P        2.46336000      18.93916000      13.69707000      -0.46827134       0.95519947       0.10268537
P        0.72883000       0.26124000      12.17388000       1.53499467      -1.54119937       1.57575711
P        1.05738000      17.37769000      13.20124000      -0.44767543       0.75000855      -0.94598437
P        2.49231000      18.17408000      11.69484000      -0.01253592      -0.49588629      -0.57110697
P        1.38800000       9.37700000       6.05427000       0.26964760      -0.39192579      -0.90473860
P        2.10276000       9.39052000       3.85828000      -1.64528915       0.12799529       1.51490098
P        1.78441000      11.24473000       4.98965000      -0.49023627      -0.10028817      -0.13818222
P       19.02665000      10.08705000       4.61127000       2.64965838      -0.40401844      -0.38957321
P       17.12988000       8.17216000       9.35508000      -1.06329880      -0.06978737      -0.66911713
P       16.12170000       6.39269000       8.45186000       0.02622953       0.37230197      -0.01912606
P       15.74389000       8.45077000       7.56637000       0.19603480      -1.37888918       0.92727817
P       14.90429000       7.89065000       9.53083000       0.60510227      -0.05339530       0.24415823
P        3.95699000       6.81330000      12.71951000      -1.15262833       0.38979164       0.33455029
P        5.58345000       8.01383000      12.12671000       1.99488400       0.73810761       0.42848353
P        4.26220000       8.76199000      13.83772000      -0.01471028      -0.50777144      -2.08472793
P        3.67527000       8.78640000      11.58075000      -0.64830690      -0.35104038       1.40206519
P        1.01983000       8.93949000      14.88483000      -1.76400710      -0.42381719      -0.56736793
P        2.45900000       8.55236000      16.32550000       0.66053311      -1.07353053       1.52899897
P        1.53976000       6.79518000      15.20026000       0.23293200       0.86519392       0.67043248
P        0.39531000       7.81703000      16.83387000       0.50038529       0.61434920      -1.23088529
P        6.11089000      12.48537000       4.19445000       0.87936915      -2.62062403       1.48616226
P        5.05776000      13.62600000       2.84621000      -0.70350700       2.02244785      -0.85812277
P        6.35435000      14.57964000       4.48239000      -0.57607227       0.30710890      -0.33877894
P        4.35606000      13.64102000       4.95309000       0.79840818      -0.46410353      -0.58260327
P        9.90000000      12.31790000       7.53923000      -0.64405879       0.77238099       0.03247233
P        8.94634000      14.24892000       6.79370000      -0.31214358      -1.24809675       0.88182091
P        8.91260000      13.71602000       9.04242000      -1.03967450      -1.19579811      -2.66946165
P        7.66022000      12.40318000       7.32798000       1.57806814       1.74402683       1.53645516
P        2.69679000      14.27808000      15.94839000      -1.30426485      -0.53077769      -0.41331551
P        2.86109000      12.91954000      14.26064000       1.47599370      -0.13955240      -1.52831607
P        1.32900000      14.50106000      14.14683000       0.42929293      -0.19209342       0.48898114
P        1.11737000      12.66089000      15.38832000      -0.62024828       0.73679210       1.28686612
P        0.19580000      11.36124000      18.52324000      -0.70976375      -0.15149937      -1.07263190
P        0.73462000      13.00233000       0.61568000      -0.19995091      -0.09477890       0.42025898
P        1.50957000      10.97325000       0.94404000       0.77272286      -0.10582519       0.64942988
P       18.60458000      11.35195000       1.36954000       0.24469102       0.48211584      -0.25234244
P        1.19715000      17.04527000       4.98874000       0.95224839      -0.16374332       0.49703559
P       18.42777000      16.21705000       5.00572000      -0.63922377      -1.15803237       1.11936242
P        0.94096000      14.88444000       4.38589000      -0.03521698       0.40710447       0.65847122
P        0.21693000      16.52856000       3.16165000      -0.04825987       0.42186066      -2.02807653
P        1.01236000       9.92171000       9.41814000      -0.37821427      -1.63854525       0.09649613
P        2.74727000      11.18371000       9.52578000      -0.14256224       0.71974039       0.70877304
P        0.64855000      11.77436000      10.43653000       1.96661405       0.85945520      -0.20966917
P        1.06560000      11.70892000       8.28212000      -0.30937296       1.01081613      -1.30752010
P        3.80117000      14.58010000       9.21055000       1.60682928       0.09668606       2.15306857
P        2.24618000      16.10580000       9.15115000      -0.19754972      -0.56520636      -1.09221839
P        3.10839000      14.84849000       7.29066000      -1.77457419       1.96456596      -0.47018587
P        4.19877000      16.60672000       8.25185000      -0.23222364      -1.17995494       0.07133756
P       18.95602000      17.58850000      16.76564000       2.26526038      -0.05727409      -0.41798062
P        0.17738000      16.52856000      18.76414000      -1.27742388       1.36143606      -1.08265027
P       17.30463000      17.17667000      17.94221000      -0.75421322      -1.28769761       1.55579400
P       18.68312000      18.71819000      18.61599000       0.61075362      -0.37861205       0.32417576
P        3.75807000       6.26861000      18.83772000      -0.62237966       0.49622202       0.48979958
P        2.61018000       7.54484000       1.11055000       0.11662896       0.39675991      -0.46986775
P        3.24836000       5.54686000       1.67318000      -0.40340213      -0.08512419      -0.31077986
P        1.62066000       5.81509000       0.21568000       0.55037733       0.05388705      -0.27684182
P        5.73652000       1.66169000       1.67546000      -0.24194720       1.05298712       0.98108537
P        6.35060000       3.33481000       0.45547000      -0.06907699       0.59883436      -1.91646986
P        7.57211000       2.81834000       2.13116000       1.46677841      -1.45304848      -0.59131058
P        5.87254000       3.90499000       2.45391000      -2.77735991       0.17237769       0.72271491
P        5.42576000       3.49020000      10.25292000       0.72893402       1.12955267       0.51692375
P        7.27570000       2.17394000      10.41615000      -1.93813747      -0.01951897      -1.11550993
P        5.46932000       1.76824000       8.99459000       0.55700843      -1.16074318       0.21953139
P        5.29405000       1.57762000      11.22531000       0.07871415      -0.52310919      -0.33230795
P        3.35427000       1.64202000      17.24673000      -0.07383929       1.39215468      -0.16467773
P        3.59075000       3.92502000      16.73871000      -0.81104287      -0.90084830       0.14209699
P        2.51259000       2.49734000      15.35809000       0.37875538       0.40763298       0.27414645
P        4.70537000       2.43007000      15.66162000      -0.45370990      -1.16583963       0.82391362
P        6.00329000       7.31035000       2.68615000       0.71304500       0.29989346       0.46139010
P        5.65367000       9.45857000       3.28249000       0.23636078      -0.63925245       0.10863319
P        5.80178000       8.87166000       1.18198000      -0.12698464       0.10901190      -0.85196911
P        7.62584000       8.86331000       2.39779000      -0.81954874      -0.52625916       0.75989717
P        4.12384000       5.69345000       5.02247000      -0.28498720      -0.30516315      -0.13748568
P        2.54302000       4.19741000       5.60064000      -0.39638793       0.60032167      -0.33431172
P        3.89429000       5.02163000       7.08019000       0.38802577      -0.09896664       0.89978771
P        4.63139000       3.59978000       5.52944000       0.38661103      -0.19764994       0.29446472
P        7.16902000       4.87340000      14.62399000      -0.14695880      -0.21784562      -0.70408935
P        7.99426000       2.85086000      14.67026000      -0.62416483      -0.14597080       0.96459046
P        8.00457000       3.76558000      12.78294000       0.16842318       1.95768787      -0.78861489
P        6.05554000       3.22750000      13.59782000       0.61370859       0.78435290      -0.40982869
P        5.93879000       7.92982000      16.15797000       0.75625978      -0.06241457       0.25904834
P        7.04761000       9.53081000      17.26331000       0.34455366      -0.66290260      -1.29934305
P        7.50927000       9.02606000      14.99429000       0.32625804      -0.90971434       2.41041043
P        8.04625000       7.56964000      16.84954000      -0.64184972       1.23422995      -1.36627450
P        4.94900000       8.97033000       8.68462000       0.02281391       2.85864701       3.05653459
P        4.30612000       8.13572000       6.96665000      -1.76729173      -2.17117996      -2.73592695
P        6.42211000       8.21559000       7.41553000       1.07802591      -0.08765923      -1.55193338
P        5.27188000      10.02001000       6.64058000       0.69516850      -0.10735374       1.36992513
P       12.80679000      14.04805000      13.05353000       0.37663337      -1.39255325      -1.41841918
P       10.75922000      14.57376000      12.07256000       0.60952937      -1.05118675      -0.54912325
P       12.40551000      15.95804000      12.13510000       0.82087527       1.37205060      -0.54733802
P       11.41981000      15.30227000      13.95082000      -1.09689116       1.76700124       2.00988964
P        8.03025000      13.40002000      12.30374000      -1.79023756      -0.60895052      -0.01247952
P        6.64961000      11.78925000      13.22450000       0.90335461       0.27709762      -1.33977899
P        7.13134000      11.85532000      10.93656000       0.79232778      -0.83733456       0.84795681
P        5.78934000      13.24394000      11.81660000       0.00938957       1.23578077       0.54216425
P        4.09323000      13.02198000      18.91425000       1.18724811      -0.69003260      -0.87317030
P        5.98284000      11.70095000      18.94398000       0.04114528       1.27556792       0.41008577
P        5.46713000      12.80773000      17.08314000      -0.01255219       0.73133268       0.86399726
P        4.32896000      11.12687000      17.74827000      -1.75104596      -1.01257314      -0.21384493
P        5.05559000      16.96031000       4.90175000      -0.96537880       1.96476140      -1.63394577
P        5.77822000      17.89196000       2.94540000       0.29190158      -0.39171031       0.62263610
P        4.94873000      19.19351000       4.50598000      -0.18511423      -0.35053572      -0.04229722
P        3.61741000      17.96637000       3.18682000       0.99416014      -0.58016335       1.46237331
P        0.99805000       0.25706000       8.63286000       0.24021020       0.35018472      -0.40950853
P        1.84415000       2.32447000       8.51112000       0.09719124      -0.66369601      -0.55159663
P        2.82366000       0.61126000       7.39644000      -0.38002994       0.28633058       0.48446510
P        0.88468000       1.38543000       6.71146000       0.03217276       0.10887860       0.47315516
P        5.76379000      16.61532000      12.49207000       1.67041057       0.63334470      -0.44935272
P        6.89284000      18.36218000      13.30051000       0.09350172      -0.39701845      -0.60564502
P        8.05816000      17.05147000      11.85371000      -2.29606140      -0.10780910       0.77431213
P        7.45823000      16.35327000      13.88960000      -0.11778319      -0.05428708      -0.60822897
P        5.17089000      18.70417000      18.39844000       0.10389823      -0.26619498      -0.24369124
P        4.29921000      17.60734000      16.68145000      -0.82057046       0.55646272      -0.24152158
P        3.66363000      17.11822000      18.77146000       0.48708775      -0.01128473      -0.76032480
P        5.69981000      16.61851000      17.92467000       0.05991432      -0.44289144       1.15701099
P       11.22598000       4.75562000       0.52796000      -0.76474460      -0.56617536       0.99893253
P        9.93014000       6.37344000      19.08786000       0.44770031       0.81926533       0.58038811
P       11.47311000       6.67458000       1.53461000       0.34939661       0.72923661      -0.67320991
P        9.59330000       5.70135000       1.96221000       0.25631788      -1.06128749      -0.63180170
P       13.37881000       1.11059000       9.08733000       0.53248610      -0.20242626       0.38733127
P       11.75761000       0.80025000       7.67933000      -0.28856921      -1.07961694      -0.83474411
P       12.14276000       2.75668000       8.37330000      -0.11856537       1.30966811       1.12509212
P       11.29240000       1.22808000       9.80404000       0.09357741       0.85731118      -1.44473217
P       12.24635000       1.09512000      12.66199000      -0.83601211      -0.89382132      -0.13142208
P       11.42555000      18.95326000      14.18471000      -0.53893803      -0.28708070      -0.21001227
P       10.49367000      18.88655000      12.07665000       1.03888018       0.52722198       1.93615522
P       10.20658000       1.44516000      13.47368000       0.99355286      -1.30767315      -0.83129728
P        8.86675000       2.64612000      17.78822000       1.11848009      -1.64876840       0.41230291
P        8.52097000       0.89704000      16.51900000      -1.00918725      -0.90564139      -0.52752408
P        9.08289000       0.40184000      18.52637000       0.89777588       1.23834232       0.09146549
P       10.58322000       1.28693000      17.01063000      -0.79215182       0.47069548       1.24970471
P       11.96338000       8.97750000       5.44827000      -0.58404514       1.04641374       1.32195209
P       11.69152000       9.50398000       3.42885000      -0.61391431       0.21744742      -1.15301360
P       11.37769000      11.17190000       4.84640000      -0.21748731      -1.66836740       0.53501708
P        9.87307000       9.44157000       4.74175000       1.34041555       0.45494238      -0.25206398
P        7.55811000       3.09112000       7.15441000       0.24960081      -0.26230487      -0.97616653
P        9.65009000       3.68199000       6.76873000      -0.03061800       0.01221386      -0.30557205
P        8.06466000       5.18320000       6.92929000       0.04961674       0.55718053      -0.34543178
P        8.19354000       3.92545000       5.11067000      -0.23263510      -0.14782289       1.28343689
P       10.81156000       6.90340000      10.11828000      -0.36276285       0.05134359      -1.31367246
P        9.33618000       7.97780000      11.22671000      -0.76691524       0.78090837       1.45291647
P        8.63184000       6.58352000       9.72151000      -0.27583440      -1.45913386       0.55185250
P        9.40589000       8.45430000       9.11547000       1.37221065       0.54253876      -0.33008543
P       13.15428000      10.56645000      14.22044000      -0.37295376       0.85014829       0.67477408
P       11.21571000      10.51292000      13.24626000      -0.42870779      -0.09867998       0.26184652
P       11.48807000      12.07750000      14.81499000       0.59704164      -0.80058777      -0.34904974
P       11.39912000       9.96333000      15.40614000      -0.41545789      -0.53743004      -0.33030031
P        9.55008000       9.70564000       0.50564000      -0.28530827       0.11777842      -0.89014304
P       11.43249000      10.57081000      19.07062000       0.31155214       0.43352968      -0.50805002
P       10.21666000      11.61198000       1.32834000       0.51234886       0.38540475       1.76051414
P        9.55110000      11.64830000      18.54070000      -0.23703483      -1.27075176      -1.12662187
P       12.88308000      10.26326000       8.96941000      -1.90118542      -1.28179757      -0.50299303
P       13.99480000      12.01897000       9.03791000       0.75370579       1.54312375       0.91439061
P       13.95881000      10.62830000      10.80361000      -1.38283865       1.21483607      -0.61442675
P       12.06924000      11.99888000      10.20258000       1.83524871      -1.68628498      -0.22650507
P       16.11458000      17.37923000      12.66646000       0.39161942      -0.43458948      -0.24809509
P       16.28637000      15.86478000      14.30823000       0.95143794       0.47556006      -0.25733274
P       16.92145000      18.09185000      14.61581000      -0.59906825      -1.29758268      -0.39522603
P       14.82067000      17.41593000      14.39838000      -0.75337298       1.03686181       0.49362508
P       15.10673000      12.38953000      16.69332000       0.86013904       0.95695678      -0.51685884
P       15.92314000      13.81202000      18.29684000      -1.47797321      -0.52285155      -1.05253635
P       13.82737000      12.92986000      18.28495000      -0.01001780       1.01291319       0.83328960
P       14.33578000      14.52693000      16.79253000       0.75337410      -1.14997228       0.81522903
P        8.85910000      14.38026000       2.94845000      -0.28012088      -0.06554461       0.64573079
P       10.02418000      16.07734000       3.91173000      -0.25608203      -1.31069030      -2.57637542
P        9.32493000      16.02121000       1.59164000      -0.15661165       1.03723094       1.41984264
P       10.85001000      14.66000000       2.24194000       1.25408692       0.21212535       0.75313841
P        7.35910000      17.10546000       8.34280000       0.99346383      -0.19346694      -0.19290472
P        8.86465000      17.63154000       6.71042000       0.22993179      -1.29763542      -0.04759663
P        8.81610000      18.82140000       8.52222000      -1.76938994       0.06449624      -0.50404407
P        7.05385000      18.75987000       6.95397000       0.12156964       1.27027900       0.72452060
P       15.89359000      10.95022000      12.93066000       1.21714384       0.57772411       0.04891180
P       17.86874000      10.90178000      11.83193000      -1.66640778      -0.83201271      -0.72866984
P       17.90694000      11.16431000      13.90770000      -0.26621554       0.36508686       1.34031371
P       17.15663000      12.81163000      12.64841000      -0.15164279      -0.41846623       0.21437139
P        9.02317000      16.54675000      17.69035000      -0.93964035      -0.93702922      -0.30009682
P       10.10480000      14.82033000      16.90386000       0.53022590      -0.52464076       0.75199503
P        8.02054000      14.93310000      16.35162000       0.27355438       0.36929047       1.00642672
P        8.52372000      14.43449000      18.50218000       0.56854870       1.10053330      -1.25014887
P        9.98052000       0.91229000       4.78868000      -0.55708753      -0.17512635      -1.16386261
P        9.76943000      19.03733000       2.71946000       1.51950930       0.85224080       1.49013653
P       11.78431000       0.93543000       3.55416000      -1.37521608      -0.56989747      -0.99556839
P        9.91124000       1.98745000       2.78328000       2.42309162      -0.41160448       1.16661550
P       16.41151000       3.71180000      11.35452000      -0.12508527      -1.08293259       0.02408265
P       16.02521000       1.47939000      11.39098000      -2.14264663      -0.25323852       1.32499740
P       17.96472000       2.11518000      11.00496000       1.08027531       1.30848684      -0.95279885
P       16.29290000       2.44114000       9.51842000       0.75315802       0.54601995      -0.47215726
P       17.78877000       1.72056000      14.44572000       0.30444685      -0.01068010      -0.17958518
P       18.37134000       1.89136000      16.57890000      -1.50988128       0.39891280      -0.09947435
P       16.38994000       2.88979000      15.70916000       1.90449578      -0.36737813       0.31283329
P       18.50470000       3.63685000      15.30711000      -0.61068227       0.41130095      -0.36260121
P       12.32407000       5.95145000      14.41021000       0.51140403       2.33573283      -1.34817915
P       11.59373000       4.69360000      15.89847000       0.24119296      -1.81382711       0.01773891
P       13.66084000       4.34281000      14.92716000      -0.10474635      -0.23890428       1.00267291
P       11.89696000       3.91373000      13.74073000      -0.66158239       0.74996927       0.46975850
P        0.22156000       6.28063000       3.02048000      -0.61088630       0.95758511       1.43141899
P       17.67966000       6.87054000       4.55448000       1.49468287      -0.15324275      -0.94012688
P       17.40846000       5.51499000       2.84815000      -0.66416622       0.55660868      -0.53491668
P       17.81947000       7.75472000       2.49021000      -0.32624949      -1.46319846       0.04864022
P       14.09780000       3.98284000       6.20048000       0.01569027       0.06962769       0.42335225
P       12.36285000       4.29617000       4.90383000       1.25745660       1.58766959       0.59522788
P       14.42100000       5.29084000       4.47173000      -1.82631891       0.30002197       1.19427516
P       13.09669000       5.99980000       6.41213000       0.57095658      -1.83754569      -2.50340626
P       15.72891000       8.22235000      14.34060000      -0.63259520       1.57677540      -0.49873419
P       15.03467000       6.77304000      12.76465000       0.62922123       1.07862396      -0.38946123
P       16.11610000       6.19548000      14.51760000       1.80557403      -1.80978104      -0.06090335
P       17.25029000       7.45975000      12.87041000      -1.68823806      -0.90392122       1.15171995
P       15.87546000       1.93586000       0.19323000       0.54475412      -1.29822284      -0.23682681
P       16.16498000       4.02419000      18.94146000       0.18259138       0.60861651      -0.27170396
P       14.52177000       3.36155000       1.02344000      -0.68359332       0.61735502       0.42663749
P       14.46105000       2.92363000      18.07343000      -0.07365318       0.18354682       0.33727014
P       14.24185000      15.90057000       2.23156000      -0.17069041      -1.35500553       0.30798037
P       15.75255000      15.02278000       3.57084000       1.46803938      -0.20171041      -0.62142012
P       14.53652000      13.62016000       2.34641000       0.73786912       0.34313434      -1.26594524
P       13.74989000      14.61396000       4.00151000      -2.39567189       0.99611287       1.63581583
P       17.36657000      12.14807000       5.20848000      -0.18162041       0.16424973       0.11752453
P       16.67008000      11.03775000       7.02773000       0.18135400       2.24393260       0.03304527
P       15.71051000      10.68473000       5.17485000      -0.22492829       0.92752505      -0.88420311
P       15.44099000      12.86230000       5.95187000       0.38681787      -1.79521347       0.55804263
P       16.63801000      14.76949000       9.99372000       0.43220995      -0.41753939      -0.96634006
P       17.62311000      16.67805000       9.67581000      -0.08516438       1.11292959      -0.75278774
P       18.22682000      15.03718000       8.30414000      -1.41183694       0.13539489      -0.78270485
P       18.79349000      15.01723000      10.30507000       1.29339601      -0.77282712       2.23312204
P       14.25793000       8.24436000       0.29885000       0.76360008      -0.51288221       0.33868114
P       15.29435000       9.56155000      18.04078000      -0.86456594      -1.14959687      -0.31617286
P       13.39339000       8.37584000      17.54196000       0.39880064       0.65074572      -0.55842879
P       15.31600000       7.31613000      17.73457000      -0.03932628       0.35905284       0.64833148
P       12.09672000      17.65250000      19.19712000       0.82943828      -2.30966623      -0.77759642
P       13.07278000       0.20349000      18.74188000       0.65147665       1.93341469      -1.50086761
P       13.11498000      17.77546000      17.07300000      -0.75530488       0.88082695       1.98218521
P       14.42997000      17.70393000      18.86940000      -1.53945144      -0.23166894       0.31966736
P       14.12663000      16.08888000       7.23556000       0.96955356      -0.46057270       0.81912211
P       12.52932000      15.00409000       8.35433000       0.11319716       0.28377524      -1.02584584
P       12.14626000      16.78241000       6.97946000      -1.00358541      -0.08351368       0.75623031
P       13.10301000      16.99928000       9.01336000       0.12499374       0.00838484      -0.55096351
248