4
Lattice="2.438806860601135 0.10478265272100044 0.15567641251350398 -0.19704909807353807 6.2407049610286585 -0.42592953046505805 -0.1970490980735375 -2.743776498973773 5.621343691610495" Properties=species:S:1:pos:R:3:initial_magmoms:R:1:castep_labels:S:1:forces:R:3 n_minim_iter=1 energy=-21.310210714713 stress="-0.00010384266960383404 3.3210401866347845e-05 4.933429262754572e-05 3.3210401866347845e-05 0.0009716449096766627 0.003932304105044375 4.933429262754572e-05 0.003932304105044375 0.004167183468968691" free_energy=-21.310210714713 pbc="T T T"
P        1.05849615       0.15243170       2.47376233       0.00000000 NULL       0.12731100      -0.33843500      -0.86822200
P        0.98621250       1.36728371       4.27867754       0.00000000 NULL      -0.12731200       0.67696500       0.64036400
P        1.18757944       2.95815383       0.57272181       0.00000000 NULL      -0.30036700      -0.49939700      -0.37654900
P        0.85712921       4.18464715       2.39493260       0.00000000 NULL       0.30036900       0.16086700       0.60440700
4
Lattice="2.4431019202152346 0.09154518946173447 0.13600940907860373 -0.20051468693945027 6.177421543082599 -0.8113300894927835 -0.20051468693945013 -3.077007615849127 5.417639482935695" Properties=species:S:1:pos:R:3:initial_magmoms:R:1:castep_labels:S:1:forces:R:3 n_minim_iter=2 energy=-21.771799352616 stress="-0.01167366017049811 -0.00173297744835823 -0.002574607889466633 -0.00173297744835823 0.0108585978414547 -0.00029330143517295484 -0.002574607889466633 -0.00029330143517295484 0.010620142459406014" free_energy=-21.771799352616 pbc="T T T"
P        1.08563698      -0.07348194       2.12560392       0.00000000 NULL       0.04721600       0.05939100      -0.00714800
P        0.95643556       1.19504144       4.01025909       0.00000000 NULL      -0.04721600       0.02898000      -0.05233500
P        1.12378719       2.77667947       0.26830012       0.00000000 NULL      -0.05827000      -0.51744200      -0.67337700
P        0.91828535       3.98861336       2.06887984       0.00000000 NULL       0.05827100       0.42907100       0.73286000
4
Lattice="2.4999405743982748 0.09546441028986634 0.1418322263343985 -0.1880724850595936 6.04254029085198 -0.8462250764953267 -0.18807248505959326 -3.0585628586479556 5.2795438521105424" Properties=species:S:1:pos:R:3:initial_magmoms:R:1:castep_labels:S:1:forces:R:3 n_minim_iter=3 energy=-21.833371808562 stress="0.017056272623154844 0.0011569214013142036 0.001719017619184786 0.0011569214013142036 -0.011668351543715974 -0.0022155201010728865 0.001719017619184786 -0.0022155201010728865 -0.013468580455069545" free_energy=-21.833371808562 pbc="T T T"
P        1.12624340      -0.09567625       2.04135196       0.00000000 NULL       0.06475200       0.25286300      -0.32628500
P        0.99755219       1.15222449       3.89536791       0.00000000 NULL      -0.06475200       0.39746700      -0.11143800
P        1.14892246       2.68907468       0.21630002       0.00000000 NULL       0.02339500      -0.85760200      -0.57218800
P        0.97487314       3.89129447       2.00244743       0.00000000 NULL      -0.02339600       0.20727200       1.00991100
4
Lattice="2.4991664892605883 0.10229211731735652 0.15197620444653023 -0.17013990811230015 5.97140598141737 -0.8323426393129871 -0.17013990811229965 -3.018924588786591 5.218867500842049" Properties=species:S:1:pos:R:3:initial_magmoms:R:1:castep_labels:S:1:forces:R:3 n_minim_iter=4 energy=-21.912956804374 stress="0.015863638552873333 0.001699705345184578 0.002525232826788373 0.001699705345184578 -0.003390375619430572 0.008963485376531527 0.002525232826788373 0.008963485376531527 0.0038936985712553474" free_energy=-21.912956804374 pbc="T T T"
P        1.14328224      -0.08116960       1.99942080       0.00000000 NULL       0.07112700       0.28300400      -0.30227200
P        1.01560443       1.17186381       3.86106241       0.00000000 NULL      -0.07112700       0.38656800      -0.14840100
P        1.15063782       2.60838207       0.17931608       0.00000000 NULL       0.03474800      -0.31404700       0.25614500
P        1.00824884       3.87051480       2.05447663       0.00000000 NULL      -0.03474700      -0.35552500       0.19452800
4
Lattice="2.476148349801023 0.10063511183162811 0.1495143783442627 -0.16832493381220429 5.941124149609867 -0.8709482013977317 -0.16832493381220376 -3.043291625035887 5.176280809189344" Properties=species:S:1:pos:R:3:initial_magmoms:R:1:castep_labels:S:1:forces:R:3 n_minim_iter=5 energy=-21.932901649846 stress="0.0005941568871066259 0.001782613693791497 0.002648389244503198 0.001782613693791497 -0.0072551790904180295 -0.003183616753302667 0.002648389244503198 -0.003183616753302667 -0.009842350437068161" free_energy=-21.932901649846 pbc="T T T"
P        1.13538699      -0.08925478       1.96792751       0.00000000 NULL       0.08158200       0.04880800      -0.54156700
P        1.00411149       1.14169128       3.79675376       0.00000000 NULL      -0.08158300       0.52010100       0.15864600
P        1.13964725       2.57324615       0.14763228       0.00000000 NULL       0.04286600      -0.29878900       0.17015900
P        0.99985122       3.83033611       2.01530074       0.00000000 NULL      -0.04286600      -0.27012000       0.21276100
4
Lattice="2.496523744080188 0.09282845847694153 0.137915971962721 -0.18679495802072124 5.924459140780071 -0.877390050851962 -0.18679495802072082 -3.0429864747301387 5.1584166879688915" Properties=species:S:1:pos:R:3:initial_magmoms:R:1:castep_labels:S:1:forces:R:3 n_minim_iter=6 energy=-21.945932579852 stress="0.014367816989679249 0.0004946681913264218 0.0007349274313205608 0.0004946681913264218 0.003974639622246884 -0.010785081493585803 0.0007349274313205608 -0.010785081493585803 -0.004789605824773106" free_energy=-21.945932579852 pbc="T T T"
P        1.13915627      -0.08281424       1.94014811       0.00000000 NULL       0.02680500      -0.18894700      -0.44390300
P        0.98377755       1.14568527       3.76533952       0.00000000 NULL      -0.02680400       0.34012800       0.34214800
P        1.14320112       2.54207292       0.14164089       0.00000000 NULL      -0.01109000      -0.09790300       0.01772900
P        0.97973270       3.79998582       2.01053200       0.00000000 NULL       0.01108900      -0.05327800       0.08402600
4
Lattice="2.489499806489971 0.07343406148875986 0.10910156358901818 -0.22915442619295023 5.712359059829185 -0.7607813179222954 -0.22915442619294926 -2.8551143924018247 5.005812226643361" Properties=species:S:1:pos:R:3:initial_magmoms:R:1:castep_labels:S:1:forces:R:3 n_minim_iter=7 energy=-21.997702651383 stress="0.012222240538031885 -0.004783859207840676 -0.007107473904200521 -0.004783859207840676 -0.008589370260008838 -0.0007056937516326315 -0.007107473904200521 -0.0007056937516326315 -0.009162822086485613" free_energy=-21.997702651383 pbc="T T T"
P        1.12291257      -0.02838047       1.84600667       0.00000000 NULL      -0.10187200       0.01174300      -0.38078600
P        0.90827838       1.20977023       3.68553692       0.00000000 NULL       0.10187300       0.35720000       0.13245800
P        1.12628577       2.40456474       0.18247122       0.00000000 NULL      -0.12441800      -0.18384600       0.12509600
P        0.90490517       3.66677441       2.05774607       0.00000000 NULL       0.12441700      -0.18509700       0.12323300
4
Lattice="2.4860922290695786 0.09381734229405679 0.13938516443918123 -0.1810369704055323 5.600862398488883 -0.7009613598731049 -0.18103697040553085 -2.7577239772610476 4.925034507501586" Properties=species:S:1:pos:R:3:initial_magmoms:R:1:castep_labels:S:1:forces:R:3 n_minim_iter=8 energy=-22.009995754839 stress="0.010542279073564097 -0.00022581791807095542 -0.00033552765988428064 -0.00022581791807095542 -0.022686195530101393 0.004784624429949842 -0.00033552765988428064 0.004784624429949842 -0.018797976159860997" free_energy=-22.009995754839 pbc="T T T"
P        1.15101920       0.02000917       1.81108614       0.00000000 NULL      -0.05488600       0.05703600      -0.18905700
P        0.97299909       1.26661446       3.66317743       0.00000000 NULL       0.05488600       0.19661700       0.01833000
P        1.15445815       2.34178735       0.23263266       0.00000000 NULL      -0.07545600      -0.09793100       0.12828700
P        0.96956014       3.60294842       2.10634960       0.00000000 NULL       0.07545600      -0.15572100       0.04244000
4
Lattice="2.4729643939898662 0.1017257850954422 0.15113480020347203 -0.16334582323208385 5.6735442495574135 -0.7255284651518159 -0.16334582323208247 -2.8078435519297296 4.983122564549087" Properties=species:S:1:pos:R:3:initial_magmoms:R:1:castep_labels:S:1:forces:R:3 n_minim_iter=9 energy=-22.028245880851 stress="0.0041737013377020704 0.0016254499420310028 0.0024149322829174155 0.0016254499420310028 -0.0019615859328747905 0.0010467621476618718 0.0024149322829174155 0.0010467621476618718 -0.0011108903284800843" free_energy=-22.028245880851 pbc="T T T"
P        1.14536377       0.00931683       1.83621727       0.00000000 NULL       0.02065600       0.01665200      -0.02248200
P        1.00090897       1.26977765       3.70889384       0.00000000 NULL      -0.02065600       0.02709100      -0.00695900
P        1.14368353       2.38634720       0.23629191       0.00000000 NULL       0.02708600      -0.02780700       0.00589500
P        1.00258921       3.64680262       2.10896045       0.00000000 NULL      -0.02708500      -0.01593500       0.02354700
4
Lattice="2.4675281126105024 0.09538777269446583 0.1417183652552437 -0.17713096450573168 5.678678577849817 -0.7344598426061414 -0.1771309645057303 -2.8180506946073156 4.984517221713129" Properties=species:S:1:pos:R:3:initial_magmoms:R:1:castep_labels:S:1:forces:R:3 n_minim_iter=10 energy=-22.029575895161 stress="0.0006795054407638951 0.00020123814976469195 0.00029901314078863703 0.00020123814976469195 -0.000551137331479313 -0.000126062095345338 0.00029901314078863703 -0.000126062095345338 -0.0006536780846443624" free_energy=-22.029575895161 pbc="T T T"
P        1.13008537       0.00102921       1.82745372       0.00000000 NULL       0.02145100       0.01044800       0.00541800
P        0.98318081       1.26336608       3.70291755       0.00000000 NULL      -0.02145200      -0.00108500      -0.01172100
P        1.13565456       2.38328164       0.22549858       0.00000000 NULL       0.00105700      -0.00567200       0.00168200
P        0.97761161       3.64423726       2.09891029       0.00000000 NULL      -0.00105600      -0.00369100       0.00462100
4
Lattice="2.466360552314781 0.09544612352939423 0.14180505755032244 -0.1769933592505774 5.679483996408254 -0.7335778483203538 -0.17699335925057597 -2.817536756688881 4.98559540573751" Properties=species:S:1:pos:R:3:initial_magmoms:R:1:castep_labels:S:1:forces:R:3 n_minim_iter=11 energy=-22.029715051835 stress="1.9370100671135337e-05 3.4128272611047976e-05 5.073121604344969e-05 3.4128272611047976e-05 -0.00021383976217102582 -2.5058146106309996e-05 5.073121604344969e-05 -2.5058146106309996e-05 -0.0002341322485884057" free_energy=-22.029715051835 pbc="T T T"
P        1.13468619       0.00191579       1.82872232       0.00000000 NULL      -0.00216100       0.00846400       0.00510600
P        0.97768764       1.26390224       3.70366552       0.00000000 NULL       0.00216100      -0.00154400      -0.00976400
P        1.13402219       2.38385333       0.22634546       0.00000000 NULL       0.00080200      -0.00367600       0.00200700
P        0.97835164       3.64504559       2.10010872       0.00000000 NULL      -0.00080200      -0.00324300       0.00265000
