22
Lattice="5.214490623302759 -0.22724709654380948 -0.34844741090451226 -1.4078937630761987 8.865754082319354 1.2874087308227573 -1.4078937630762218 -2.396431114390843 8.632272852635069" Properties=species:S:1:pos:R:3:initial_magmoms:R:1:castep_labels:S:1:forces:R:3 n_minim_iter=1 energy=-118.6157880855 stress="6.842854184882724e-05 1.3283043107361156e-05 2.0378790719241698e-05 1.3283043107361156e-05 -9.445446734569013e-05 3.209045719283e-05 2.0378790719241698e-05 3.209045719283e-05 -6.614513517787607e-05" free_energy=-118.6157880855 pbc="T T T"
P        0.18543168       6.19076654       4.34238917       0.00000000 NULL       0.00331300      -0.00058600       0.00702900
P        2.21327141       4.76431972       2.15515901       0.00000000 NULL      -0.00331300      -0.00666900      -0.00229700
P        3.51303823       2.15676694       0.50168134       0.00000000 NULL      -0.00247400      -0.00063900       0.00596300
P       -1.11433514       6.65256003       7.39526760       0.00000000 NULL       0.00247400      -0.00571400      -0.00182000
P       -0.82994537       4.50877147       7.90869559       0.00000000 NULL       0.00572400       0.00870500       0.00277100
P        3.22864847       0.82257131       2.25649178       0.00000000 NULL      -0.00572400       0.00097400      -0.00908300
P        2.79687573       4.29056594       4.34076881       0.00000000 NULL       0.00152500       0.00296300      -0.00564100
P       -0.39817263       3.99966541       3.89471894       0.00000000 NULL      -0.00152500       0.00635800      -0.00043800
P        1.04853841       0.36831664       1.82178627       0.00000000 NULL       0.00281200      -0.00504300       0.00012500
P        1.35016469       4.72342824       8.49965976       0.00000000 NULL      -0.00281200      -0.00214800       0.00456500
P        0.75211450       3.92675541       6.39781410       0.00000000 NULL      -0.00051000       0.00758900      -0.00474900
P        1.64658860       1.97054363       3.39827333       0.00000000 NULL       0.00051000       0.00740500      -0.00503000
P        2.66947303       6.94512203       2.12399945       0.00000000 NULL      -0.00126600       0.00076700      -0.00132200
P       -0.27076993       7.09855344       2.35926219       0.00000000 NULL       0.00126600       0.00151900      -0.00017000
P        4.18624637       4.09564672       1.37576754       0.00000000 NULL       0.00620500       0.00020700       0.00353200
P       -1.78754327       6.63440064       5.26854436       0.00000000 NULL      -0.00620500      -0.00314700      -0.00161300
P       -1.11956594       1.44439263       7.39467391       0.00000000 NULL       0.00610600      -0.00006100       0.00762700
P        3.51826904       0.05744223       5.26800527       0.00000000 NULL      -0.00610600      -0.00700400      -0.00301900
P        1.36064684       0.57439820       5.11719072       0.00000000 NULL       0.00653600      -0.00279800       0.00518900
P        1.03805626       1.79083583       6.98240506       0.00000000 NULL      -0.00653600      -0.00587700       0.00046800
P        2.07735229       6.92725407       7.83115942       0.00000000 NULL      -0.00374300       0.00400700       0.00264900
P        0.32135081       1.86862795       0.07455791       0.00000000 NULL       0.00374300      -0.00080800      -0.00473500
22
Lattice="5.213961421197324 -0.22736855630402153 -0.34863365019917736 -1.4079665836929531 8.866997774532988 1.2871481183179883 -1.407966583692976 -2.39717104658188 8.633305901304087" Properties=species:S:1:pos:R:3:initial_magmoms:R:1:castep_labels:S:1:forces:R:3 n_minim_iter=2 energy=-118.615797099036 stress="2.2217125694281505e-05 1.134178129365531e-05 1.7405460903033797e-05 1.134178129365531e-05 6.071044402426316e-05 -3.9278896255083325e-06 1.7405460903033797e-05 -3.9278896255083325e-06 5.724899129178394e-05" free_energy=-118.615797099036 pbc="T T T"
P        0.18516410       6.19144036       4.34254497       0.00000000 NULL       0.00313200      -0.00049000       0.00514500
P        2.21286415       4.76483112       2.15506577       0.00000000 NULL      -0.00313200      -0.00490600      -0.00162600
P        3.51260268       2.15697966       0.50153941       0.00000000 NULL      -0.00282200      -0.00062600       0.00774900
P       -1.11457442       6.65315797       7.39571636       0.00000000 NULL       0.00282200      -0.00734300      -0.00255200
P       -0.83017467       4.50908345       7.90930961       0.00000000 NULL       0.00482500       0.01055900       0.00139700
P        3.22820292       0.82251750       2.25654491       0.00000000 NULL      -0.00482500       0.00297900      -0.01022600
P        2.79636728       4.29092621       4.34088884       0.00000000 NULL       0.00088200       0.00439600      -0.00692000
P       -0.39833902       4.00008312       3.89492705       0.00000000 NULL      -0.00088200       0.00810600      -0.00123400
P        1.04837530       0.36824030       1.82192008       0.00000000 NULL       0.00198400      -0.00537900      -0.00055200
P        1.34965296       4.72365731       8.50026187       0.00000000 NULL      -0.00198400      -0.00166200       0.00514500
P        0.75175540       3.92702125       6.39822665       0.00000000 NULL      -0.00070700       0.00521700      -0.00302900
P        1.64627286       1.97065558       3.39844992       0.00000000 NULL       0.00070700       0.00487500      -0.00355300
P        2.66898253       6.94596800       2.12378567       0.00000000 NULL      -0.00240800      -0.00201500      -0.00201900
P       -0.27095427       7.09947245       2.35916043       0.00000000 NULL       0.00240800       0.00103600       0.00265700
P        4.18570651       4.09608566       1.37558884       0.00000000 NULL       0.00629000      -0.00100000       0.00449000
P       -1.78767825       6.63512345       5.26880093       0.00000000 NULL      -0.00629000      -0.00451000      -0.00089600
P       -1.11968541       1.44426101       7.39541339       0.00000000 NULL       0.00461600      -0.00238000       0.00783900
P        3.51771366       0.05709476       5.26841376       0.00000000 NULL      -0.00461600      -0.00813400      -0.00098200
P        1.36035841       0.57419218       5.11765653       0.00000000 NULL       0.00498200      -0.00033500       0.00354000
P        1.03766984       1.79070880       6.98299198       0.00000000 NULL      -0.00498200      -0.00337400      -0.00112100
P        2.07673720       6.92784196       7.83155623       0.00000000 NULL      -0.00430000       0.00503300       0.00227100
P        0.32129105       1.86888416       0.07444613       0.00000000 NULL       0.00430000      -0.00004800      -0.00552200
22
Lattice="5.213325816285543 -0.22756169966360962 -0.3489298049338493 -1.4082183638276287 8.866849760611478 1.286917093818365 -1.408218363827652 -2.397322783756067 8.63307730499975" Properties=species:S:1:pos:R:3:initial_magmoms:R:1:castep_labels:S:1:forces:R:3 n_minim_iter=3 energy=-118.615804103347 stress="-0.00012264722393828922 -7.538077627438396e-06 -1.1540379429628816e-05 -7.538077627438396e-06 -1.861193108012477e-05 -2.440667479372562e-05 -1.1540379429628816e-05 -2.440667479372562e-05 -4.014578801583641e-05" free_energy=-118.615804103347 pbc="T T T"
P        0.18465479       6.19118538       4.34220607       0.00000000 NULL       0.00483300       0.00062400       0.00588000
P        2.21223430       4.76454556       2.15467997       0.00000000 NULL      -0.00483300      -0.00512900      -0.00294200
P        3.51201562       2.15677950       0.50129724       0.00000000 NULL      -0.00351000      -0.00128700       0.00598600
P       -1.11512653       6.65280600       7.39524139       0.00000000 NULL       0.00350900      -0.00599600      -0.00123600
P       -0.83068925       4.50888074       7.90889107       0.00000000 NULL       0.00222900       0.00932500       0.00107400
P        3.22757834       0.82232588       2.25614339       0.00000000 NULL      -0.00222900       0.00277600      -0.00896700
P        2.79558329       4.29063883       4.34034647       0.00000000 NULL      -0.00088900       0.00291800      -0.00601500
P       -0.39869420       3.99997069       3.89465294       0.00000000 NULL       0.00088900       0.00668100      -0.00024600
P        1.04813401       0.36809557       1.82176156       0.00000000 NULL       0.00014000      -0.00541900      -0.00097000
P        1.34875508       4.72325113       8.49970245       0.00000000 NULL      -0.00014000      -0.00129600       0.00534800
P        0.75110725       3.92677950       6.39775106       0.00000000 NULL      -0.00018800       0.00403900      -0.00364400
P        1.64578183       1.97050043       3.39810712       0.00000000 NULL       0.00018800       0.00496300      -0.00222700
P        2.66821918       6.94566085       2.12331029       0.00000000 NULL      -0.00409300      -0.00186000      -0.00123300
P       -0.27133009       7.09929074       2.35887740       0.00000000 NULL       0.00409400       0.00038100       0.00220000
P        4.18497566       4.09579720       1.37518573       0.00000000 NULL       0.00667300      -0.00017900       0.00283500
P       -1.78808657       6.63488314       5.26847166       0.00000000 NULL      -0.00667300      -0.00266500      -0.00097900
P       -1.12000962       1.44404929       7.39517294       0.00000000 NULL       0.00325800      -0.00176300       0.00881700
P        3.51689870       0.05673654       5.26794868       0.00000000 NULL      -0.00325700      -0.00878100      -0.00194100
P        1.35989430       0.57396757       5.11736208       0.00000000 NULL       0.00227300      -0.00015300       0.00183100
P        1.03699479       1.79039479       6.98256047       0.00000000 NULL      -0.00227300      -0.00173700      -0.00059800
P        2.07568471       6.92743789       7.83089709       0.00000000 NULL      -0.00500600       0.00390300       0.00100300
P        0.32120438       1.86883154       0.07432588       0.00000000 NULL       0.00500700       0.00065600      -0.00397800
