13
Lattice="4.759179999999996 1.427619747341705e-16 -6.737777923343784e-16 -2.123431149143609 6.372877096237356 2.471668235365135e-15 -0.646048155432642 -1.314482515734983 9.401412507123013" Properties=species:S:1:pos:R:3:initial_magmoms:R:1:castep_labels:S:1 n_minim_iter=1 pbc="T T T"
P        3.88278609       0.39344327       4.41893276       0.00000000 NULL
P        0.87925773       0.15797178       8.36842667       0.00000000 NULL
P        1.62673669       0.04676339       3.42494680       0.00000000 NULL
P        2.93011390       4.76889137       2.00551402       0.00000000 NULL
P       -0.04673025      -0.71393900       5.89169787       0.00000000 NULL
P        1.01895164       2.71614230       1.42506329       0.00000000 NULL
P        1.08872271       5.55426661       2.52051023       0.00000000 NULL
P       -0.78585119       2.73109878       7.04271469       0.00000000 NULL
P        2.99340322       2.40952045       1.54572102       0.00000000 NULL
P       -0.24072541       2.66392598       9.34757062       0.00000000 NULL
P        2.47058153       2.66491241       9.20109097       0.00000000 NULL
P       -0.94003019       1.09721008       8.19998250       0.00000000 NULL
P        1.58799303       3.90527445       3.60066860       0.00000000 NULL
13
Lattice="4.773661773935913 -0.0037235056473627326 -0.0017843683593028784 -2.1348786030596565 6.3862700650903825 -0.002261601649355979 -0.6505104836653337 -1.3209077006373893 9.41112064236392" Properties=species:S:1:pos:R:3:initial_magmoms:R:1:castep_labels:S:1 n_minim_iter=2 pbc="T T T"
P        3.89258213       0.38918508       4.42133333       0.00000000 NULL
P        0.87880521       0.15338522       8.37586024       0.00000000 NULL
P        1.63010555       0.04404215       3.42767901       0.00000000 NULL
P        2.93484836       4.77442684       2.00408359       0.00000000 NULL
P       -0.04847965      -0.71815130       5.89772514       0.00000000 NULL
P        1.01911920       2.71944427       1.42501800       0.00000000 NULL
P        1.08671242       5.56260244       2.51960214       0.00000000 NULL
P       -0.79300720       2.73361340       7.04818455       0.00000000 NULL
P        3.00032868       2.41079681       1.54492142       0.00000000 NULL
P       -0.24684653       2.66495742       9.35505447       0.00000000 NULL
P        2.47239141       2.66352966       9.20742030       0.00000000 NULL
P       -0.94701389       1.09566067       8.20741757       0.00000000 NULL
P        1.58843210       3.90923590       3.60170085       0.00000000 NULL
13
Lattice="5.07662426238565 -0.08381494259504987 -0.041335996814668124 -2.377301219797179 6.667517862918565 -0.04916208385492379 -0.7476471201736741 -1.4558973379937985 9.605398384020708" Properties=species:S:1:pos:R:3:initial_magmoms:R:1:castep_labels:S:1 n_minim_iter=3 pbc="T T T"
P        4.09517981       0.29803300       4.46532968       0.00000000 NULL
P        0.86543914       0.05619037       8.52268095       0.00000000 NULL
P        1.69863622      -0.01389230       3.48073837       0.00000000 NULL
P        3.03107795       4.88865728       1.97044650       0.00000000 NULL
P       -0.08747560      -0.80684312       6.01810242       0.00000000 NULL
P        1.02057006       2.78779784       1.42214999       0.00000000 NULL
P        1.04088555       5.73643885       2.49717058       0.00000000 NULL
P       -0.94731379       2.78608840       7.15582123       0.00000000 NULL
P        3.14355212       2.43597606       1.52494923       0.00000000 NULL
P       -0.38048724       2.68605328       9.50214692       0.00000000 NULL
P        2.50464030       2.63272468       9.32941167       0.00000000 NULL
P       -1.09739649       1.06280258       8.35528048       0.00000000 NULL
P        1.59420780       3.99100309       3.61859386       0.00000000 NULL
13
Lattice="5.167427933065675 -0.12036967165467102 -0.10100402147203354 -2.4667649800167455 6.76607876542743 -0.061229690104781236 -0.8677469493505732 -1.524976804265707 9.527439286621023" Properties=species:S:1:pos:R:3:initial_magmoms:R:1:castep_labels:S:1 n_minim_iter=4 pbc="T T T"
P        4.11020190       0.24830699       4.36854244       0.00000000 NULL
P        0.77552701      -0.00072361       8.42550779       0.00000000 NULL
P        1.68271504      -0.04640434       3.42763076       0.00000000 NULL
P        3.03042410       4.91512405       1.88741720       0.00000000 NULL
P       -0.15686165      -0.85208247       5.96523629       0.00000000 NULL
P        0.99958438       2.80191700       1.38446813       0.00000000 NULL
P        0.98717548       5.78650630       2.42423879       0.00000000 NULL
P       -1.07136739       2.78691230       7.07859863       0.00000000 NULL
P        3.16432619       2.43656602       1.45574356       0.00000000 NULL
P       -0.52090827       2.67256196       9.39326383       0.00000000 NULL
P        2.41483179       2.59218221       9.18936532       0.00000000 NULL
P       -1.22724919       1.02833763       8.27625674       0.00000000 NULL
P        1.54924500       4.00512602       3.53762324       0.00000000 NULL
13
Lattice="5.211066975619458 -0.1530314236400598 -0.183173405992787 -2.529972052123322 6.852955220255799 -0.06475277244560036 -1.0269693154650454 -1.594738458864238 9.356367170011895" Properties=species:S:1:pos:R:3:initial_magmoms:R:1:castep_labels:S:1 n_minim_iter=5 pbc="T T T"
P        4.06606456       0.20099852       4.20750527       0.00000000 NULL
P        0.63605217      -0.05887305       8.23724903       0.00000000 NULL
P        1.63451521      -0.07947240       3.33157815       0.00000000 NULL
P        2.99645402       4.93567822       1.76978020       0.00000000 NULL
P       -0.25434518      -0.89802904       5.85281748       0.00000000 NULL
P        0.96487239       2.81022035       1.32893531       0.00000000 NULL
P        0.91482282       5.82880161       2.32016216       0.00000000 NULL
P       -1.21861035       2.78070389       6.93281097       0.00000000 NULL
P        3.14912054       2.43750694       1.35448975       0.00000000 NULL
P       -0.70105666       2.65573669       9.18873598       0.00000000 NULL
P        2.25960735       2.54667952       8.94291458       0.00000000 NULL
P       -1.38503835       0.98723488       8.11599081       0.00000000 NULL
P        1.47462597       4.01387346       3.41001452       0.00000000 NULL
13
Lattice="5.252363863969494 -0.2073606200472663 -0.3552296655632061 -2.621148345208613 7.088636121506028 -0.03167283824194583 -1.3574541616836355 -1.6954242006340663 9.046895173920232" Properties=species:S:1:pos:R:3:initial_magmoms:R:1:castep_labels:S:1 n_minim_iter=6 pbc="T T T"
P        3.93389704       0.14999432       3.89968050       0.00000000 NULL
P        0.33379850      -0.12313616       7.89347591       0.00000000 NULL
P        1.51852287      -0.12381629       3.15047979       0.00000000 NULL
P        2.90939246       5.04473324       1.56598857       0.00000000 NULL
P       -0.45957683      -0.96694277       5.65070989       0.00000000 NULL
P        0.89007305       2.86122142       1.24110004       0.00000000 NULL
P        0.76618932       5.98988530       2.15353671       0.00000000 NULL
P       -1.51065939       2.83417036       6.68737858       0.00000000 NULL
P        3.09169663       2.48342321       1.16509210       0.00000000 NULL
P       -1.06829330       2.71147673       8.83558213       0.00000000 NULL
P        1.91662088       2.54153436       8.49995300       0.00000000 NULL
P       -1.70122339       0.95622645       7.83431425       0.00000000 NULL
P        1.31340843       4.09718882       3.18988946       0.00000000 NULL
13
Lattice="5.1912706419688615 -0.20684687770507534 -0.46487773131080196 -2.5932020882056004 7.253770316849228 0.10774643122891957 -1.5659045331015589 -1.5960989818761124 9.02063190902198" Properties=species:S:1:pos:R:3:initial_magmoms:R:1:castep_labels:S:1 n_minim_iter=7 pbc="T T T"
P        3.78142727       0.24086056       3.80409152       0.00000000 NULL
P        0.12399189      -0.00113831       7.84720798       0.00000000 NULL
P        1.42094244      -0.08087215       3.10462653       0.00000000 NULL
P        2.83585980       5.19807079       1.56939564       0.00000000 NULL
P       -0.59422584      -0.91241521       5.63583688       0.00000000 NULL
P        0.84227388       2.93580953       1.27047187       0.00000000 NULL
P        0.68852208       6.17308421       2.20274693       0.00000000 NULL
P       -1.66208294       3.00149537       6.72491112       0.00000000 NULL
P        3.01660750       2.57908556       1.11671830       0.00000000 NULL
P       -1.27939774       2.93975505       8.85911522       0.00000000 NULL
P        1.67174302       2.73882914       8.45985315       0.00000000 NULL
P       -1.87395039       1.08192237       7.83893846       0.00000000 NULL
P        1.21037132       4.25137579       3.19694552       0.00000000 NULL
13
Lattice="5.156642781723562 -0.22304256572995035 -0.5469207690910326 -2.5994391400083163 7.227610002118099 0.14574086094593355 -1.718800668051774 -1.5849652973146802 8.902071873646335" Properties=species:S:1:pos:R:3:initial_magmoms:R:1:castep_labels:S:1 n_minim_iter=8 pbc="T T T"
P        3.67407492       0.23886305       3.67345157       0.00000000 NULL
P       -0.02998977      -0.00425073       7.70973130       0.00000000 NULL
P        1.35467856      -0.09283776       3.02777457       0.00000000 NULL
P        2.76917806       5.16477654       1.49835541       0.00000000 NULL
P       -0.69258118      -0.91651910       5.56433459       0.00000000 NULL
P        0.79546429       2.91010941       1.24846720       0.00000000 NULL
P        0.61340235       6.14342606       2.15122952       0.00000000 NULL
P       -1.78603330       2.98651196       6.63845643       0.00000000 NULL
P        2.96100328       2.56454918       1.03505753       0.00000000 NULL
P       -1.44799191       2.94226528       8.73697078       0.00000000 NULL
P        1.48173293       2.71686258       8.29536022       0.00000000 NULL
P       -2.00717275       1.07333439       7.73457466       0.00000000 NULL
P        1.12500171       4.22858026       3.11728276       0.00000000 NULL
13
Lattice="5.186489515758733 -0.236785328765889 -0.5706456191191778 -2.6311585590135333 7.294270242265705 0.17873857890509343 -1.7659232621803223 -1.5625214114625312 8.98515817957274" Properties=species:S:1:pos:R:3:initial_magmoms:R:1:castep_labels:S:1 n_minim_iter=9 pbc="T T T"
P        3.67442200       0.25436581       3.69425320       0.00000000 NULL
P       -0.06695016       0.02281688       7.77768008       0.00000000 NULL
P        1.34959755      -0.08749798       3.04992309       0.00000000 NULL
P        2.76658055       5.20975647       1.52129654       0.00000000 NULL
P       -0.71965252      -0.90760288       5.61945628       0.00000000 NULL
P        0.78406544       2.93394409       1.27226591       0.00000000 NULL
P        0.58912681       6.20334623       2.18740311       0.00000000 NULL
P       -1.83323488       3.03801762       6.71192909       0.00000000 NULL
P        2.96631919       2.58636275       1.03867756       0.00000000 NULL
P       -1.50424665       3.00801499       8.83354891       0.00000000 NULL
P        1.44098536       2.76756515       8.37677809       0.00000000 NULL
P       -2.05532699       1.11031244       7.81264906       0.00000000 NULL
P        1.10638165       4.27402149       3.15501770       0.00000000 NULL
13
Lattice="5.171384938935662 -0.2377792565210377 -0.5864798805352239 -2.625750200957179 7.280246209474634 0.19075003322057862 -1.7948777540605845 -1.5521050717121387 8.967418782095855" Properties=species:S:1:pos:R:3:initial_magmoms:R:1:castep_labels:S:1 n_minim_iter=10 pbc="T T T"
P        3.64695733       0.25988699       3.67213782       0.00000000 NULL
P       -0.09825167       0.02843262       7.75579601       0.00000000 NULL
P        1.33516728      -0.08749155       3.03682113       0.00000000 NULL
P        2.75090170       5.20043043       1.51304287       0.00000000 NULL
P       -0.73897190      -0.90424289       5.61017000       0.00000000 NULL
P        0.77380706       2.92660895       1.27225565       0.00000000 NULL
P        0.57446186       6.19332452       2.18304045       0.00000000 NULL
P       -1.85407025       3.03579116       6.70067940       0.00000000 NULL
P        2.95151438       2.58352959       1.02465035       0.00000000 NULL
P       -1.53565732       3.01287559       8.81877169       0.00000000 NULL
P        1.40006105       2.76798656       8.35400126       0.00000000 NULL
P       -2.07822297       1.11200878       7.79763818       0.00000000 NULL
P        1.08929188       4.26838059       3.14467868       0.00000000 NULL
13
Lattice="5.167446762715489 -0.24213605356625842 -0.6053837356751818 -2.6298271398512107 7.282225714083372 0.20850284930016771 -1.8304829959556728 -1.5377743164363604 8.969639193825307" Properties=species:S:1:pos:R:3:initial_magmoms:R:1:castep_labels:S:1 n_minim_iter=11 pbc="T T T"
P        3.62535009       0.26803819       3.65723837       0.00000000 NULL
P       -0.13290331       0.03916165       7.75094163       0.00000000 NULL
P        1.32272618      -0.08658709       3.02998977       0.00000000 NULL
P        2.73798887       5.20147985       1.51103168       0.00000000 NULL
P       -0.76164282      -0.89941525       5.61415589       0.00000000 NULL
P        0.76245632       2.92502976       1.27779048       0.00000000 NULL
P        0.55627554       6.19731720       2.18707742       0.00000000 NULL
P       -1.88295372       3.04486335       6.70634934       0.00000000 NULL
P        2.94138238       2.58538317       1.01296258       0.00000000 NULL
P       -1.57573677       3.03163234       8.82673117       0.00000000 NULL
P        1.35634066       2.77925234       8.35195119       0.00000000 NULL
P       -2.10909258       1.12150238       7.80100444       0.00000000 NULL
P        1.07107703       4.27290546       3.14381032       0.00000000 NULL
13
Lattice="5.134291555287207 -0.2859379907865821 -0.7904754977527272 -2.673687965092681 7.289270229717616 0.39036075227816086 -2.1795194404120273 -1.382798376538729 8.978489768527497" Properties=species:S:1:pos:R:3:initial_magmoms:R:1:castep_labels:S:1 n_minim_iter=12 pbc="T T T"
P        3.41809666       0.35634903       3.50688697       0.00000000 NULL
P       -0.46963640       0.15257250       7.69024476       0.00000000 NULL
P        1.20703403      -0.07692551       2.95615678       0.00000000 NULL
P        2.61416837       5.20496031       1.49658772       0.00000000 NULL
P       -0.98544980      -0.84597174       5.64921972       0.00000000 NULL
P        0.64734030       2.90484762       1.33907056       0.00000000 NULL
P        0.37549874       6.23089329       2.23097042       0.00000000 NULL
P       -2.16360643       3.13388936       6.75255411       0.00000000 NULL
P        2.84724635       2.60095282       0.89587839       0.00000000 NULL
P       -1.97225114       3.22589220       8.89973106       0.00000000 NULL
P        0.92445018       2.89742481       8.32973635       0.00000000 NULL
P       -2.40927117       1.21870858       7.82095273       0.00000000 NULL
P        0.89614572       4.31332962       3.13496030       0.00000000 NULL
13
Lattice="5.183423850418543 -0.2879076071613228 -0.6635881942032997 -2.698247063297365 7.338846113195234 0.4087886189311342 -1.9349884329211915 -1.281871832276812 8.844053996672807" Properties=species:S:1:pos:R:3:initial_magmoms:R:1:castep_labels:S:1 n_minim_iter=13 pbc="T T T"
P        3.58074080       0.44046584       3.56393948       0.00000000 NULL
P       -0.23734209       0.24193401       7.60309925       0.00000000 NULL
P        1.33594311      -0.05286142       2.95428747       0.00000000 NULL
P        2.71275964       5.26743228       1.62810769       0.00000000 NULL
P       -0.82766250      -0.80358976       5.60481432       0.00000000 NULL
P        0.68700934       2.92710854       1.40770712       0.00000000 NULL
P        0.42835323       6.32823697       2.29077987       0.00000000 NULL
P       -1.96956364       3.21593968       6.66312950       0.00000000 NULL
P        2.91852122       2.64247952       0.96697895       0.00000000 NULL
P       -1.74557714       3.38832798       8.83962207       0.00000000 NULL
P        1.15909999       3.04631252       8.35437363       0.00000000 NULL
P       -2.19623530       1.29321419       7.69315480       0.00000000 NULL
P        1.02808452       4.38094095       3.18137645       0.00000000 NULL
13
Lattice="5.099487640145511 -0.26188574627522965 -0.6921690527290064 -2.6259516500796907 7.18254410301033 0.41046715220060653 -1.9872408982930994 -1.2718958024037001 8.65919746799808" Properties=species:S:1:pos:R:3:initial_magmoms:R:1:castep_labels:S:1 n_minim_iter=14 pbc="T T T"
P        3.49040282       0.44142646       3.44985853       0.00000000 NULL
P       -0.30256648       0.22822857       7.42578335       0.00000000 NULL
P        1.28977522      -0.05268596       2.87406376       0.00000000 NULL
P        2.67470504       5.17142824       1.56200238       0.00000000 NULL
P       -0.86904208      -0.79547960       5.48782224       0.00000000 NULL
P        0.67285127       2.87067406       1.36848780       0.00000000 NULL
P        0.42356813       6.20573886       2.22394180       0.00000000 NULL
P       -1.98049101       3.13491404       6.51936404       0.00000000 NULL
P        2.86788718       2.60064921       0.91347799       0.00000000 NULL
P       -1.78478794       3.30823676       8.64591940       0.00000000 NULL
P        1.07294274       2.98668538       8.15050753       0.00000000 NULL
P       -2.22106693       1.24894318       7.53021377       0.00000000 NULL
P        1.00249990       4.29610262       3.09052928       0.00000000 NULL
13
Lattice="5.15775918617931 -0.2733436012823392 -0.7063485507958993 -2.6672938808219095 7.272834448252998 0.43925759477992277 -2.019997042256021 -1.2547701932577404 8.76060056113223" Properties=species:S:1:pos:R:3:initial_magmoms:R:1:castep_labels:S:1 n_minim_iter=15 pbc="T T T"
P        3.52435594       0.45695488       3.48829839       0.00000000 NULL
P       -0.31594624       0.25537610       7.51367844       0.00000000 NULL
P        1.29997547      -0.04483666       2.90722257       0.00000000 NULL
P        2.69539374       5.23576028       1.59436606       0.00000000 NULL
P       -0.88557211      -0.78676950       5.55336077       0.00000000 NULL
P        0.67245639       2.90761819       1.39443249       0.00000000 NULL
P        0.41419614       6.28908912       2.26714573       0.00000000 NULL
P       -2.01564233       3.19704950       6.60564276       0.00000000 NULL
P        2.89448794       2.62977074       0.92872737       0.00000000 NULL
P       -1.82392041       3.38214197       8.76131078       0.00000000 NULL
P        1.06655731       3.05243234       8.25592909       0.00000000 NULL
P       -2.25947656       1.28998253       7.62496967       0.00000000 NULL
P        1.00345180       4.35632262       3.13980518       0.00000000 NULL
