12
Lattice="5.893390999750308 -1.0663709804313715 -1.9266935194369403 -1.3118973648525916 5.235851839904672 0.39583257599025323 -6.040707285853432 0.5382472339632081 10.259769145201554" Properties=species:S:1:pos:R:3:initial_magmoms:R:1:castep_labels:S:1:forces:R:3 n_minim_iter=1 energy=-62.710206429298 stress="-0.007676127571024566 0.0008139012107503699 -0.005429260123850087 0.0008139012107503699 -0.010516890799682368 0.0025981300749720066 -0.005429260123850087 0.0025981300749720066 -0.014443620831422452" free_energy=-62.710206429298 pbc="T T T"
P       -1.00109841       3.53520022       2.21703980       0.00000000 NULL      -0.44709100       0.23858300       0.28990400
P       -4.93675044       2.95443299       9.76479865       0.00000000 NULL       0.14006900      -0.60418800       0.72567700
P       -5.54784546       4.71560532      10.95591243       0.00000000 NULL       0.21733500       0.32267700       0.18474800
P       -3.46980115       5.26487905       6.53950250       0.00000000 NULL      -0.16129300      -0.12366800      -0.71538900
P       -1.89222055       2.32593218       6.35746171       0.00000000 NULL       0.04907300      -0.12540400      -0.25907900
P        0.21457544       4.31242441       5.48166250       0.00000000 NULL       0.23207700       0.75549600      -0.39237600
P       -0.76075638       0.37484233       2.13752039       0.00000000 NULL       0.17147000      -0.98134800       0.43501800
P       -2.55753675       0.94468148       8.11643802       0.00000000 NULL      -0.11124200       0.17474300       0.11847100
P       -0.12341352      -0.98406281       7.14105760       0.00000000 NULL      -0.32933800       0.44948300      -0.44536900
P        0.29922966       2.14171352       5.76386765       0.00000000 NULL      -0.68694700      -0.52745100      -0.20423100
P        2.30532757       3.42135133       1.90324899       0.00000000 NULL       0.39634300       0.28262800      -0.16733200
P       -2.88110554       3.65271018       9.21443397       0.00000000 NULL       0.52954400       0.13844900       0.42995700
12
Lattice="5.929923125854534 -1.0776838913431757 -1.9194457349953067 -1.3244409444137037 5.292395781794588 0.38029776407352295 -6.031265147982462 0.521596306296842 10.376970299550349" Properties=species:S:1:pos:R:3:initial_magmoms:R:1:castep_labels:S:1:forces:R:3 n_minim_iter=2 energy=-62.779481438519 stress="0.006268490000011238 0.000389243031639702 -0.0016470566908743222 0.000389243031639702 0.001848478163903729 0.001916001937244099 -0.0016470566908743222 0.001916001937244099 0.0029083991908765835" free_energy=-62.779481438519 pbc="T T T"
P       -1.00143046       3.56924377       2.23610169       0.00000000 NULL      -0.52818200       0.45621200       0.02912900
P       -4.92281839       2.96168826       9.87742621       0.00000000 NULL       0.02168800      -0.29711300       0.41129200
P       -5.53323313       4.74310482      11.07578350       0.00000000 NULL       0.22231300       0.06442000       0.14355700
P       -3.46564284       5.30653953       6.60007492       0.00000000 NULL      -0.17220900      -0.01268200      -0.41172500
P       -1.87327256       2.33502157       6.43400526       0.00000000 NULL       0.14714700      -0.19876400      -0.04438000
P        0.24429842       4.34724566       5.55108412       0.00000000 NULL       0.46736000       0.49287200      -0.18923600
P       -0.75435378       0.36963349       2.16588238       0.00000000 NULL       0.02844500      -1.25470900       0.30184600
P       -2.53347477       0.93596776       8.22070421       0.00000000 NULL      -0.13089000       0.04445200      -0.26866300
P       -0.08494420      -1.01185784       7.24724547       0.00000000 NULL      -0.30362200       0.30451900      -0.30649400
P        0.32917134       2.14685965       5.84458174       0.00000000 NULL      -0.58688600      -0.25213900       0.18417000
P        2.33292419       3.45240229       1.93455671       0.00000000 NULL       0.26898300       0.44219600      -0.38628700
P       -2.85302203       3.67038213       9.32726826       0.00000000 NULL       0.56585600       0.21073700       0.53679200
12
Lattice="5.82069417056699 -1.0767096607488749 -1.8487744743514258 -1.3122397012727613 5.311938581778628 0.31526133258672495 -5.822355058022551 0.43694219870915885 10.34377674069776" Properties=species:S:1:pos:R:3:initial_magmoms:R:1:castep_labels:S:1:forces:R:3 n_minim_iter=3 energy=-62.850724978225 stress="-0.005439099848369927 -0.0017579177103231455 0.005393187963813822 -0.0017579177103231455 -0.000430628703099344 -0.0013761977510851355 0.005393187963813822 -0.0013761977510851355 0.0010274832023287122" free_energy=-62.850724978225 pbc="T T T"
P       -0.97841057       3.57134981       2.20011351       0.00000000 NULL      -0.53008800       0.29034400       0.04569900
P       -4.74092262       2.88157495       9.84058318       0.00000000 NULL      -0.18658800      -0.29971200       0.10775100
P       -5.32940423       4.66893353      11.01302097       0.00000000 NULL       0.33194900       0.14941300       0.08275400
P       -3.35319067       5.27029055       6.52562360       0.00000000 NULL      -0.00044300      -0.09274100      -0.44893700
P       -1.77429310       2.28249884       6.41355931       0.00000000 NULL      -0.14900700      -0.18961600       0.07505600
P        0.30178771       4.32015547       5.52899868       0.00000000 NULL       0.39200300       0.21826400      -0.16012500
P       -0.71765070       0.32889027       2.16890636       0.00000000 NULL       0.24866000      -0.80682000       0.28397100
P       -2.40558965       0.86725799       8.21135479       0.00000000 NULL      -0.07207600       0.13406000      -0.19904800
P       -0.00424790      -1.07907486       7.27788392       0.00000000 NULL      -0.27609000       0.27363800      -0.17347700
P        0.37489901       2.09183994       5.85221515       0.00000000 NULL      -0.19334100      -0.12265300       0.23057900
P        2.31719040       3.44943541       1.92876919       0.00000000 NULL       0.00105100       0.29962300      -0.24637400
P       -2.70088164       3.60422400       9.30573535       0.00000000 NULL       0.43396900       0.14620100       0.40215100
12
Lattice="5.857151080447489 -1.0440873744129535 -1.897834386885572 -1.296093877514131 5.328518391060915 0.3017226990839921 -5.943693514764984 0.36023376280134306 10.381517420788462" Properties=species:S:1:pos:R:3:initial_magmoms:R:1:castep_labels:S:1:forces:R:3 n_minim_iter=4 energy=-62.941762880303 stress="-0.0032138329796677027 0.0021654678031932397 -0.0006981692983244533 0.0021654678031932397 0.0005889513635251754 -0.0035719662077304507 -0.0006981692983244533 -0.0035719662077304507 0.00014374540691968905" free_energy=-62.941762880303 pbc="T T T"
P       -1.00598294       3.58582628       2.19037757       0.00000000 NULL       0.00956700       0.00555300      -0.02302400
P       -4.84366326       2.81121667       9.86846559       0.00000000 NULL       0.01108500      -0.12323800       0.09397000
P       -5.42579342       4.61578731      11.02869741       0.00000000 NULL       0.10961200       0.05848700       0.20748400
P       -3.40915002       5.24469995       6.50450871       0.00000000 NULL      -0.07134600      -0.09780800      -0.33711500
P       -1.83258243       2.24626424       6.40859322       0.00000000 NULL      -0.09530000      -0.07600600       0.04790600
P        0.28433718       4.33003424       5.48796206       0.00000000 NULL       0.20841900      -0.10743200      -0.09695000
P       -0.73463180       0.27757161       2.18329562       0.00000000 NULL       0.25745600      -0.28151700       0.45285100
P       -2.49439774       0.82356948       8.20938758       0.00000000 NULL       0.02521200       0.17056100      -0.16540700
P       -0.09027335      -1.10756371       7.26047875       0.00000000 NULL      -0.33102100       0.18009000      -0.12315100
P        0.31432220       2.06641980       5.83439558       0.00000000 NULL      -0.15110900       0.10640600       0.19753300
P        2.32971077       3.48129856       1.87421716       0.00000000 NULL       0.00405400       0.16894300      -0.10544700
P       -2.76635445       3.56868352       9.31661127       0.00000000 NULL       0.02337400      -0.00403900      -0.14865100
12
Lattice="5.939615479756084 -1.153855931367166 -1.884130695361312 -1.3814690702461072 5.325902277162236 0.3936588141071549 -5.9918247398886315 0.6327397323978153 10.299709194973156" Properties=species:S:1:pos:R:3:initial_magmoms:R:1:castep_labels:S:1:forces:R:3 n_minim_iter=5 energy=-62.977514004264 stress="-0.001490497792767714 -0.003334892148064604 0.002265469400224589 -0.003334892148064604 -0.0024520939209845966 0.0034029034215672417 0.002265469400224589 0.0034029034215672417 -0.001646348699394749" free_energy=-62.977514004264 pbc="T T T"
P       -1.07092751       3.63240134       2.23923687       0.00000000 NULL       0.10055600      -0.33659700       0.21948800
P       -4.91160425       3.03630596       9.84987008       0.00000000 NULL      -0.17280000       0.05028100       0.22355100
P       -5.51202432       4.87675134      11.03203504       0.00000000 NULL       0.24836100      -0.03207500      -0.12219800
P       -3.50604154       5.38328378       6.52724281       0.00000000 NULL      -0.10276700      -0.09119600      -0.23081300
P       -1.86670763       2.37316906       6.40273477       0.00000000 NULL      -0.03168000       0.08733500      -0.00628800
P        0.26368818       4.41453897       5.52631947       0.00000000 NULL       0.26879200      -0.04378100      -0.23644500
P       -0.73059453       0.29298034       2.19176416       0.00000000 NULL       0.61273300       0.20023100       0.03018600
P       -2.51354199       1.01333989       8.15263315       0.00000000 NULL       0.00412100       0.02429400      -0.12268600
P       -0.07044259      -0.95306685       7.18218114       0.00000000 NULL      -0.19797300       0.17172500      -0.27866900
P        0.29458656       2.15850619       5.84487873       0.00000000 NULL      -0.14447300       0.17135700       0.30695400
P        2.32401831       3.48158883       1.92396307       0.00000000 NULL      -0.52173100      -0.10600100       0.35005300
P       -2.80643405       3.76679726       9.31980382       0.00000000 NULL      -0.06313800      -0.09557300      -0.13313300
12
Lattice="5.9947509472776614 -1.1441541978356098 -1.8263927361612964 -1.3862388744747773 5.316373415615058 0.3836580798857985 -6.002006366203596 0.6276365945322563 10.134085909942037" Properties=species:S:1:pos:R:3:initial_magmoms:R:1:castep_labels:S:1:forces:R:3 n_minim_iter=6 energy=-63.069486586983 stress="0.0011849391460888022 3.615675340029276e-05 0.00488891810828381 3.615675340029276e-05 -0.004286464657237787 0.0016198543734582203 0.00488891810828381 0.0016198543734582203 -0.004988717111893638" free_energy=-63.069486586983 pbc="T T T"
P       -1.05845505       3.60906735       2.21852865       0.00000000 NULL       0.04134300      -0.40913500       0.06912400
P       -4.91541659       3.02277601       9.72747870       0.00000000 NULL      -0.10061100       0.02265600       0.13080100
P       -5.47887836       4.86567015      10.87395433       0.00000000 NULL       0.13892800       0.14318100      -0.01233300
P       -3.51995906       5.36078238       6.38123749       0.00000000 NULL       0.13673500      -0.18541600      -0.30980100
P       -1.85231032       2.36804162       6.31424228       0.00000000 NULL      -0.07146500       0.36960200      -0.22131100
P        0.34694145       4.40352652       5.43555512       0.00000000 NULL       0.08192400       0.00894700      -0.29272800
P       -0.66294275       0.26443553       2.20450662       0.00000000 NULL       0.16799700       0.12746300      -0.07620500
P       -2.49556285       1.02670328       8.00630873       0.00000000 NULL      -0.03667600      -0.04626500       0.33561700
P       -0.07995155      -0.91824832       7.05471558       0.00000000 NULL      -0.31030400       0.16321000      -0.26831300
P        0.30071551       2.17910367       5.81399205       0.00000000 NULL       0.10504900      -0.05071900       0.09212800
P        2.33504970       3.49503138       1.92378385       0.00000000 NULL      -0.28426200      -0.08882100       0.33602000
P       -2.77842291       3.75706845       9.16958143       0.00000000 NULL       0.13134200      -0.05470400       0.21700200
12
Lattice="5.970707384081874 -1.2056943218311442 -1.8786793003779538 -1.4236063869288202 5.357376345129698 0.40827191361187626 -6.034388143059769 0.7093378172240189 10.210055162810374" Properties=species:S:1:pos:R:3:initial_magmoms:R:1:castep_labels:S:1:forces:R:3 n_minim_iter=7 energy=-63.119941690396 stress="-0.0031462869880694213 -0.0016470287471165228 0.0016685819264331762 -0.0016470287471165228 -0.0020699800666957235 0.002653387250744845 0.0016685819264331762 0.002653387250744845 -0.0030183199566284785" free_energy=-63.119941690396 pbc="T T T"
P       -1.09235871       3.62959460       2.24714997       0.00000000 NULL      -0.04079300      -0.25009100      -0.02004900
P       -4.97763488       3.10454729       9.81609706       0.00000000 NULL      -0.09500300       0.12637500       0.19050800
P       -5.54330704       4.96869480      10.96618187       0.00000000 NULL       0.06393900       0.09770100      -0.03444700
P       -3.59208955       5.42766553       6.41320300       0.00000000 NULL       0.14863900      -0.11630900      -0.26491500
P       -1.90693737       2.41775859       6.35112933       0.00000000 NULL      -0.26601300       0.41474200      -0.19333000
P        0.28837529       4.43372442       5.44504011       0.00000000 NULL      -0.15904600      -0.08683200      -0.35940100
P       -0.64488129       0.26381478       2.23935910       0.00000000 NULL       0.14033200      -0.05704900      -0.16234900
P       -2.54353808       1.08218528       8.04130773       0.00000000 NULL       0.17963500      -0.00877200       0.41175700
P       -0.15145597      -0.88590135       7.05403775       0.00000000 NULL      -0.35197700       0.05782800      -0.24493700
P        0.22227736       2.21436237       5.85625670       0.00000000 NULL       0.22418300      -0.05088700       0.03853200
P        2.25532602       3.50632190       1.92849277       0.00000000 NULL      -0.02704000      -0.12301800       0.34151800
P       -2.85322857       3.82274944       9.22021697       0.00000000 NULL       0.18314400      -0.00368900       0.29711500
12
Lattice="6.031286631280627 -1.2569162006528574 -1.8875846031040846 -1.5040574677729086 5.308906514435415 0.3712894241737757 -6.122320875083877 0.70374708461429 10.19584309869825" Properties=species:S:1:pos:R:3:initial_magmoms:R:1:castep_labels:S:1:forces:R:3 n_minim_iter=8 energy=-63.17542328822 stress="0.0018522103175408016 -0.004569350107407286 0.00027886318486316044 -0.004569350107407286 -0.009386493858136911 -0.002556734249818523 0.00027886318486316044 -0.002556734249818523 -0.0018075729400299574" free_energy=-63.17542328822 pbc="T T T"
P       -1.14874294       3.55685985       2.21468848       0.00000000 NULL      -0.06025700      -0.31991600      -0.10477100
P       -5.09575198       3.06613913       9.80961561       0.00000000 NULL      -0.08092800      -0.02324000       0.03960700
P       -5.66944415       4.90373724      10.92795818       0.00000000 NULL       0.07335100       0.37064500       0.20718900
P       -3.71257839       5.34468112       6.31671519       0.00000000 NULL       0.13186600      -0.25806800      -0.14857000
P       -1.99740269       2.39494411       6.30859214       0.00000000 NULL      -0.04458900       0.11871200      -0.23838700
P        0.22877167       4.31651655       5.35380945       0.00000000 NULL       0.00710200       0.09244500      -0.29574500
P       -0.61690412       0.22094589       2.26020289       0.00000000 NULL       0.03885700       0.11173400      -0.01451200
P       -2.59204652       1.05183216       8.02367001       0.00000000 NULL       0.11327700       0.09314700       0.28606800
P       -0.23206976      -0.90165786       7.00043861       0.00000000 NULL      -0.28186000       0.22836200      -0.05793900
P        0.16506209       2.15344227       5.85195273       0.00000000 NULL      -0.07790900      -0.26351200      -0.06025100
P        2.20089160       3.42594767       1.90765451       0.00000000 NULL       0.08758200      -0.10420800       0.20206700
P       -2.94439866       3.74149042       9.17709640       0.00000000 NULL       0.09350800      -0.04610000       0.18524400
12
Lattice="5.991815981699214 -1.2726830817099497 -1.8535234053332186 -1.4833988889894354 5.376189922511146 0.406214070007343 -6.071410940793579 0.782268952946995 10.007382673707548" Properties=species:S:1:pos:R:3:initial_magmoms:R:1:castep_labels:S:1:forces:R:3 n_minim_iter=9 energy=-63.284865927183 stress="0.00010423726093857477 -0.00011844405273316245 -0.00025795474815601345 -0.00011844405273316245 -0.005452241964093162 -0.001505514021889306 -0.00025795474815601345 -0.001505514021889306 -0.0041222427071175615" free_energy=-63.284865927183 pbc="T T T"
P       -1.12179297       3.57267206       2.19429150       0.00000000 NULL      -0.10613200      -0.28506600       0.04723500
P       -5.05778315       3.18820472       9.69210567       0.00000000 NULL       0.05970600      -0.08660900       0.12364600
P       -5.58579817       5.05742370      10.78751098       0.00000000 NULL      -0.01929500       0.41232100       0.04968000
P       -3.66907585       5.42516426       6.16843649       0.00000000 NULL       0.11083100      -0.06421800      -0.27651900
P       -2.00705079       2.52154433       6.19141787       0.00000000 NULL       0.01327200       0.02823500      -0.10267000
P        0.26903629       4.38772588       5.23176929       0.00000000 NULL       0.39400500       0.20878500       0.03654900
P       -0.54525651       0.19459469       2.26001160       0.00000000 NULL      -0.13723100       0.00105500       0.04787900
P       -2.53748996       1.14344994       7.89985718       0.00000000 NULL      -0.37333300       0.12445700      -0.04126200
P       -0.32422309      -0.81344170       6.81080043       0.00000000 NULL      -0.08529200      -0.00006600      -0.19152900
P        0.16968387       2.24726342       5.81240406       0.00000000 NULL      -0.21092900      -0.16571300      -0.42033200
P        2.18257964       3.50026037       1.94104707       0.00000000 NULL       0.50938400      -0.14969900       0.52233500
P       -2.88405633       3.85384615       9.04912004       0.00000000 NULL      -0.15498600      -0.02348300       0.20498700
12
Lattice="5.974344222699007 -1.28455509810234 -1.8239182211687799 -1.4690722521503867 5.410047481156945 0.445581007094076 -6.052938294613089 0.8660315338574227 9.808415109923843" Properties=species:S:1:pos:R:3:initial_magmoms:R:1:castep_labels:S:1:forces:R:3 n_minim_iter=10 energy=-63.384967119522 stress="-0.0019038213945568043 0.002325590295313074 -0.0012868945996161892 0.002325590295313074 -0.0061804127530080515 -0.00363143106105249 -0.0012868945996161892 -0.00363143106105249 -0.010048196204521532" free_energy=-63.384967119522 pbc="T T T"
P       -1.10887098       3.55011829       2.17646390       0.00000000 NULL      -0.06913000      -0.11785900       0.10163300
P       -5.04533092       3.30442161       9.56805146       0.00000000 NULL       0.09748200      -0.08424600       0.05991300
P       -5.54128547       5.21245194      10.62926353       0.00000000 NULL       0.08854700       0.17041200       0.19934100
P       -3.64032280       5.48096630       6.00733332       0.00000000 NULL      -0.05397200       0.10717200      -0.46848100
P       -2.03325190       2.63745458       6.07308201       0.00000000 NULL       0.15862200       0.11202800      -0.22310400
P        0.33948737       4.43714841       5.12031336       0.00000000 NULL       0.19677100       0.36782300       0.03204000
P       -0.48916387       0.17072761       2.25052414       0.00000000 NULL      -0.23001900      -0.11410900       0.08643300
P       -2.53793400       1.24538753       7.74548557       0.00000000 NULL      -0.49020100       0.22333300       0.24569900
P       -0.42080406      -0.73124736       6.59859185       0.00000000 NULL       0.41696600      -0.25310200       0.06583800
P        0.15674696       2.33424373       5.73197160       0.00000000 NULL      -0.26345900      -0.29630200      -0.41777300
P        2.21369250       3.53545127       2.01609369       0.00000000 NULL       0.42235000      -0.14708500       0.19210300
P       -2.86896705       3.95012129       8.92072166       0.00000000 NULL      -0.27395700       0.03193500       0.12636000
12
Lattice="5.927458253391772 -1.2423327404355609 -1.8451374333282178 -1.4150026644943772 5.348542089743191 0.5027050132931098 -6.002969563968882 0.9157723488988273 9.887927932681404" Properties=species:S:1:pos:R:3:initial_magmoms:R:1:castep_labels:S:1:forces:R:3 n_minim_iter=11 energy=-63.412907875192 stress="-0.004946088469631141 0.005637278923990558 -0.0010117509938594002 0.005637278923990558 -0.011348475728811026 -0.003400056036462303 -0.0010117509938594002 -0.003400056036462303 -0.007994618367867417" free_energy=-63.412907875192 pbc="T T T"
P       -1.07161528       3.51053579       2.22737367       0.00000000 NULL       0.04747300      -0.31579100       0.13855000
P       -4.98705731       3.35047394       9.68631241       0.00000000 NULL       0.16254200      -0.24367100      -0.05586700
P       -5.44270709       5.23405163      10.76939003       0.00000000 NULL      -0.08386400       0.28398600       0.16285700
P       -3.57353952       5.46166500       6.06810497       0.00000000 NULL      -0.07167100       0.28164200      -0.54401200
P       -2.00416281       2.68529060       6.13666944       0.00000000 NULL       0.05667300      -0.05761200      -0.18085600
P        0.39736806       4.44764003       5.18758647       0.00000000 NULL       0.19106600       0.64821100       0.09288600
P       -0.46391380       0.16748148       2.27645877       0.00000000 NULL      -0.34755700       0.02163500       0.09818000
P       -2.51742516       1.31328293       7.82387891       0.00000000 NULL      -0.60020000       0.18437300       0.15509600
P       -0.43150024      -0.66224679       6.62609139       0.00000000 NULL       0.45504200      -0.13522000       0.23754500
P        0.17134071       2.37931714       5.80975993       0.00000000 NULL      -0.07066300      -0.49585200      -0.22604700
P        2.23965279       3.53306559       2.09642226       0.00000000 NULL       0.53075500      -0.23647400       0.09143200
P       -2.82120945       3.98704421       9.03765469       0.00000000 NULL      -0.26959700       0.06477500       0.03023600
12
Lattice="5.9229618497455885 -1.2575296123460002 -1.833513475221217 -1.414292925531921 5.377126008342062 0.5249038300010194 -5.992717967576144 0.9692510639928463 9.817936315800495" Properties=species:S:1:pos:R:3:initial_magmoms:R:1:castep_labels:S:1:forces:R:3 n_minim_iter=12 energy=-63.443652379024 stress="-0.0045680148771709275 0.005551659996131946 -0.00035492693871539777 0.005551659996131946 -0.010633784707627457 -0.005084503690271004 -0.00035492693871539777 -0.005084503690271004 -0.013213975003761582" free_energy=-63.443652379024 pbc="T T T"
P       -1.06836459       3.51883529       2.22774601       0.00000000 NULL      -0.00069200      -0.23476500       0.16504000
P       -4.98329884       3.42938226       9.64161123       0.00000000 NULL       0.19391100      -0.35082200       0.05148900
P       -5.42018838       5.31298324      10.72328745       0.00000000 NULL      -0.14515000       0.30722000       0.15842600
P       -3.57494404       5.52400861       6.01269384       0.00000000 NULL       0.16549000       0.32758200      -0.23445200
P       -2.00815822       2.74996525       6.09700805       0.00000000 NULL       0.08052700      -0.14752000      -0.12957800
P        0.41604434       4.49745519       5.15754509       0.00000000 NULL       0.12866200       0.54558300       0.19738800
P       -0.44661017       0.15957241       2.26420699       0.00000000 NULL      -0.34698100      -0.03126800       0.09719400
P       -2.52342427       1.37302729       7.78098368       0.00000000 NULL      -0.63723200       0.16358500       0.10987400
P       -0.42999392      -0.64273725       6.56624300       0.00000000 NULL       0.31179200      -0.00079700       0.18485800
P        0.17108195       2.41876943       5.79366452       0.00000000 NULL      -0.10966900      -0.31242400      -0.44098900
P        2.24736209       3.55033200       2.12243671       0.00000000 NULL       0.52127400      -0.34939300      -0.15049300
P       -2.82359975       4.05433498       8.99997030       0.00000000 NULL      -0.16193200       0.08302000      -0.00875800
12
Lattice="5.8065263492221195 -1.2788766244533074 -1.8770886195618404 -1.3365745370007855 5.456700156239603 0.7062695292099169 -5.8674557103257525 1.2676671926328162 9.908872042383535" Properties=species:S:1:pos:R:3:initial_magmoms:R:1:castep_labels:S:1:forces:R:3 n_minim_iter=13 energy=-63.623150680751 stress="-0.0046884145285899384 0.006679649128183755 0.0021288683354553496 0.006679649128183755 -0.008132796602547588 -0.003054336559351869 0.0021288683354553496 -0.003054336559351869 -0.010273779704226684" free_energy=-63.623150680751 pbc="T T T"
P       -1.00521325       3.52633032       2.35728774       0.00000000 NULL      -0.06716800      -0.09148000       0.15461700
P       -4.87222815       3.83236712       9.88836390       0.00000000 NULL       0.31907300      -0.54867700       0.07838600
P       -5.24711442       5.70564580      10.98438697       0.00000000 NULL       0.07584600       0.15645700       0.19830200
P       -3.42604541       5.89688004       6.14572056       0.00000000 NULL       0.38241000       0.25341200      -1.01953800
P       -2.00396210       3.04577424       6.21526416       0.00000000 NULL       0.36364500       0.03712100       0.08236200
P        0.51091063       4.77407061       5.29961972       0.00000000 NULL      -0.19035800       0.35121000       0.49054000
P       -0.36395870       0.11429609       2.25220291       0.00000000 NULL      -0.52062800      -0.11209800       0.14523800
P       -2.54771833       1.70170334       7.88002866       0.00000000 NULL      -0.67065200      -0.13299600       0.07971400
P       -0.44922802      -0.44635986       6.56812822       0.00000000 NULL       0.22382500      -0.02724600       0.10790000
P        0.20858897       2.69321947       5.98020271       0.00000000 NULL      -0.17886100      -0.01917800      -0.56264500
P        2.30643319       3.54998088       2.28395255       0.00000000 NULL       0.20193600       0.03288700       0.32885700
P       -2.75480064       4.43732234       9.22322415       0.00000000 NULL       0.06093100       0.10058900      -0.08373300
12
Lattice="5.720068912219286 -1.2959403857664953 -1.9021233202947858 -1.2718866979751617 5.553582929560815 0.8431607057485542 -5.774572164784185 1.4924916114099938 9.935562077810562" Properties=species:S:1:pos:R:3:initial_magmoms:R:1:castep_labels:S:1:forces:R:3 n_minim_iter=14 energy=-63.744238857735 stress="-0.0041172406953983234 0.008715418197019395 0.0007403496956608686 0.008715418197019395 -0.005528968046687081 0.00012063882092411126 0.0007403496956608686 0.00012063882092411126 -0.009040109677896672" free_energy=-63.744238857735 pbc="T T T"
P       -0.95710597       3.55908678       2.44187616       0.00000000 NULL      -0.13239900       0.01804500       0.24581100
P       -4.77360779       4.14414369      10.04123792       0.00000000 NULL       0.33751300      -0.55908300      -0.05134000
P       -5.10415221       6.02544917      11.14423833       0.00000000 NULL       0.06386700       0.01339500       0.04356500
P       -3.28381497       6.21852737       6.18936212       0.00000000 NULL      -0.03287700       0.12463800      -0.99250500
P       -1.97635377       3.29550394       6.29805339       0.00000000 NULL       0.34355400      -0.01685300       0.25033300
P        0.55708996       5.01199416       5.41104081       0.00000000 NULL       0.31331400       0.54917000       0.21414900
P       -0.31769732       0.06948043       2.22395114       0.00000000 NULL      -0.62399800      -0.18616300       0.24161800
P       -2.56985510       1.93849477       7.91936336       0.00000000 NULL      -0.66922300      -0.33553700       0.04346900
P       -0.46601060      -0.30384746       6.54506017       0.00000000 NULL       0.23355300       0.02104200      -0.11398700
P        0.23271017       2.94420548       6.08672986       0.00000000 NULL      -0.01170700      -0.11439700      -0.43475100
P        2.34059781       3.58615320       2.41142575       0.00000000 NULL       0.15227800       0.42414900       0.57915000
P       -2.68643092       4.75765126       9.34404273       0.00000000 NULL       0.02612700       0.06159400      -0.02550900
12
Lattice="5.657804884239838 -1.3033407697034654 -1.907287690605344 -1.2248515995535172 5.607257405029655 0.9361006811512699 -5.667243232867918 1.6469194820501254 10.012742841609459" Properties=species:S:1:pos:R:3:initial_magmoms:R:1:castep_labels:S:1:forces:R:3 n_minim_iter=15 energy=-63.824426686998 stress="-0.005087132376446745 0.009173638109916246 0.002245023624547839 0.009173638109916246 -0.002063861867685689 0.0025409129336099283 0.002245023624547839 0.0025409129336099283 -0.0058545194278235395" free_energy=-63.824426686998 pbc="T T T"
P       -0.92334398       3.59381975       2.51743788       0.00000000 NULL      -0.18328700      -0.00454400       0.27499500
P       -4.65974242       4.33730074      10.17524747       0.00000000 NULL       0.39939900      -0.49819400       0.09101700