44
Lattice="9.620551917104951 5.173021982096889e-07 -1.6523157033396635e-15 -4.81027662043603 12.309410209145863 2.8601617006705924 1.2887031328640205e-08 -0.23966713071476917 11.115254686785363" Properties=species:S:1:pos:R:3:initial_magmoms:R:1:castep_labels:S:1:forces:R:3 n_minim_iter=1 energy=-230.303990067721 stress="-0.0001918134111652895 7.559149208484317e-09 0.0 7.559149208484317e-09 0.0004793407696084074 0.00028578119497595805 0.0 0.00028578119497595805 0.0006576686585857608" free_energy=-230.303990067721 pbc="T T T"
P       -1.49191338       6.25162353      11.19652541       0.00000000 NULL      -0.02636700       0.06370300       0.05663300
P        3.31836260       5.81811990       2.77889097       0.00000000 NULL      -0.02636500      -0.06370500      -0.05663300
P        6.30218869       5.81812006       2.77889097       0.00000000 NULL       0.02636700      -0.06370300      -0.05663300
P        1.49191271       6.25162369      11.19652541       0.00000000 NULL       0.02636500       0.06370600       0.05663300
P        2.76968063       7.49317955      12.53457459       0.00000000 NULL       0.00917800      -0.02805000      -0.05001100
P       -2.04059517       4.57656382       1.44084179       0.00000000 NULL       0.00917900       0.02805100       0.05001000
P        2.04059468       4.57656404       1.44084179       0.00000000 NULL      -0.00917800       0.02805000       0.05001100
P        6.85087048       7.49317977      12.53457459       0.00000000 NULL      -0.00917900      -0.02805100      -0.05001100
P        1.26493518       8.40434804       2.98306076       0.00000000 NULL      -0.03215600      -0.16259400       0.02889000
P        6.07521140       3.66539569      10.99235562       0.00000000 NULL      -0.03215600       0.16259400      -0.02889000
P        3.54534013       3.66539556      10.99235562       0.00000000 NULL       0.03215600       0.16259400      -0.02889000
P       -1.26493609       8.40434790       2.98306076       0.00000000 NULL       0.03215600      -0.16259400       0.02889000
P        3.63161023       8.26456438       9.45906165       0.00000000 NULL      -0.18258900      -0.00054300       0.05622600
P       -1.17866549       3.80517909       4.51635473       0.00000000 NULL      -0.18259100       0.00054000      -0.05622600
P        1.17866508       3.80517922       4.51635473       0.00000000 NULL       0.18258900       0.00054300      -0.05622600
P        5.98894079       8.26456450       9.45906165       0.00000000 NULL       0.18259100      -0.00054000       0.05622600
P       -1.40953517       8.66081037       8.63449651       0.00000000 NULL       0.00170400       0.07726900       0.01736300
P        3.40074107       3.40893307       5.34091987       0.00000000 NULL       0.00170500      -0.07726900      -0.01736300
P        6.21981048       3.40893322       5.34091987       0.00000000 NULL      -0.00170400      -0.07726900      -0.01736300
P        1.40953423       8.66081053       8.63449651       0.00000000 NULL      -0.00170500       0.07726900       0.01736300
P        3.19962551       9.72593334       7.78810737       0.00000000 NULL      -0.05342800       0.09282500       0.03746200
P        8.00990187       2.34381060       6.18730901       0.00000000 NULL      -0.05342800      -0.09282300      -0.03746400
P        1.61064979       2.34381026       6.18730901       0.00000000 NULL       0.05342800      -0.09282500      -0.03746200
P       -3.19962656       9.72593299       7.78810737       0.00000000 NULL       0.05342800       0.09282300       0.03746400
P       -3.05311149      11.43684286       9.18595160       0.00000000 NULL      -0.08418900      -0.20960300       0.02211200
P        1.75716505       0.63290041       4.78946478       0.00000000 NULL      -0.08418900       0.20960200      -0.02211200
P        7.86338680       0.63290074       4.78946478       0.00000000 NULL       0.08418900       0.20960300      -0.02211200
P        3.05311026      11.43684319       9.18595160       0.00000000 NULL       0.08418900      -0.20960200       0.02211200
P       -1.22828078       6.95243071       7.27185740       0.00000000 NULL       0.14092900      -0.03628900      -0.08431900
P        3.58199528       5.11731275       6.70355898       0.00000000 NULL       0.14093000       0.03628800       0.08431900
P        6.03855609       5.11731289       6.70355898       0.00000000 NULL      -0.14092900       0.03628900       0.08431900
P        1.22828003       6.95243084       7.27185740       0.00000000 NULL      -0.14093000      -0.03628800      -0.08431900
P        1.68448050       2.71261115       2.67873928       0.00000000 NULL      -0.05834100       0.02553200      -0.02141500
P       -3.12579582       9.35713211      11.29667710       0.00000000 NULL      -0.05834100      -0.02553400       0.02141300
P        3.12579481       9.35713244      11.29667710       0.00000000 NULL       0.05834100      -0.02553200       0.02141500
P        7.93607113       2.71261149       2.67873928       0.00000000 NULL       0.05834100       0.02553400      -0.02141300
P        6.43570573       5.60687960       9.88441650       0.00000000 NULL      -0.05967400      -0.07137100       0.15703600
P        1.62542973       6.46286417       4.09099988       0.00000000 NULL      -0.05967500       0.07137200      -0.15703400
P       -1.62543042       6.46286400       4.09099988       0.00000000 NULL       0.05967400       0.07137100      -0.15703600
P        3.18484558       5.60687942       9.88441650       0.00000000 NULL       0.05967500      -0.07137200       0.15703400
P       -1.86430115       4.99559503       8.19611414       0.00000000 NULL       0.05195300      -0.06693500       0.01083900
P        2.94597470       7.07414836       5.77930224       0.00000000 NULL       0.05195300       0.06693400      -0.01083900
P        6.67457646       7.07414856       5.77930224       0.00000000 NULL      -0.05195300       0.06693600      -0.01083900
P        1.86430061       4.99559523       8.19611414       0.00000000 NULL      -0.05195300      -0.06693400       0.01083900
44
Lattice="9.624909278606582 5.175364959663161e-07 -1.6560590921169233e-15 -4.812455300334819 12.293564602171006 2.847431737968181 1.3275140370297575e-08 -0.24688500703708813 11.09817477690056" Properties=species:S:1:pos:R:3:initial_magmoms:R:1:castep_labels:S:1:forces:R:3 n_minim_iter=2 energy=-230.306168115478 stress="-0.00039459778930864644 7.57603512160212e-09 0.0 7.57603512160212e-09 -0.00048384348304111944 -2.6069136853432897e-05 0.0 -2.6069136853432897e-05 -0.0004242731188799619" free_energy=-230.306168115478 pbc="T T T"
P       -1.49263617       6.23712451      11.17504677       0.00000000 NULL      -0.00296000       0.06099100       0.04535000
P        3.31981849       5.80955544       2.77055974       0.00000000 NULL      -0.00296100      -0.06099200      -0.04534900
P        6.30509016       5.80955561       2.77055974       0.00000000 NULL       0.00296000      -0.06099100      -0.04535000
P        1.49263550       6.23712467      11.17504677       0.00000000 NULL       0.00296000       0.06099200       0.04534900
P        2.77095146       7.47621174      12.50999405       0.00000000 NULL       0.02246900      -0.01784700      -0.03752300
P       -2.04150302       4.57046816       1.43561245       0.00000000 NULL       0.02247000       0.01784900       0.03752300
P        2.04150253       4.57046838       1.43561245       0.00000000 NULL      -0.02246900       0.01784700       0.03752300
P        6.85395701       7.47621196      12.50999405       0.00000000 NULL      -0.02247000      -0.01784900      -0.03752300
P        1.26545069       8.39254533       2.97282286       0.00000000 NULL      -0.03592900      -0.13951700       0.03414000
P        6.07790559       3.65413492      10.97278365       0.00000000 NULL      -0.03592900       0.13951700      -0.03414000
P        3.54700330       3.65413478      10.97278365       0.00000000 NULL       0.03592900       0.13951700      -0.03414000
P       -1.26545159       8.39254519       2.97282286       0.00000000 NULL       0.03592900      -0.13951700       0.03414000
P        3.63292909       8.24884536       9.43892121       0.00000000 NULL      -0.16312300      -0.02221600       0.03240100
P       -1.17952531       3.79783463       4.50668530       0.00000000 NULL      -0.16312300       0.02221300      -0.03240100
P        1.17952490       3.79783475       4.50668530       0.00000000 NULL       0.16312300       0.02221600      -0.03240100
P        5.99197930       8.24884549       9.43892121       0.00000000 NULL       0.16312300      -0.02221300       0.03240100
P       -1.41017053       8.64533760       8.61529879       0.00000000 NULL       0.00850300       0.10109900       0.04029700
P        3.40228439       3.40134236       5.33030771       0.00000000 NULL       0.00850300      -0.10109900      -0.04029700
P        6.22262452       3.40134251       5.33030771       0.00000000 NULL      -0.00850300      -0.10109900      -0.04029700
P        1.41016960       8.64533776       8.61529879       0.00000000 NULL      -0.00850300       0.10109900       0.04029700
P        3.20097931       9.70985416       7.76954069       0.00000000 NULL      -0.04983600       0.07018800       0.00097900
P        8.01343435       2.33682630       6.17606582       0.00000000 NULL      -0.04983600      -0.07018800      -0.00098000
P        1.61147468       2.33682595       6.17606582       0.00000000 NULL       0.04983600      -0.07018800      -0.00097900
P       -3.20098036       9.70985381       7.76954069       0.00000000 NULL       0.04983600       0.07018800       0.00098000
P       -3.05464462      11.41734826       9.16403696       0.00000000 NULL      -0.08351800      -0.18613200       0.05429400
P        1.75781060       0.62933152       4.78156955       0.00000000 NULL      -0.08351800       0.18613100      -0.05429400
P        7.86709861       0.62933185       4.78156955       0.00000000 NULL       0.08351800       0.18613200      -0.05429400
P        3.05464339      11.41734859       9.16403696       0.00000000 NULL       0.08351800      -0.18613100       0.05429400
P       -1.22858549       6.93960543       7.25574331       0.00000000 NULL       0.14984100      -0.05063300      -0.10249200
P        3.58386925       5.10707455       6.68986320       0.00000000 NULL       0.14984000       0.05063300       0.10249300
P        6.04103948       5.10707468       6.68986320       0.00000000 NULL      -0.14984100       0.05063300       0.10249200
P        1.22858474       6.93960556       7.25574331       0.00000000 NULL      -0.14984000      -0.05063300      -0.10249300
P        1.68513928       2.70778467       2.67271836       0.00000000 NULL      -0.05289200      -0.00172800      -0.05334500
P       -3.12731572       9.33889510      11.27288814       0.00000000 NULL      -0.05289200       0.00172700       0.05334400
P        3.12731471       9.33889544      11.27288814       0.00000000 NULL       0.05289200       0.00172800       0.05334500
P        7.93976971       2.70778501       2.67271836       0.00000000 NULL       0.05289200      -0.00172600      -0.05334400
P        6.43851407       5.59375274       9.86558658       0.00000000 NULL      -0.07309400      -0.05844300       0.15529000
P        1.62605938       6.45292754       4.08001993       0.00000000 NULL      -0.07309200       0.05844400      -0.15528800
P       -1.62606008       6.45292737       4.08001993       0.00000000 NULL       0.07309400       0.05844300      -0.15529000
P        3.18639461       5.59375257       9.86558658       0.00000000 NULL       0.07309200      -0.05844400       0.15528800
P       -1.86505278       4.98430495       8.18005439       0.00000000 NULL       0.06103600      -0.08456000       0.00227800
P        2.94740175       7.06237497       5.76555212       0.00000000 NULL       0.06103300       0.08455800      -0.00227800
P        6.67750677       7.06237517       5.76555212       0.00000000 NULL      -0.06103600       0.08456000      -0.00227800
P        1.86505225       4.98430515       8.18005439       0.00000000 NULL      -0.06103300      -0.08455800       0.00227800
44
Lattice="9.654999229148245 5.191544486566777e-07 -1.8941185315261173e-15 -4.827500275895211 12.298949720336058 2.8326339871740323 1.3942619080063293e-08 -0.2592984784771141 11.09364045648325" Properties=species:S:1:pos:R:3:initial_magmoms:R:1:castep_labels:S:1:forces:R:3 n_minim_iter=3 energy=-230.310134752219 stress="0.0008379058522762438 7.550469950404996e-09 0.0 7.550469950404996e-09 0.0002840109271844839 -0.00066444890610559 0.0 -0.00066444890610559 3.071531175824752e-05" free_energy=-230.310134752219 pbc="T T T"
P       -1.49740329       6.22960006      11.16370903       0.00000000 NULL      -0.02881800       0.04524100       0.04277900
P        3.33009635       5.81005154       2.76256541       0.00000000 NULL      -0.02881800      -0.04524200      -0.04277800
P        6.32490226       5.81005170       2.76256541       0.00000000 NULL       0.02881800      -0.04524100      -0.04277900
P        1.49740262       6.22960022      11.16370903       0.00000000 NULL       0.02881800       0.04524200       0.04277800
P        2.77974347       7.46742690      12.49599790       0.00000000 NULL       0.01373300      -0.01307500      -0.01921100
P       -2.04775599       4.57222464       1.43027653       0.00000000 NULL       0.01373300       0.01307600       0.01921000
P        2.04775549       4.57222486       1.43027653       0.00000000 NULL      -0.01373200       0.01307500       0.01921100
P        6.87525495       7.46742712      12.49599790       0.00000000 NULL      -0.01373300      -0.01307600      -0.01921000
P        1.26914190       8.39393738       2.96252209       0.00000000 NULL      -0.01939500      -0.15650500       0.03073500
P        6.09664177       3.64571452      10.96375234       0.00000000 NULL      -0.01939500       0.15650500      -0.03073500
P        3.55835707       3.64571438      10.96375234       0.00000000 NULL       0.01939500       0.15650500      -0.03073500
P       -1.26914280       8.39393724       2.96252209       0.00000000 NULL       0.01939500      -0.15650500       0.03073500
P        3.64296198       8.24405476       9.42605915       0.00000000 NULL      -0.14425300      -0.01621900      -0.00829800
P       -1.18453739       3.79559687       4.50021529       0.00000000 NULL      -0.14425300       0.01621600       0.00829800
P        1.18453698       3.79559700       4.50021529       0.00000000 NULL       0.14425300       0.01621900       0.00829800
P        6.01203636       8.24405489       9.42605915       0.00000000 NULL       0.14425300      -0.01621600      -0.00829800
P       -1.41453604       8.64252751       8.60226001       0.00000000 NULL      -0.03369900       0.10625900       0.04278500
P        3.41296385       3.39712410       5.32401443       0.00000000 NULL      -0.03369900      -0.10625900      -0.04278500
P        6.24203501       3.39712425       5.32401443       0.00000000 NULL       0.03369900      -0.10625900      -0.04278500
P        1.41453511       8.64252766       8.60226001       0.00000000 NULL       0.03369900       0.10625900       0.04278500
P        3.21058956       9.70863206       7.75558891       0.00000000 NULL      -0.07008100       0.02143700       0.01324600
P        8.03808957       2.33102004       6.17068553       0.00000000 NULL      -0.07008100      -0.02143600      -0.01324700
P        1.61690940       2.33101970       6.17068553       0.00000000 NULL       0.07008100      -0.02143700      -0.01324600
P       -3.21059061       9.70863172       7.75558891       0.00000000 NULL       0.07008100       0.02143600       0.01324700
P       -3.06484146      11.41364897       9.14778345       0.00000000 NULL      -0.08542900      -0.12928300       0.03784200
P        1.76265873       0.62600246       4.77849098       0.00000000 NULL      -0.08542800       0.12928300      -0.03784200
P        7.89234043       0.62600279       4.77849098       0.00000000 NULL       0.08542900       0.12928300      -0.03784200
P        3.06484023      11.41364930       9.14778345       0.00000000 NULL       0.08542800      -0.12928300       0.03784200
P       -1.23129880       6.93607464       7.24421838       0.00000000 NULL       0.10515000      -0.07215500      -0.10709300
P        3.59620091       5.10357699       6.68205606       0.00000000 NULL       0.10514900       0.07215500       0.10709400
P        6.05879777       5.10357712       6.68205606       0.00000000 NULL      -0.10515000       0.07215500       0.10709300
P        1.23129806       6.93607477       7.24421838       0.00000000 NULL      -0.10514900      -0.07215500      -0.10709400
P        1.68998084       2.70679218       2.66826938       0.00000000 NULL      -0.03972100       0.00509600      -0.07214400
P       -3.13751913       9.33285925      11.25800506       0.00000000 NULL      -0.03972100      -0.00509800       0.07214300
P        3.13751813       9.33285958      11.25800506       0.00000000 NULL       0.03972100      -0.00509600       0.07214400
P        7.96501810       2.70679251       2.66826938       0.00000000 NULL       0.03972100       0.00509800      -0.07214300
P        6.45812269       5.58625505       9.85633976       0.00000000 NULL      -0.04134400      -0.05720800       0.15907000
P        1.63062303       6.45339688       4.06993467       0.00000000 NULL      -0.04134300       0.05720900      -0.15906900
P       -1.63062372       6.45339671       4.06993467       0.00000000 NULL       0.04134400       0.05720800      -0.15907000
P        3.19687594       5.58625488       9.85633976       0.00000000 NULL       0.04134300      -0.05720900       0.15906900
P       -1.87044227       4.97814694       8.17105904       0.00000000 NULL       0.03064100      -0.05528600      -0.01923500
P        2.95705723       7.06150462       5.75521539       0.00000000 NULL       0.03063900       0.05528400       0.01923400
P        6.69794124       7.06150482       5.75521539       0.00000000 NULL      -0.03064100       0.05528600       0.01923500
P        1.87044174       4.97814714       8.17105904       0.00000000 NULL      -0.03063900      -0.05528400      -0.01923400
44
Lattice="9.673954453102159 5.201736811842851e-07 -1.8600705253031854e-15 -4.836977888146784 12.304056896420002 2.8673750105950533 1.204691117356098e-08 -0.2240429609831961 11.07649340670902" Properties=species:S:1:pos:R:3:initial_magmoms:R:1:castep_labels:S:1:forces:R:3 n_minim_iter=4 energy=-230.323759074123 stress="0.001480201386487846 0.0 -0.0 0.0 -0.0006031990696483037 0.0009251739929355826 -0.0 0.0009251739929355826 -0.0002848024843126819" free_energy=-230.323759074123 pbc="T T T"
P       -1.50090085       6.26498339      11.16860403       0.00000000 NULL      -0.02519000       0.05613100       0.01387000
P        3.33607640       5.81503091       2.77526438       0.00000000 NULL      -0.02519100      -0.05613200      -0.01386900
P        6.33787742       5.81503107       2.77526438       0.00000000 NULL       0.02519000      -0.05613100      -0.01387000
P        1.50090017       6.26498355      11.16860403       0.00000000 NULL       0.02519100       0.05613200       0.01386900
P        2.78574456       7.50402234      12.49998483       0.00000000 NULL      -0.02010600      -0.04059100       0.00708500
P       -2.05123251       4.57599189       1.44388358       0.00000000 NULL      -0.02010500       0.04059300      -0.00708500
P        2.05123201       4.57599212       1.44388358       0.00000000 NULL       0.02010600       0.04059100      -0.00708500
P        6.88820908       7.50402256      12.49998483       0.00000000 NULL       0.02010500      -0.04059200       0.00708500
P        1.27059224       8.39563810       2.98576931       0.00000000 NULL      -0.01870300      -0.07765500      -0.03872900
P        6.10756972       3.68437649      10.95809910       0.00000000 NULL      -0.01870300       0.07765500       0.03872900
P        3.56638434       3.68437635      10.95809910       0.00000000 NULL       0.01870300       0.07765500       0.03872900
P       -1.27059314       8.39563797       2.98576931       0.00000000 NULL       0.01870300      -0.07765500      -0.03872900
P        3.64454764       8.27088518       9.43929524       0.00000000 NULL      -0.10230700      -0.01331700       0.00501000
P       -1.19242934       3.80912914       4.50457317       0.00000000 NULL      -0.10230600       0.01331400      -0.00501000
P        1.19242893       3.80912927       4.50457317       0.00000000 NULL       0.10230700       0.01331700      -0.00501000
P        6.02940592       8.27088531       9.43929524       0.00000000 NULL       0.10230600      -0.01331400       0.00501000
P       -1.41742935       8.67024183       8.61805716       0.00000000 NULL      -0.03187300       0.02156600      -0.00456800
P        3.41954815       3.40977247       5.32581125       0.00000000 NULL      -0.03187400      -0.02156500       0.00456800
P        6.25440593       3.40977262       5.32581125       0.00000000 NULL       0.03187300      -0.02156600       0.00456800
P        1.41742842       8.67024199       8.61805716       0.00000000 NULL       0.03187400       0.02156600      -0.00456800
P        3.21501568       9.73238372       7.77541533       0.00000000 NULL      -0.06898500       0.03883400      -0.03631700
P        8.05199330       2.34763108       6.16845308       0.00000000 NULL      -0.06898400      -0.03883300       0.03631600
P        1.62196090       2.34763074       6.16845308       0.00000000 NULL       0.06898500      -0.03883400       0.03631700
P       -3.21501673       9.73238337       7.77541533       0.00000000 NULL       0.06898400       0.03883300      -0.03631600
P       -3.07369651      11.43301480       9.17175884       0.00000000 NULL      -0.08244400      -0.10331000       0.03813000
P        1.76328130       0.64699933       4.77210957       0.00000000 NULL      -0.08244400       0.10330900      -0.03813000
P        7.91067308       0.64699966       4.77210957       0.00000000 NULL       0.08244400       0.10331000      -0.03813000
P        3.07369528      11.43301513       9.17175884       0.00000000 NULL       0.08244400      -0.10330900       0.03813000
P       -1.22910981       6.95515364       7.25224479       0.00000000 NULL       0.04232200      -0.00033800      -0.06458400
P        3.60786752       5.12486068       6.69162362       0.00000000 NULL       0.04232000       0.00033800       0.06458600
P        6.06608638       5.12486081       6.69162362       0.00000000 NULL      -0.04232200       0.00033800       0.06458400
P        1.22910906       6.95515378       7.25224479       0.00000000 NULL      -0.04232000      -0.00033800      -0.06458600
P        1.69155815       2.71469099       2.67133079       0.00000000 NULL      -0.05541600      -0.02356800      -0.03448600
P       -3.14541943       9.36532313      11.27253762       0.00000000 NULL      -0.05541600       0.02356700       0.03448500
P        3.14541842       9.36532347      11.27253762       0.00000000 NULL       0.05541600       0.02356800       0.03448600
P        7.98239601       2.71469133       2.67133079       0.00000000 NULL       0.05541600      -0.02356700      -0.03448500
P        6.46873156       5.61366351       9.86473084       0.00000000 NULL       0.02471100       0.01222900       0.05753300
P        1.63175428       6.46635112       4.07913757       0.00000000 NULL       0.02471400      -0.01222800      -0.05753200
P       -1.63175498       6.46635094       4.07913757       0.00000000 NULL      -0.02471100      -0.01222900      -0.05753300
P        3.20522229       5.61366334       9.86473084       0.00000000 NULL      -0.02471400       0.01222800       0.05753200
P       -1.87239277       5.00007572       8.17478514       0.00000000 NULL      -0.01414500      -0.04957000       0.02927600
P        2.96458434       7.07993853       5.76908327       0.00000000 NULL      -0.01414900       0.04956800      -0.02927600
P        6.70936935       7.07993873       5.76908327       0.00000000 NULL       0.01414500       0.04957000      -0.02927600
P        1.87239224       5.00007592       8.17478514       0.00000000 NULL       0.01414900      -0.04956700       0.02927600
44
Lattice="9.62345249478801 5.174581639409822e-07 -1.854976546914931e-15 -4.811726910600993 12.334022787230186 2.852297663321406 1.2781291945649953e-08 -0.23770064190662435 11.074167526614053" Properties=species:S:1:pos:R:3:initial_magmoms:R:1:castep_labels:S:1:forces:R:3 n_minim_iter=5 energy=-230.339151623388 stress="-3.77067742454142e-05 0.0 -0.0 0.0 0.0002509873720350749 3.738125902908158e-05 -0.0 3.738125902908158e-05 -0.00033343356322295" free_energy=-230.339151623388 pbc="T T T"
P       -1.49378645       6.27121623      11.16052780       0.00000000 NULL       0.03408000       0.02671300      -0.00197800
P        3.31793982       5.82510627       2.76593738       0.00000000 NULL       0.03407800      -0.02671400       0.00197900
P        6.30551204       5.82510644       2.76593738       0.00000000 NULL      -0.03408000      -0.02671300       0.00197800
P        1.49378577       6.27121639      11.16052780       0.00000000 NULL      -0.03407800       0.02671400      -0.00197900
P        2.77173311       7.50871743      12.48690071       0.00000000 NULL       0.04953700      -0.00840700       0.00766600
P       -2.03999298       4.58760501       1.43956448       0.00000000 NULL       0.04953700       0.00840800      -0.00766600
P        2.03999249       4.58760523       1.43956448       0.00000000 NULL      -0.04953700       0.00840700      -0.00766600
P        6.85171858       7.50871765      12.48690071       0.00000000 NULL      -0.04953700      -0.00840800       0.00766600
P        1.26272095       8.40887721       2.97628281       0.00000000 NULL      -0.03601300      -0.03496900      -0.02331100
P        6.07444745       3.68744558      10.95018237       0.00000000 NULL      -0.03601300       0.03496900       0.02331100
P        3.54900464       3.68744545      10.95018237       0.00000000 NULL       0.03601300       0.03496900       0.02331100
P       -1.26272186       8.40887708       2.97628281       0.00000000 NULL       0.03601300      -0.03496900      -0.02331100
P        3.61889524       8.28160766       9.42858242       0.00000000 NULL      -0.10126400      -0.01234300      -0.03098000
P       -1.19283077       3.81471487       4.49788276       0.00000000 NULL      -0.10126300       0.01234100       0.03098000
P        1.19283036       3.81471500       4.49788276       0.00000000 NULL       0.10126400       0.01234400       0.03098000
P        6.00455637       8.28160779       9.42858242       0.00000000 NULL       0.10126300      -0.01234100      -0.03098000
P       -1.41028095       8.68723253       8.60712342       0.00000000 NULL       0.01817800      -0.04888000      -0.02780700
P        3.40144558       3.40908998       5.31934176       0.00000000 NULL       0.01817800       0.04888100       0.02780600
P        6.22200654       3.40909013       5.31934176       0.00000000 NULL      -0.01817800       0.04888000       0.02780700
P        1.41028001       8.68723268       8.60712342       0.00000000 NULL      -0.01817800      -0.04888000      -0.02780600
P        3.19586595       9.75225284       7.76265347       0.00000000 NULL      -0.01545500       0.01770200      -0.07222500
P        8.00759259       2.34407017       6.16381171       0.00000000 NULL      -0.01545500      -0.01770100       0.07222400
P        1.61585965       2.34406983       6.16381171       0.00000000 NULL       0.01545500      -0.01770200       0.07222500
P       -3.19586700       9.75225249       7.76265347       0.00000000 NULL       0.01545500       0.01770100      -0.07222400
P       -3.06114480      11.44597277       9.15787580       0.00000000 NULL      -0.06619100       0.07103000      -0.03823800
P        1.75058203       0.65034956       4.76858938       0.00000000 NULL      -0.06619100      -0.07103000       0.03823800
P        7.87287039       0.65034989       4.76858938       0.00000000 NULL       0.06619100      -0.07103000       0.03823800
P        3.06114356      11.44597310       9.15787580       0.00000000 NULL       0.06619100       0.07103000      -0.03823800
P       -1.21737230       6.96353779       7.23850095       0.00000000 NULL       0.01259200       0.01127100       0.02420700
P        3.59435404       5.13278474       6.68796423       0.00000000 NULL       0.01259000      -0.01127100      -0.02420600
P        6.02909790       5.13278487       6.68796423       0.00000000 NULL      -0.01259200      -0.01127100      -0.02420700
P        1.21737156       6.96353792       7.23850095       0.00000000 NULL      -0.01259000       0.01127100       0.02420600
P        1.68056504       2.71914123       2.66562603       0.00000000 NULL      -0.04255400      -0.01151000      -0.05729700
P       -3.13116157       9.37718110      11.26083915       0.00000000 NULL      -0.04255400       0.01150900       0.05729600
P        3.13116056       9.37718144      11.26083915       0.00000000 NULL       0.04255400       0.01151000       0.05729700
P        7.94288716       2.71914156       2.66562603       0.00000000 NULL       0.04255400      -0.01150800      -0.05729600
P        6.43273904       5.61494370       9.86195072       0.00000000 NULL       0.00507400       0.02837600      -0.01652700
P        1.62101274       6.48137913       4.06451447       0.00000000 NULL       0.00507700      -0.02837500       0.01652900
P       -1.62101344       6.48137896       4.06451447       0.00000000 NULL      -0.00507400      -0.02837600       0.01652700