6
Lattice="2.240899999999998 3.4952648169402207e-16 0.0 -1.0407462505457512 6.625517107333955 0.0 0.0 0.0 8.83451" Properties=species:S:1:pos:R:3:initial_magmoms:R:1:castep_labels:S:1 n_minim_iter=1 pbc="T T T"
P        0.93735124       0.17995633       6.48436248       0.00000000 NULL
P        0.93735124       0.17995633       2.35014752       0.00000000 NULL
P        1.28696800       5.33479946       5.42739729       0.00000000 NULL
P        1.28696800       5.33479946       3.40711271       0.00000000 NULL
P        0.07378379       4.28814134       2.04279845       0.00000000 NULL
P        0.07378379       4.28814134       6.79171155       0.00000000 NULL
6
Lattice="2.2492283096541206 9.814579369570168e-05 0.0 -1.0443240052027034 6.636190513860372 0.0 0.0 0.0 8.846380117031691" Properties=species:S:1:pos:R:3:initial_magmoms:R:1:castep_labels:S:1 n_minim_iter=2 pbc="T T T"
P        0.94088592       0.18070762       6.49326555       0.00000000 NULL
P        0.94088592       0.18070762       2.35311457       0.00000000 NULL
P        1.29190234       5.34340836       5.43428252       0.00000000 NULL
P        1.29190234       5.34340836       3.41209760       0.00000000 NULL
P        0.07428502       4.29474127       2.04521000       0.00000000 NULL
P        0.07428502       4.29474127       6.80117012       0.00000000 NULL
6
Lattice="2.6003761765237314 0.004002622030050833 0.0 -1.1958643022853646 7.062469828197406 0.0 0.0 0.0 9.313978787747764" Properties=species:S:1:pos:R:3:initial_magmoms:R:1:castep_labels:S:1 n_minim_iter=3 pbc="T T T"
P        1.08991753       0.21131449       6.84421780       0.00000000 NULL
P        1.08991753       0.21131449       2.46976098       0.00000000 NULL
P        1.49938403       5.68700981       5.70531311       0.00000000 NULL
P        1.49938403       5.68700981       3.60866567       0.00000000 NULL
P        0.09496354       4.55792894       2.13990123       0.00000000 NULL
P        0.09496354       4.55792894       7.17407755       0.00000000 NULL
6
Lattice="2.70048389632672 -0.0005818293560676443 0.0 -1.2559120934059507 7.079559383100398 0.0 0.0 0.0 9.499535035875166" Properties=species:S:1:pos:R:3:initial_magmoms:R:1:castep_labels:S:1 n_minim_iter=4 pbc="T T T"
P        1.13007387       0.21153689       6.98198382       0.00000000 NULL
P        1.13007387       0.21153689       2.51755121       0.00000000 NULL
P        1.54791079       5.69551224       5.82263883       0.00000000 NULL
P        1.54791079       5.69551224       3.67689621       0.00000000 NULL
P        0.08888874       4.56663752       2.18002100       0.00000000 NULL
P        0.08888874       4.56663752       7.31951403       0.00000000 NULL
6
Lattice="2.786998216087466 -0.004187658099072097 0.0 -1.306753243806412 6.961510467937248 0.0 0.0 0.0 9.68594715082645" Properties=species:S:1:pos:R:3:initial_magmoms:R:1:castep_labels:S:1 n_minim_iter=5 pbc="T T T"
P        1.16475371       0.20431977       7.11972995       0.00000000 NULL
P        1.16475371       0.20431977       2.56621720       0.00000000 NULL
P        1.59087577       5.59649271       5.94497548       0.00000000 NULL
P        1.59087577       5.59649271       3.74097167       0.00000000 NULL
P        0.08419286       4.49203723       2.22152564       0.00000000 NULL
P        0.08419286       4.49203723       7.46442151       0.00000000 NULL
6
Lattice="2.805736590025592 -0.0030768745879964235 0.0 -1.3121717708545897 6.885113812580349 0.0 0.0 0.0 9.728696109678754" Properties=species:S:1:pos:R:3:initial_magmoms:R:1:castep_labels:S:1 n_minim_iter=6 pbc="T T T"
P        1.17283967       0.20079329       7.15127336       0.00000000 NULL
P        1.17283967       0.20079329       2.57742274       0.00000000 NULL
P        1.60419419       5.53582176       5.97425666       0.00000000 NULL
P        1.60419419       5.53582176       3.75443945       0.00000000 NULL
P        0.08686435       4.44510311       2.23149364       0.00000000 NULL
P        0.08686435       4.44510311       7.49720247       0.00000000 NULL
6
Lattice="2.8936237742775424 0.0061587337431276605 0.0 -1.3256831174058616 6.535718653260852 0.0 0.0 0.0 9.9235932346487" Properties=species:S:1:pos:R:3:initial_magmoms:R:1:castep_labels:S:1 n_minim_iter=7 pbc="T T T"
P        1.21206331       0.18677592       7.29549402       0.00000000 NULL
P        1.21206331       0.18677592       2.62809921       0.00000000 NULL
P        1.67510503       5.26210920       6.10708474       0.00000000 NULL
P        1.67510503       5.26210920       3.81650849       0.00000000 NULL
P        0.10726204       4.23169715       2.27705637       0.00000000 NULL
P        0.10726204       4.23169715       7.64653686       0.00000000 NULL
6
Lattice="3.0008765215552407 0.03303239776171768 0.0 -1.296039212679224 6.144088961371358 0.0 0.0 0.0 10.16617846445696" Properties=species:S:1:pos:R:3:initial_magmoms:R:1:castep_labels:S:1 n_minim_iter=8 pbc="T T T"
P        1.26592341       0.17893219       7.47665805       0.00000000 NULL
P        1.26592341       0.17893219       2.68952042       0.00000000 NULL
P        1.79305083       4.97005656       6.26946736       0.00000000 NULL
P        1.79305083       4.97005656       3.89671110       0.00000000 NULL
P        0.16300653       3.99817725       2.33428206       0.00000000 NULL
P        0.16300653       3.99817725       7.83189641       0.00000000 NULL
6
Lattice="3.2784632173525874 0.11695343321404025 0.0 -1.1768357929808586 5.404939636063917 0.0 0.0 0.0 10.895300805927912" Properties=species:S:1:pos:R:3:initial_magmoms:R:1:castep_labels:S:1 n_minim_iter=9 pbc="T T T"
P        1.41834992       0.18132983       8.02112933       0.00000000 NULL
P        1.41834992       0.18132983       2.87417148       0.00000000 NULL
P        2.11582639       4.44750296       6.76022435       0.00000000 NULL
P        2.11582639       4.44750296       4.13507645       0.00000000 NULL
P        0.33959262       3.56844253       2.50731828       0.00000000 NULL
P        0.33959262       3.56844253       8.38798253       0.00000000 NULL
6
Lattice="3.1642127035492638 0.12312113092186609 0.0 -1.105538555022986 5.806985224732094 0.0 0.0 0.0 10.940594224204398" Properties=species:S:1:pos:R:3:initial_magmoms:R:1:castep_labels:S:1 n_minim_iter=10 pbc="T T T"
P        1.37940287       0.20856553       8.04150742       0.00000000 NULL
P        1.37940287       0.20856553       2.89908681       0.00000000 NULL
P        2.05313560       4.77427236       6.82283358       0.00000000 NULL
P        2.05313560       4.77427236       4.11776065       0.00000000 NULL
P        0.35104431       3.81985417       2.52071862       0.00000000 NULL
P        0.35104431       3.81985417       8.41987560       0.00000000 NULL
6
Lattice="3.127210972579756 0.1254830601213033 0.0 -1.0813704015634824 5.642452784507129 0.0 0.0 0.0 11.008331757758386" Properties=species:S:1:pos:R:3:initial_magmoms:R:1:castep_labels:S:1 n_minim_iter=11 pbc="T T T"
P        1.36819924       0.20089975       8.08793337       0.00000000 NULL
P        1.36819924       0.20089975       2.92039839       0.00000000 NULL
P        2.03005804       4.64392534       6.88690715       0.00000000 NULL
P        2.03005804       4.64392534       4.12142461       0.00000000 NULL
P        0.35771158       3.71847544       2.54179046       0.00000000 NULL
P        0.35771158       3.71847544       8.46654130       0.00000000 NULL
6
Lattice="3.146741898895432 0.1297271629143743 0.0 -1.077892942806709 5.66552754383159 0.0 0.0 0.0 11.170803297862125" Properties=species:S:1:pos:R:3:initial_magmoms:R:1:castep_labels:S:1 n_minim_iter=12 pbc="T T T"
P        1.38063992       0.20484301       8.20610630       0.00000000 NULL
P        1.38063992       0.20484301       2.96469700       0.00000000 NULL
P        2.04507421       4.66542004       6.99976058       0.00000000 NULL
P        2.04507421       4.66542004       4.17104272       0.00000000 NULL
P        0.36885020       3.73444695       2.57959719       0.00000000 NULL
P        0.36885020       3.73444695       8.59120610       0.00000000 NULL
6
Lattice="3.1414252312642033 0.13224709738375384 0.0 -1.0679731914394746 5.651735308939167 0.0 0.0 0.0 11.267853781509599" Properties=species:S:1:pos:R:3:initial_magmoms:R:1:castep_labels:S:1 n_minim_iter=13 pbc="T T T"
P        1.38203461       0.20588905       8.27539154       0.00000000 NULL
P        1.38203461       0.20588905       2.99246224       0.00000000 NULL
P        2.04235027       4.65587426       7.07384454       0.00000000 NULL
P        2.04235027       4.65587426       4.19400924       0.00000000 NULL
P        0.37575060       3.72685600       2.60418130       0.00000000 NULL
P        0.37575060       3.72685600       8.66367248       0.00000000 NULL
6
Lattice="3.1352315561580517 0.14109878937274067 0.0 -1.0389254513146573 5.640445086359306 0.0 0.0 0.0 11.656025931072643" Properties=species:S:1:pos:R:3:initial_magmoms:R:1:castep_labels:S:1 n_minim_iter=14 pbc="T T T"
P        1.39419429       0.21239880       8.55231255       0.00000000 NULL
P        1.39419429       0.21239880       3.10371338       0.00000000 NULL
P        2.03642289       4.65127412       7.37076343       0.00000000 NULL
P        2.03642289       4.65127412       4.28526250       0.00000000 NULL
P        0.40188851       3.72340191       2.70266936       0.00000000 NULL
P        0.40188851       3.72340191       8.95335657       0.00000000 NULL
