8
Lattice="5.278689999999996 1.5336235077358085e-15 1.5917728064818254e-15 1.6381893647144758 5.786613210353395 -3.416392967170739e-15 2.1241109606681583 1.021717681660794 5.730499729356168" Properties=species:S:1:pos:R:3:initial_magmoms:R:1:castep_labels:S:1 n_minim_iter=1 pbc="T T T"
P        5.29123510       5.36787620       1.44087857       0.00000000 NULL
P        1.92320468       3.93386633       1.38204181       0.00000000 NULL
P        6.76705841       1.38520099       3.87171530       0.00000000 NULL
P        2.13455317       1.92383488       1.71975334       0.00000000 NULL
P        3.71933915       2.16753833       3.80190692       0.00000000 NULL
P        6.82875669       3.31928755       3.33051086       0.00000000 NULL
P        7.25624811       5.27823611       3.32152085       0.00000000 NULL
P        4.81102559       3.64798199       2.89835382       0.00000000 NULL
8
Lattice="5.282789990453413 0.0009908855410945042 -0.0018147723711010905 1.640547986288818 5.800754910005197 -0.0025382937504273926 2.1239824604829103 1.0226031070939194 5.731683315718911" Properties=species:S:1:pos:R:3:initial_magmoms:R:1:castep_labels:S:1 n_minim_iter=2 pbc="T T T"
P        5.29592300       5.38112578       1.43784706       0.00000000 NULL
P        1.92502951       3.94350682       1.38026279       0.00000000 NULL
P        6.77131492       1.38821503       3.87061289       0.00000000 NULL
P        2.13606620       1.92793050       1.71902821       0.00000000 NULL
P        3.72128178       2.17193688       3.80148666       0.00000000 NULL
P        6.83351771       3.32736664       3.32853746       0.00000000 NULL
P        7.26165098       5.29131547       3.31846242       0.00000000 NULL
P        4.81430927       3.65687272       2.89649874       0.00000000 NULL
8
Lattice="5.406690654599175 0.032675979370257895 -0.05864913943188758 1.7137332145950386 6.239286634758952 -0.08103225050131944 2.1182732133584254 1.0507806242062452 5.764044415784906" Properties=species:S:1:pos:R:3:initial_magmoms:R:1:castep_labels:S:1 n_minim_iter=3 pbc="T T T"
P        5.43889434       5.79256391       1.34268144       0.00000000 NULL
P        1.98116278       4.24326256       1.32422265       0.00000000 NULL
P        6.89894692       1.48282348       3.83289855       0.00000000 NULL
P        2.18180334       2.05497734       1.69531828       0.00000000 NULL
P        3.77919374       2.30888968       3.78538202       0.00000000 NULL
P        6.97712776       3.57913081       3.26433716       0.00000000 NULL
P        7.42533107       5.69837205       3.22067072       0.00000000 NULL
P        4.91358456       3.93386773       2.83661523       0.00000000 NULL
8
Lattice="5.420651649239715 0.06265173657688865 -0.12706623449190824 1.7509259396050643 6.464196848173549 -0.10975902242891462 2.055419989958716 1.0934900521658668 5.669640229872309" Properties=species:S:1:pos:R:3:initial_magmoms:R:1:castep_labels:S:1 n_minim_iter=4 pbc="T T T"
P        5.46841267       6.01495554       1.25604466       0.00000000 NULL
P        1.99197128       4.40803303       1.27274379       0.00000000 NULL
P        6.87809395       1.56482545       3.70059590       0.00000000 NULL
P        2.17880347       2.12920057       1.64812208       0.00000000 NULL
P        3.75050045       2.40300201       3.69020319       0.00000000 NULL
P        6.96968154       3.73774220       3.13747431       0.00000000 NULL
P        7.42703479       5.93393468       3.07689191       0.00000000 NULL
P        4.90532310       4.10084563       2.73406800       0.00000000 NULL
8
Lattice="5.386950352192731 0.08919242070124422 -0.21246200287608172 1.7695615418030248 6.6379489324558385 -0.12323235899229931 1.9542909909444384 1.1462962708702105 5.507884035146882" Properties=species:S:1:pos:R:3:initial_magmoms:R:1:castep_labels:S:1 n_minim_iter=5 pbc="T T T"
P        5.44356117       6.18962678       1.15709119       0.00000000 NULL
P        1.97823561       4.54381345       1.21453529       0.00000000 NULL
P        6.78390108       1.64662677       3.50603283       0.00000000 NULL
P        2.15007600       2.19114677       1.58332798       0.00000000 NULL
P        3.67392647       2.49019608       3.54620632       0.00000000 NULL
P        6.88811253       3.87542006       2.96406236       0.00000000 NULL
P        7.34760691       6.12824024       2.88992620       0.00000000 NULL
P        4.84086775       4.24418026       2.59660122       0.00000000 NULL
8
Lattice="5.275791572203164 0.14134288770949113 -0.4668887386264565 1.7922329716734073 7.100192190644994 -0.1575946618581322 1.6434519628788347 1.2902040689505574 5.01232221152999" Properties=species:S:1:pos:R:3:initial_magmoms:R:1:castep_labels:S:1 n_minim_iter=6 pbc="T T T"
P        5.33303527       6.63333604       0.86430686       0.00000000 NULL
P        1.91495967       4.91809097       1.04166277       0.00000000 NULL
P        6.48515021       1.85651280       2.91361413       0.00000000 NULL
P        2.05004247       2.34541021       1.38879195       0.00000000 NULL
P        3.42642160       2.71468060       3.10835296       0.00000000 NULL
P        6.61769219       4.22641834       2.44453300       0.00000000 NULL
P        7.06677995       6.62251886       2.33009445       0.00000000 NULL
P        4.61445026       4.62580057       2.18451700       0.00000000 NULL
8
Lattice="5.395637274084464 0.07264338243137833 -0.4622053762424337 1.7541160315692534 7.1628081256268885 -0.19520338410817545 1.6834641773799996 1.2386967107718279 4.936994228800043" Properties=species:S:1:pos:R:3:initial_magmoms:R:1:castep_labels:S:1 n_minim_iter=7 pbc="T T T"
P        5.39069119       6.60217872       0.82511682       0.00000000 NULL
P        1.91216653       4.98637761       0.98544738       0.00000000 NULL
P        6.64098935       1.78504742       2.85701705       0.00000000 NULL
P        2.07515207       2.30925390       1.35665070       0.00000000 NULL
P        3.48374690       2.66196579       3.05378059       0.00000000 NULL
P        6.74854642       4.14745075       2.40490105       0.00000000 NULL
P        7.15877550       6.56745078       2.25286567       0.00000000 NULL
P        4.64541990       4.62402552       2.12494880       0.00000000 NULL
8
Lattice="5.263118052302643 0.10294199330977476 -0.4645693566219349 1.7462039856300295 7.148705497110121 -0.20993964567355128 1.6334374294658982 1.2328715720046572 4.863699404129467" Properties=species:S:1:pos:R:3:initial_magmoms:R:1:castep_labels:S:1 n_minim_iter=8 pbc="T T T"
P        5.29083023       6.58858204       0.79716994       0.00000000 NULL
P        1.88605607       5.00056248       0.95375244       0.00000000 NULL
P        6.48446173       1.82166568       2.80164918       0.00000000 NULL
P        2.03078321       2.30119777       1.32965471       0.00000000 NULL
P        3.39755632       2.66169502       3.00199880       0.00000000 NULL
P        6.59330175       4.15916370       2.35963183       0.00000000 NULL
P        7.00321884       6.57199665       2.19302554       0.00000000 NULL
P        4.54230757       4.63875392       2.07570915       0.00000000 NULL
8
Lattice="5.300809802067837 0.11466789754049 -0.45431594064385555 1.7707554360708815 7.230951446283184 -0.22749860207573186 1.6620049755760757 1.2309294170309593 4.8816637787276855" Properties=species:S:1:pos:R:3:initial_magmoms:R:1:castep_labels:S:1 n_minim_iter=9 pbc="T T T"
P        5.34288665       6.65829904       0.79483401       0.00000000 NULL
P        1.91288527       5.06691598       0.94260245       0.00000000 NULL
P        6.54674448       1.84736376       2.82234397       0.00000000 NULL
P        2.05337419       2.31890572       1.32985848       0.00000000 NULL
P        3.43596098       2.68272879       3.01513284       0.00000000 NULL
P        6.65795614       4.20367877       2.37554855       0.00000000 NULL
P        7.07271567       6.64534125       2.19811157       0.00000000 NULL
P        4.58485843       4.69550108       2.07900479       0.00000000 NULL
8
Lattice="5.28804742982167 0.12590342378951233 -0.44538597436991223 1.7791113846368438 7.24904902074712 -0.23507035852598523 1.668738466342757 1.2277874915507716 4.866322962996777" Properties=species:S:1:pos:R:3:initial_magmoms:R:1:castep_labels:S:1 n_minim_iter=10 pbc="T T T"
P        5.34380419       6.67097969       0.79213244       0.00000000 NULL
P        1.91967155       5.08957438       0.93175186       0.00000000 NULL
P        6.54345276       1.86450827       2.81968993       0.00000000 NULL
P        2.05481653       2.32078790       1.32390697       0.00000000 NULL
P        3.43646360       2.68693025       3.00749814       0.00000000 NULL
P        6.65553933       4.21763034       2.37384204       0.00000000 NULL
P        7.07139325       6.66513941       2.19054383       0.00000000 NULL
P        4.58294110       4.71494967       2.07030796       0.00000000 NULL
8
Lattice="5.276117391810177 0.15777044893147527 -0.42570896346506976 1.810342331570665 7.31969335171031 -0.25891273955073735 1.691467113831588 1.2216792505872178 4.841161644755095" Properties=species:S:1:pos:R:3:initial_magmoms:R:1:castep_labels:S:1 n_minim_iter=11 pbc="T T T"
P        5.36812563       6.72619239       0.78314443       0.00000000 NULL
P        1.94704997       5.16439065       0.90315239       0.00000000 NULL
P        6.56017460       1.91577875       2.81970930       0.00000000 NULL
P        2.06735467       2.33359495       1.31031882       0.00000000 NULL
P        3.45089212       2.70563139       2.99525315       0.00000000 NULL
P        6.67663698       4.26874271       2.37254762       0.00000000 NULL
P        7.09753932       6.73987491       2.17372656       0.00000000 NULL
P        4.59705335       4.78118601       2.05077191       0.00000000 NULL
8
Lattice="5.246323887900539 0.24153473069974274 -0.3892463614079772 1.8929204140482638 7.439438108299091 -0.3074049338023679 1.7352748901516357 1.2127103438687339 4.7851033184071685" Properties=species:S:1:pos:R:3:initial_magmoms:R:1:castep_labels:S:1 n_minim_iter=12 pbc="T T T"
P        5.42199609       6.80506704       0.76847351       0.00000000 NULL
P        2.02056946       5.31814320       0.83410368       0.00000000 NULL
P        6.59810220       2.05160032       2.81745157       0.00000000 NULL
P        2.09813433       2.35825848       1.27626697       0.00000000 NULL
P        3.47182946       2.73851703       2.96806834       0.00000000 NULL
P        6.72690724       4.37525353       2.36367178       0.00000000 NULL
P        7.15766237       6.89079428       2.13817184       0.00000000 NULL
P        4.63019909       4.92520651       2.00209577       0.00000000 NULL
8
Lattice="5.370718608797391 0.2730912754638837 -0.40467778648157093 1.9661180497505153 7.553759752037787 -0.3441823706924617 1.7746862389249312 1.2121863759880716 4.861147892854107" Properties=species:S:1:pos:R:3:initial_magmoms:R:1:castep_labels:S:1 n_minim_iter=13 pbc="T T T"
P        5.55361473       6.88573207       0.76166521       0.00000000 NULL
P        2.10813687       5.40874983       0.79768189       0.00000000 NULL
P        6.76997919       2.11602905       2.86302761       0.00000000 NULL
P        2.15981360       2.39691086       1.27313043       0.00000000 NULL
P        3.54235967       2.75879406       3.00964305       0.00000000 NULL
P        6.90796756       4.44842338       2.37970705       0.00000000 NULL
P        7.34437930       7.01910150       2.15221535       0.00000000 NULL
P        4.74979244       5.02846720       2.00250646       0.00000000 NULL
8
Lattice="5.272105509211588 0.2749359711742285 -0.3986133946760285 1.9375366421671127 7.428948175737331 -0.33698166794609297 1.7419454619763408 1.196057242351583 4.7760371218136815" Properties=species:S:1:pos:R:3:initial_magmoms:R:1:castep_labels:S:1 n_minim_iter=14 pbc="T T T"
P        5.45814101       6.77005410       0.75155774       0.00000000 NULL
P        2.07457129       5.32399810       0.78451673       0.00000000 NULL
P        6.65143470       2.09638283       2.81045080       0.00000000 NULL
P        2.12136051       2.36081843       1.25322792       0.00000000 NULL
P        3.47393180       2.71552496       2.95693222       0.00000000 NULL
P        6.78566440       4.38175901       2.33637324       0.00000000 NULL
P        7.21326485       6.90789874       2.11386300       0.00000000 NULL
P        4.66856950       4.95376251       1.96587010       0.00000000 NULL
