30
Lattice="8.50345 0.0 0.0 0.0 9.672119999999996 2.271416875829197e-15 0.0 -4.83606 8.376301628451538" Properties=species:S:1:pos:R:3:initial_magmoms:R:1:castep_labels:S:1 n_minim_iter=1 pbc="T T T"
P        1.61964872       1.57279456       8.19486675       0.00000000 NULL
P        7.28861539       1.47450551       2.91678822       0.00000000 NULL
P        4.45413205      -3.04730006       5.64094830       0.00000000 NULL
P        0.05556324       4.63210159       1.99300779       0.00000000 NULL
P        5.72452991       4.24600458       3.36828009       0.00000000 NULL
P        2.89004657       5.63007384       3.01501376       0.00000000 NULL
P        6.61476998      -1.02283298       6.89321628       0.00000000 NULL
P        3.78028665       1.64505690       5.81549284       0.00000000 NULL
P        0.94580331      -0.62222392       4.04389415       0.00000000 NULL
P        2.10676460       0.15109786       0.84259228       0.00000000 NULL
P        7.77573127      -4.18190261       7.82415091       0.00000000 NULL
P        4.94124793       4.03080476       8.08586008       0.00000000 NULL
P        5.16638669       1.16280306       7.47987067       0.00000000 NULL
P        2.33190336       1.06029649       3.62934931       0.00000000 NULL
P        8.00087002      -2.22309954       5.64338329       0.00000000 NULL
P        3.73669059      -0.16335824       6.91069343       0.00000000 NULL
P        0.90220726       1.23045519       5.06242731       0.00000000 NULL
P        6.57117392      -1.06709694       4.77948253       0.00000000 NULL
P        7.46942963       0.75967732       4.78673641       0.00000000 NULL
P        4.63494630      -1.07046333       5.32503357       0.00000000 NULL
P        1.80046296       0.31078601       6.64083328       0.00000000 NULL
P        0.13243613      -0.78788993       6.91714988       0.00000000 NULL
P        5.80140280       1.54831248       5.60005939       0.00000000 NULL
P        2.96691946      -0.76042255       4.23539400       0.00000000 NULL
P        7.09575317       5.11141075       5.93685120       0.00000000 NULL
P        4.26126984       7.42181858       0.98126448       0.00000000 NULL
P        1.42678650       1.97495067       1.45818596       0.00000000 NULL
P        0.34514058       2.99601413       5.82397635       0.00000000 NULL
P        6.01410725      -1.29035559       2.86968911       0.00000000 NULL
P        3.17962391      -1.70565853       8.05893780       0.00000000 NULL
30
Lattice="8.559984147354129 0.0 0.0 0.0 9.7194435312967 8.22313797872371e-18 0.0 -4.85972176564835 8.417285008751271" Properties=species:S:1:pos:R:3:initial_magmoms:R:1:castep_labels:S:1 n_minim_iter=2 pbc="T T T"
P        1.63036029       1.58062911       8.23513343       0.00000000 NULL
P        7.33701638       1.48179843       2.93085333       0.00000000 NULL
P        4.48368833      -3.06242754       5.66858326       0.00000000 NULL
P        0.05598640       4.65473966       2.00279122       0.00000000 NULL
P        5.76264250       4.26682001       3.38476661       0.00000000 NULL
P        2.90931445       5.65760563       3.02972719       0.00000000 NULL
P        6.65856370      -1.02793400       6.92732311       0.00000000 NULL
P        3.80523565       1.65348303       5.84384041       0.00000000 NULL
P        0.95190760      -0.62554903       4.06340650       0.00000000 NULL
P        2.12078894       0.15176805       0.84668251       0.00000000 NULL
P        7.82744504      -4.20235723       7.86250877       0.00000000 NULL
P        4.97411699       4.05058918       8.12537875       0.00000000 NULL
P        5.20092643       1.16868307       7.51695842       0.00000000 NULL
P        2.34759838       1.06581365       3.64669658       0.00000000 NULL
P        8.05425448      -2.23449671       5.67091503       0.00000000 NULL
P        3.76165679      -0.16424420       6.94476152       0.00000000 NULL
P        0.90832874       1.23674023       5.08714390       0.00000000 NULL
P        6.61498484      -1.07249603       4.80266461       0.00000000 NULL
P        7.51904274       0.76351795       4.81007551       0.00000000 NULL
P        4.66571469      -1.07583315       5.35102132       0.00000000 NULL
P        1.81238664       0.31231521       6.67347320       0.00000000 NULL
P        0.13335894      -0.79178949       6.95141537       0.00000000 NULL
P        5.84001503       1.55627529       5.62728714       0.00000000 NULL
P        2.98668699      -0.76448579       4.25586751       0.00000000 NULL
P        7.14283483       5.13640697       5.96576279       0.00000000 NULL
P        4.28950678       7.45802041       0.98614470       0.00000000 NULL
P        1.43617873       1.98473793       1.46537753       0.00000000 NULL
P        0.34738675       3.01089820       5.85259546       0.00000000 NULL
P        6.05404284      -1.29667452       2.88347296       0.00000000 NULL
P        3.20071480      -1.71422367       8.09850161       0.00000000 NULL
30
Lattice="9.11919554249818 0.0 0.0 0.0 10.175529578750252 1.5430482679680792e-16 0.0 -5.087764789375126 8.812267112157684" Properties=species:S:1:pos:R:3:initial_magmoms:R:1:castep_labels:S:1 n_minim_iter=3 pbc="T T T"
P        1.73630601       1.65612902       8.62317662       0.00000000 NULL
P        7.81576971       1.55206072       3.06642901       0.00000000 NULL
P        4.77603786      -3.20818973       5.93492860       0.00000000 NULL
P        0.06022262       4.87283151       2.09707129       0.00000000 NULL
P        6.13968631       4.46746605       3.54373560       0.00000000 NULL
P        3.09995446       5.92299682       3.17146023       0.00000000 NULL
P        7.09176809      -1.07719196       7.25629591       0.00000000 NULL
P        4.05203624       1.73496779       6.11699477       0.00000000 NULL
P        1.01230440      -0.65777582       4.25124356       0.00000000 NULL
P        2.25947669       0.15831958       0.88615520       0.00000000 NULL
P        8.33894038      -4.39949166       8.23208074       0.00000000 NULL
P        5.29920854       4.24117209       8.50629829       0.00000000 NULL
P        5.54265744       1.22551480       7.87472345       0.00000000 NULL
P        2.50292559       1.11918837       3.81357844       0.00000000 NULL
P        8.58238929      -2.34470317       5.93623234       0.00000000 NULL
P        4.00869918      -0.17288796       7.27325956       0.00000000 NULL
P        0.96896733       1.29750673       5.32536270       0.00000000 NULL
P        7.04843103      -1.12461877       5.02591198       0.00000000 NULL
P        8.00968798       0.80069719       5.03482045       0.00000000 NULL
P        4.96995613      -1.12783097       5.60143279       0.00000000 NULL
P        1.93022428       0.32713379       6.98828100       0.00000000 NULL
P        0.14243709      -0.82942400       7.28194566       0.00000000 NULL
P        6.22190078       1.63329714       5.88959654       0.00000000 NULL
P        3.18216894      -0.80387314       4.45299203       0.00000000 NULL
P        7.60854809       5.37733906       6.24441311       0.00000000 NULL
P        4.56881624       7.80691565       1.03314833       0.00000000 NULL
P        1.52908440       2.07903967       1.53470568       0.00000000 NULL
P        0.36956992       3.15444614       6.12845376       0.00000000 NULL
P        6.44903362      -1.35759122       3.01620975       0.00000000 NULL
P        3.40930177      -1.79685492       8.47987073       0.00000000 NULL
30
Lattice="9.389169346931347 0.0 0.0 0.0 10.29241973553343 -1.4590371220939827e-16 0.0 -5.146209867766715 8.913496957384263" Properties=species:S:1:pos:R:3:initial_magmoms:R:1:castep_labels:S:1 n_minim_iter=4 pbc="T T T"
P        1.78769739       1.67507800       8.72209638       0.00000000 NULL
P        8.04714362       1.56980817       3.10178867       0.00000000 NULL
P        4.91742050      -3.24488617       6.00310887       0.00000000 NULL
P        0.06243106       4.92816898       2.12120956       0.00000000 NULL
P        6.32187729       4.51914675       3.58497265       0.00000000 NULL
P        3.19215418       5.99131388       3.20731475       0.00000000 NULL
P        7.30136015      -1.09070961       7.34271943       0.00000000 NULL
P        4.17163703       1.75812650       6.18671948       0.00000000 NULL
P        1.04191392      -0.66741688       4.29755502       0.00000000 NULL
P        2.32574082       0.16137693       0.89694185       0.00000000 NULL
P        8.58518706      -4.45012390       8.32526952       0.00000000 NULL
P        5.45546394       4.28874698       8.60478255       0.00000000 NULL
P        5.70757069       1.24127604       7.96877240       0.00000000 NULL
P        2.57784757       1.13431145       3.85413418       0.00000000 NULL
P        8.83729381      -2.37558748       6.00408734       0.00000000 NULL
P        4.12849601      -0.17605153       7.35866575       0.00000000 NULL
P        0.99877289       1.31460737       5.38662918       0.00000000 NULL
P        7.25821913      -1.13855584       5.08169899       0.00000000 NULL
P        8.24568222       0.81142011       5.09090128       0.00000000 NULL
P        5.11595910      -1.14307009       5.66533589       0.00000000 NULL
P        1.98623599       0.33164998       7.07075675       0.00000000 NULL
P        0.14625929      -0.83953448       7.36866862       0.00000000 NULL
P        6.40570552       1.65501159       5.95622084       0.00000000 NULL
P        3.27598241      -0.81547711       4.50210447       0.00000000 NULL
P        7.83451701       5.43961470       6.31658889       0.00000000 NULL
P        4.70479390       7.89672897       1.04435801       0.00000000 NULL
P        1.57507078       2.10228595       1.55255007       0.00000000 NULL
P        0.37995215       3.19209210       6.19915373       0.00000000 NULL
P        6.63939838      -1.37363130       3.04948725       0.00000000 NULL
P        3.50967526      -1.81846079       8.57835294       0.00000000 NULL
30
Lattice="9.581154012463385 0.0 0.0 0.0 10.288805315280676 1.2235631317116904e-15 0.0 -5.144402657640339 8.910366777625425" Properties=species:S:1:pos:R:3:initial_magmoms:R:1:castep_labels:S:1 n_minim_iter=5 pbc="T T T"
P        1.82440153       1.67388937       8.71829275       0.00000000 NULL
P        8.21183754       1.56891566       3.10158969       0.00000000 NULL
P        5.01811953      -3.24280502       6.00085112       0.00000000 NULL
P        0.06418085       4.92548290       2.12044011       0.00000000 NULL
P        6.45161686       4.51801621       3.58455341       0.00000000 NULL
P        3.25789885       5.98970887       3.20537327       0.00000000 NULL
P        7.45106719      -1.09194037       7.34351511       0.00000000 NULL
P        4.25734918       1.76123817       6.18425733       0.00000000 NULL
P        1.06363118      -0.66929779       4.29296112       0.00000000 NULL
P        2.37202769       0.16366444       0.89778524       0.00000000 NULL
P        8.75946370      -4.44873005       8.31973660       0.00000000 NULL
P        5.56574570       4.28506562       8.60321172       0.00000000 NULL
P        5.82460422       1.24289160       7.96973011       0.00000000 NULL
P        2.63088622       1.13614028       3.84912603       0.00000000 NULL
P        9.01832223      -2.37903187       6.00187743       0.00000000 NULL
P        4.21435446      -0.17734300       7.35802208       0.00000000 NULL
P        1.02063645       1.31650289       5.38493929       0.00000000 NULL
P        7.40807246      -1.13915988       5.07777220       0.00000000 NULL
P        8.41266916       0.81311564       5.08686954       0.00000000 NULL
P        5.21895115      -1.14560223       5.66275322       0.00000000 NULL
P        2.02523315       0.33248660       7.07111081       0.00000000 NULL
P        0.14816170      -0.84004089       7.36944385       0.00000000 NULL
P        6.53559771       1.65774338       5.95314161       0.00000000 NULL
P        3.34187971      -0.81770247       4.49814810       0.00000000 NULL
P        7.99659894       5.43872201       6.31577040       0.00000000 NULL
P        4.80288094       7.89465927       1.04241016       0.00000000 NULL
P        1.60916293       2.09982671       1.55218622       0.00000000 NULL
P        0.38700274       3.19243381       6.19696100       0.00000000 NULL
P        6.77443875      -1.37389391       3.04715751       0.00000000 NULL
P        3.58072075      -1.81853989       8.57661506       0.00000000 NULL
30
Lattice="9.725911098264215 0.0 0.0 0.0 10.217092997589605 -3.32911074344922e-16 0.0 -5.1085464987948015 8.848262088740698" Properties=species:S:1:pos:R:3:initial_magmoms:R:1:castep_labels:S:1 n_minim_iter=6 pbc="T T T"
P        1.85208089       1.66130610       8.65640027       0.00000000 NULL
P        8.33602162       1.55746299       3.08132868       0.00000000 NULL
P        5.09405126      -3.21876908       5.95879524       0.00000000 NULL
P        0.06577787       4.88974003       2.10560281       0.00000000 NULL
P        6.54971861       4.48718201       3.56082161       0.00000000 NULL
P        3.30774824       5.94871747       3.18183768       0.00000000 NULL
P        7.56520803      -1.08669870       7.29676373       0.00000000 NULL
P        4.32323766       1.75398561       6.14098892       0.00000000 NULL
P        1.08126730      -0.66728690       4.25877154       0.00000000 NULL
P        2.40585068       0.16604809       0.89329556       0.00000000 NULL
P        8.88979141      -4.41795390       8.25781245       0.00000000 NULL
P        5.64782104       4.25190581       8.54541618       0.00000000 NULL
P        5.91255870       1.23701413       7.91914744       0.00000000 NULL
P        2.67058834       1.13112930       3.81740272       0.00000000 NULL
P        9.15452907      -2.36814342       5.95997403       0.00000000 NULL
P        4.28014301      -0.17757132       7.30919990       0.00000000 NULL
P        1.03817264       1.31019195       5.34744342       0.00000000 NULL
P        7.52211338      -1.13262063       5.03988087       0.00000000 NULL
P        8.53750818       0.81029416       5.04874982       0.00000000 NULL
P        5.29553781      -1.14134798       5.62215186       0.00000000 NULL
P        2.05356744       0.33105383       7.02562251       0.00000000 NULL
P        0.14814694      -0.83519372       7.32258875       0.00000000 NULL
P        6.63208767       1.65059824       5.91026670       0.00000000 NULL
P        3.39011731      -0.81540451       4.46366874       0.00000000 NULL
P        8.12068020       5.40252573       6.27396521       0.00000000 NULL
P        4.87870983       7.84069688       1.03255496       0.00000000 NULL
P        1.63673947       2.08241689       1.54174193       0.00000000 NULL
P        0.39173931       3.17215168       6.15361100       0.00000000 NULL
P        6.87568004      -1.36543889       3.02429266       0.00000000 NULL
P        3.63370967      -1.80671279       8.51862053       0.00000000 NULL
30
Lattice="9.922728019031341 0.0 0.0 0.0 10.11828153212779 1.0700010757993899e-15 0.0 -5.059140766063895 8.762688849465597" Properties=species:S:1:pos:R:3:initial_magmoms:R:1:castep_labels:S:1 n_minim_iter=7 pbc="T T T"
P        1.88932329       1.64408839       8.57105362       0.00000000 NULL
P        8.50447531       1.54156521       3.05333974       0.00000000 NULL
P        5.19689930      -3.18565359       5.90098435       0.00000000 NULL
P        0.06875144       4.83907625       2.08528852       0.00000000 NULL
P        6.68390345       4.44551548       3.52928163       0.00000000 NULL
P        3.37632744       5.89283058       3.14811870       0.00000000 NULL
P        7.72317888      -1.08174972       7.23632743       0.00000000 NULL
P        4.41560288       1.74857748       6.08134788       0.00000000 NULL
P        1.10802687      -0.66682775       4.20770240       0.00000000 NULL
P        2.45004730       0.17178030       0.88846023       0.00000000 NULL
P        9.06519931      -4.37560178       8.16969264       0.00000000 NULL
P        5.75762330       4.20382149       8.46722484       0.00000000 NULL
P        6.03148187       1.23129635       7.85447904       0.00000000 NULL
P        2.72390587       1.12738944       3.76911542       0.00000000 NULL
P        9.33905788      -2.35868578       5.90178325       0.00000000 NULL
P        4.37173871      -0.17809333       7.24411191       0.00000000 NULL
P        1.06416270       1.30349084       5.29486625       0.00000000 NULL
P        7.67931472      -1.12539751       4.98639955       0.00000000 NULL
P        8.70551655       0.80924135       4.99577818       0.00000000 NULL
P        5.39794054      -1.13729063       5.56397620       0.00000000 NULL
P        2.09036453       0.32804928       6.96562333       0.00000000 NULL
P        0.14500955      -0.82860479       7.26230424       0.00000000 NULL
P        6.76016156       1.64450159       5.84912953       0.00000000 NULL
P        3.45258556      -0.81589680       4.41394393       0.00000000 NULL
P        8.29285238       5.35428785       6.21738746       0.00000000 NULL
P        4.98527637       7.76641233       1.01704582       0.00000000 NULL
P        1.67770036       2.05672212       1.52825557       0.00000000 NULL
P        0.39667138       3.14632257       6.09394356       0.00000000 NULL
P        7.01182339      -1.35479212       2.99092181       0.00000000 NULL
P        3.70424739      -1.79153044       8.44051234       0.00000000 NULL
30
Lattice="9.963967695238049 0.0 0.0 0.0 10.14150116601561 5.121091651027357e-16 0.0 -5.070750583007804 8.782797642279023" Properties=species:S:1:pos:R:3:initial_magmoms:R:1:castep_labels:S:1 n_minim_iter=8 pbc="T T T"
P        1.89606781       1.64862861       8.59103457       0.00000000 NULL
P        8.53871294       1.54498929       3.05952611       0.00000000 NULL
P        5.21739038      -3.19361790       5.91503462       0.00000000 NULL
P        0.07121233       4.84614217       2.09040261       0.00000000 NULL
P        6.71385746       4.45802126       3.54071411       0.00000000 NULL
P        3.39253489       5.90808832       3.15168093       0.00000000 NULL
P        7.76297787      -1.09087095       7.26439766       0.00000000 NULL
P        4.44165530       1.76583781       6.09532078       0.00000000 NULL
P        1.12033274      -0.67496685       4.20587685       0.00000000 NULL
P        2.45596915       0.17870870       0.89422326       0.00000000 NULL
P        9.09861428      -4.38568487       8.18091974       0.00000000 NULL
P        5.77729171       4.20697618       8.49045229       0.00000000 NULL
P        6.05485063       1.24127332       7.88648842       0.00000000 NULL
P        2.73352807       1.13851208       3.76457921       0.00000000 NULL
P        9.37617320      -2.37978539       5.91452766       0.00000000 NULL
P        4.39568870      -0.17930543       7.26695940       0.00000000 NULL
P        1.07436614       1.31227358       5.30460100       0.00000000 NULL
P        7.71701127      -1.13296814       4.99403489       0.00000000 NULL
P        8.73695061       0.81913396       5.00627579       0.00000000 NULL
P        5.41562805      -1.14475555       5.57026893       0.00000000 NULL
P        2.09430548       0.32562160       6.98905057       0.00000000 NULL
P        0.13736917      -0.83124761       7.29128584       0.00000000 NULL
P        6.78001430       1.65931199       5.85703628       0.00000000 NULL
P        3.45869173      -0.82806437       4.41727317       0.00000000 NULL
P        8.33600130       5.37123297       6.23399233       0.00000000 NULL
P        5.01467873       7.78392983       1.01417728       0.00000000 NULL
P        1.69335617       2.05708896       1.53462804       0.00000000 NULL
P        0.39403699       3.15974712       6.10804446       0.00000000 NULL
P        7.03668212      -1.36090247       2.99235414       0.00000000 NULL
P        3.71535956      -1.79884464       8.46519669       0.00000000 NULL
30
Lattice="9.916474644733038 0.0 0.0 0.0 10.06208928488796 1.1108355317568514e-15 0.0 -5.03104464244398 8.714024935860168" Properties=species:S:1:pos:R:3:initial_magmoms:R:1:castep_labels:S:1 n_minim_iter=9 pbc="T T T"
P        1.88658135       1.63606853       8.52387021       0.00000000 NULL
P        8.49756445       1.53280923       3.03521293       0.00000000 NULL
P        5.19207290      -3.16887775       5.86896674       0.00000000 NULL
P        0.07191591       4.80611966       2.07427054       0.00000000 NULL
P        6.68289901       4.42435580       3.51466795       0.00000000 NULL
P        3.37740746       5.86265847       3.12508645       0.00000000 NULL
P        7.73049039      -1.08586630       7.21264492       0.00000000 NULL
P        4.42499884       1.75822224       6.04809028       0.00000000 NULL
P        1.11950729      -0.67235593       4.16731468       0.00000000 NULL
P        2.44225768       0.18028864       0.88904749       0.00000000 NULL
P        9.05324078      -4.35125125       8.11336665       0.00000000 NULL
P        5.74774923       4.17096262       8.42563574       0.00000000 NULL
P        6.02504083       1.23534825       7.83067270       0.00000000 NULL
P        2.71954929       1.13284272       3.72884562       0.00000000 NULL
P        9.33053238      -2.36819096       5.86853156       0.00000000 NULL
P        4.37771879      -0.17815553       7.21280759       0.00000000 NULL
P        1.07222724       1.30450773       5.26190837       0.00000000 NULL
P        7.68321034      -1.12635219       4.95333393       0.00000000 NULL
P        8.69258511       0.81651660       4.96675512       0.00000000 NULL
P        5.38709357      -1.13796683       5.52352326       0.00000000 NULL
P        2.08160202       0.32145024       6.93777149       0.00000000 NULL
P        0.13206464      -0.82571896       7.23981247       0.00000000 NULL
P        6.74304774       1.65167636       5.80921230       0.00000000 NULL
P        3.43755619      -0.82595739       4.37902511       0.00000000 NULL
P        8.30067564       5.33169605       6.18607919       0.00000000 NULL
P        4.99518410       7.72249835       1.00360113       0.00000000 NULL
P        1.68969255       2.03893954       1.52434463       0.00000000 NULL
P        0.38998571       3.13795755       6.06002350       0.00000000 NULL
P        7.00096880      -1.35188912       2.96646224       0.00000000 NULL
P        3.69547725      -1.78606842       8.40156415       0.00000000 NULL
30
Lattice="9.944874936451306 0.0 0.0 0.0 10.105497486974683 1.0793132658655123e-15 0.0 -5.052748743487341 8.751617541599877" Properties=species:S:1:pos:R:3:initial_magmoms:R:1:castep_labels:S:1 n_minim_iter=10 pbc="T T T"
P        1.89159891       1.64367066       8.56109761       0.00000000 NULL
P        8.52151553       1.53954394       3.04760819       0.00000000 NULL
P        5.20655722      -3.18321460       5.89452929       0.00000000 NULL
P        0.07270574       4.82590082       2.08327041       0.00000000 NULL
P        6.70262236       4.44396343       3.53062964       0.00000000 NULL
P        3.38766405       5.88838199       3.13771750       0.00000000 NULL
P        7.75428934      -1.09214715       7.24640343       0.00000000 NULL
P        4.43933103       1.76889429       6.07424301       0.00000000 NULL
P        1.12437272      -0.67674713       4.18258865       0.00000000 NULL
P        2.44866545       0.18186843       0.89348525       0.00000000 NULL
P        9.07858207      -4.36990204       8.14737224       0.00000000 NULL
P        5.76362376       4.18803361       8.46237760       0.00000000 NULL
P        6.04206102       1.24242974       7.86749671       0.00000000 NULL
P        2.72710270       1.13948840       3.74189348       0.00000000 NULL
P        9.35701933      -2.38191814       5.89384490       0.00000000 NULL
P        4.39158882      -0.17895663       7.24522154       0.00000000 NULL
P        1.07663051       1.31127548       5.28398776       0.00000000 NULL
P        7.70654714      -1.13231885       4.97402579       0.00000000 NULL
P        8.71650261       0.82181105       4.98844564       0.00000000 NULL
P        5.40154430      -1.14353361       5.54568548       0.00000000 NULL
P        2.08658599       0.32172257       6.96910397       0.00000000 NULL
P        0.13053321      -0.82960047       7.27381741       0.00000000 NULL
P        6.76044983       1.66136216       5.83316392       0.00000000 NULL
P        3.44549152      -0.83176168       4.39625376       0.00000000 NULL
P        8.32599542       5.35557117       6.21248381       0.00000000 NULL
P        5.01103710       7.75513196       1.00731496       0.00000000 NULL
P        1.69607879       2.04754311       1.53181878       0.00000000 NULL
P        0.39007480       3.15305509       6.08624164       0.00000000 NULL
P        7.01999142      -1.35843641       2.97787092       0.00000000 NULL
P        3.70503311      -1.79461867       8.43912253       0.00000000 NULL
30
Lattice="9.942243623023597 0.0 0.0 0.0 10.098372297807343 3.4782087002770045e-16 0.0 -5.0491861489036705 8.74544694677419" Properties=species:S:1:pos:R:3:initial_magmoms:R:1:castep_labels:S:1 n_minim_iter=11 pbc="T T T"
P        1.89083670       1.64283773       8.55528995       0.00000000 NULL
P        8.51899911       1.53849342       3.04506277       0.00000000 NULL
P        5.20491790      -3.18133115       5.89054118       0.00000000 NULL
P        0.07317942       4.82160718       2.08188276       0.00000000 NULL
P        6.70134183       4.44134592       3.52887127       0.00000000 NULL
P        3.38726062       5.88460535       3.13469293       0.00000000 NULL
P        7.75399076      -1.09289381       7.24351796       0.00000000 NULL
P        4.43990955       1.77033132       6.07016177       0.00000000 NULL
P        1.12582834      -0.67743751       4.17721417       0.00000000 NULL
P        2.44736945       0.18265772       0.89349741       0.00000000 NULL
P        9.07553187      -4.36672356       8.14051202       0.00000000 NULL
P        5.76145066       4.18406584       8.45688447       0.00000000 NULL
P        6.04015735       1.24319697       7.86445639       0.00000000 NULL
P        2.72607614       1.14003438       3.73657860       0.00000000 NULL
P        9.35423855      -2.38323135       5.88985891       0.00000000 NULL
P        4.39167951      -0.17888800       7.24123252       0.00000000 NULL
P        1.07759830       1.31134917       5.27975225       0.00000000 NULL
P        7.70576072      -1.13246116       4.96990914       0.00000000 NULL
P        8.71312446       0.82281452       4.98500722       0.00000000 NULL
P        5.39904325      -1.14345052       5.54036507       0.00000000 NULL
P        2.08496204       0.32063601       6.96552162       0.00000000 NULL
P        0.12860407      -0.82946127       7.27107511       0.00000000 NULL
P        6.75676649       1.66248024       5.82824393       0.00000000 NULL
P        3.44268528      -0.83301897       4.39157487       0.00000000 NULL
P        8.32540685       5.35273134       6.20807088       0.00000000 NULL
P        5.01132564       7.74916757       1.00581019       0.00000000 NULL
P        1.69724443       2.04565954       1.53156588       0.00000000 NULL
P        0.38903976       3.15215275       6.08190868       0.00000000 NULL
P        7.01720218      -1.35817510       2.97464826       0.00000000 NULL
P        3.70312097      -1.79397764       8.43433697       0.00000000 NULL
30
Lattice="9.944160566990671 0.0 0.0 0.0 10.086640880005334 1.7648341591284846e-15 0.0 -5.043320440002667 8.735287240935241" Properties=species:S:1:pos:R:3:initial_magmoms:R:1:castep_labels:S:1 n_minim_iter=12 pbc="T T T"
P        1.89008839       1.64239098       8.54642135       0.00000000 NULL
P        8.51952877       1.53690208       3.03972426       0.00000000 NULL
P        5.20480858      -3.17929304       5.88442888       0.00000000 NULL
P        0.07523212       4.81239561       2.07977449       0.00000000 NULL
P        6.70467250       4.43826018       3.52774315       0.00000000 NULL
P        3.38995231       5.87930554       3.12776960       0.00000000 NULL
P        7.76243975      -1.09777059       7.24407533       0.00000000 NULL
P        4.44771956       1.77911811       6.06394680       0.00000000 NULL
P        1.13299937      -0.68134752       4.16255236       0.00000000 NULL
P        2.44540928       0.18582825       0.89492933       0.00000000 NULL
P        9.07484966      -4.36120303       8.12689060       0.00000000 NULL
P        5.76012947       4.17537479       8.44875457       0.00000000 NULL
P        6.04017369       1.24842416       7.86535911       0.00000000 NULL
P        2.72545350       1.14406828       3.72144065       0.00000000 NULL
P        9.35489388      -2.39249243       5.88377473       0.00000000 NULL
P        4.39757503      -0.17886310       7.23727072       0.00000000 NULL
P        1.08285484       1.31377141       5.27155188       0.00000000 NULL
P        7.71229522      -1.13490830       4.96175189       0.00000000 NULL
P        8.71053000       0.82821443       4.97972091       0.00000000 NULL
P        5.39580981      -1.14486285       5.52817205       0.00000000 NULL
P        2.08108962       0.31664842       6.96268153       0.00000000 NULL
P        0.12103878      -0.83035106       7.27222865       0.00000000 NULL
P        6.75047916       1.66978985       5.81827804       0.00000000 NULL
P        3.43575897      -0.83943878       4.38006780       0.00000000 NULL
P        8.33330221       5.35017644       6.20034307       0.00000000 NULL
P        5.01858202       7.73788683       1.00172700       0.00000000 NULL
P        1.70386183       2.04189806       1.53321718       0.00000000 NULL
P        0.38534097       3.15386657       6.07469057       0.00000000 NULL
P        7.01478135      -1.35941737       2.96661339       0.00000000 NULL
P        3.70006116      -1.79444920       8.42927053       0.00000000 NULL
30