24
Lattice="5.618490000000001 0.0 -4.837848690083299e-16 0.0 9.22487 0.0 -0.7244882495194609 0.0 9.787883718756994" Properties=species:S:1:pos:R:3:initial_magmoms:R:1:castep_labels:S:1 n_minim_iter=1 pbc="T T T"
P        1.75873131       1.53784948       3.94406787       0.00000000 NULL
P        1.75873131       7.68702052       3.94406787       0.00000000 NULL
P        1.63590697       5.61487856       6.46996243       0.00000000 NULL
P        1.63590697       3.60999144       6.46996243       0.00000000 NULL
P        3.93593661       5.62016533       6.86480859       0.00000000 NULL
P        3.93593661       3.60470467       6.86480859       0.00000000 NULL
P        4.91317397       7.44452544       8.29974758       0.00000000 NULL
P        4.91317397       1.78034456       8.29974758       0.00000000 NULL
P        2.17383670       7.43412993       0.80687202       0.00000000 NULL
P        2.17383670       1.79074007       0.80687202       0.00000000 NULL
P        2.51545084       3.53164093       8.30660106       0.00000000 NULL
P        2.51545084       5.69322907       8.30660106       0.00000000 NULL
P        0.18803408       5.61375313       8.18653994       0.00000000 NULL
P        0.18803408       3.61111687       8.18653994       0.00000000 NULL
P        4.86523331       1.00091869       5.32123192       0.00000000 NULL
P        4.86523331       8.22395131       5.32123192       0.00000000 NULL
P        2.96572770       7.40872095       6.89241825       0.00000000 NULL
P        2.96572770       1.81614905       6.89241825       0.00000000 NULL
P       -0.03973268       6.72655104       6.53069135       0.00000000 NULL
P       -0.03973268       2.49831896       6.53069135       0.00000000 NULL
P        2.12161171       5.79849683       4.53211903       0.00000000 NULL
P        2.12161171       3.42637317       4.53211903       0.00000000 NULL
P        4.24139099       5.62060997       4.33201554       0.00000000 NULL
P        4.24139099       3.60426003       4.33201554       0.00000000 NULL
24
Lattice="5.658278515400478 0.0 -0.0002996988088147834 0.0 9.311307263525965 0.0 -0.7301409656344306 0.0 9.856281125026552" Properties=species:S:1:pos:R:3:initial_magmoms:R:1:castep_labels:S:1 n_minim_iter=2 pbc="T T T"
P        1.77087701       1.55205855       3.97145506       0.00000000 NULL
P        1.77087701       7.75924872       3.97145506       0.00000000 NULL
P        1.64712175       5.66757032       6.51499516       0.00000000 NULL
P        1.64712175       3.64373695       6.51499516       0.00000000 NULL
P        3.96368327       5.67274595       6.91228012       0.00000000 NULL
P        3.96368327       3.63856131       6.91228012       0.00000000 NULL
P        4.94746141       7.51470486       8.35792121       0.00000000 NULL
P        4.94746141       1.79660241       8.35792121       0.00000000 NULL
P        2.18916911       7.50374236       0.81234175       0.00000000 NULL
P        2.18916911       1.80756490       0.81234175       0.00000000 NULL
P        2.53272404       3.56455002       8.36516288       0.00000000 NULL
P        2.53272404       5.74675724       8.36516288       0.00000000 NULL
P        0.18893319       5.66617190       8.24423278       0.00000000 NULL
P        0.18893319       3.64513537       8.24423278       0.00000000 NULL
P        4.89938171       1.01035857       5.35791019       0.00000000 NULL
P        4.89938171       8.30094870       5.35791019       0.00000000 NULL
P        2.98616313       7.47853056       6.94041511       0.00000000 NULL
P        2.98616313       1.83277670       6.94041511       0.00000000 NULL
P       -0.04008218       6.79002300       6.57580183       0.00000000 NULL
P       -0.04008218       2.52128427       6.57580183       0.00000000 NULL
P        2.13631523       5.85280171       4.56324497       0.00000000 NULL
P        2.13631523       3.45850556       4.56324497       0.00000000 NULL
P        4.27127655       5.67351762       4.36192928       0.00000000 NULL
P        4.27127655       3.63778964       4.36192928       0.00000000 NULL
24
Lattice="6.009238516322961 0.0 -0.0006206635426807515 0.0 10.061659125977263 0.0 -0.7759554037152282 0.0 10.445062868194665" Properties=species:S:1:pos:R:3:initial_magmoms:R:1:castep_labels:S:1 n_minim_iter=3 pbc="T T T"
P        1.87963409       1.67536786       4.20808530       0.00000000 NULL
P        1.87963409       8.38629127       4.20808530       0.00000000 NULL
P        1.74878355       6.12477441       6.90344877       0.00000000 NULL
P        1.74878355       3.93688471       6.90344877       0.00000000 NULL
P        4.21113482       6.12921839       7.32263658       0.00000000 NULL
P        4.21113482       3.93244074       7.32263658       0.00000000 NULL
P        5.25343021       8.12415557       8.86111081       0.00000000 NULL
P        5.25343021       1.93750355       8.86111081       0.00000000 NULL
P        2.32476525       8.10796845       0.86025823       0.00000000 NULL
P        2.32476525       1.95369067       0.86025823       0.00000000 NULL
P        2.68861988       3.85014573       8.87083415       0.00000000 NULL
P        2.68861988       6.21151340       8.87083415       0.00000000 NULL
P        0.20007289       6.12122907       8.74133025       0.00000000 NULL
P        0.20007289       3.94043005       8.74133025       0.00000000 NULL
P        5.20277128       1.09225603       5.67556118       0.00000000 NULL
P        5.20277128       8.96940310       5.67556118       0.00000000 NULL
P        3.16925092       8.08473798       7.35501351       0.00000000 NULL
P        3.16925092       1.97692115       7.35501351       0.00000000 NULL
P       -0.04039546       7.34129247       6.96423502       0.00000000 NULL
P       -0.04039546       2.72036666       6.96423502       0.00000000 NULL
P        2.26794090       6.32436904       4.83187149       0.00000000 NULL
P        2.26794090       3.73729008       4.83187149       0.00000000 NULL
P        4.53660662       6.13275145       4.62130988       0.00000000 NULL
P        4.53660662       3.92890768       4.62130988       0.00000000 NULL
24
Lattice="6.199569833838728 0.0 0.025945734969007074 0.0 10.366936586206744 0.0 -0.7542171757566788 0.0 10.75506751677588" Properties=species:S:1:pos:R:3:initial_magmoms:R:1:castep_labels:S:1 n_minim_iter=4 pbc="T T T"
P        1.95735542       1.72637666       4.34315165       0.00000000 NULL
P        1.95735542       8.64055993       4.34315165       0.00000000 NULL
P        1.83526114       6.30960897       7.11716120       0.00000000 NULL
P        1.83526114       4.05732762       7.11716120       0.00000000 NULL
P        4.37809181       6.31519715       7.55904243       0.00000000 NULL
P        4.37809181       4.05173944       7.55904243       0.00000000 NULL
P        5.45897883       8.37321374       9.15189731       0.00000000 NULL
P        5.45897883       1.99372284       9.15189731       0.00000000 NULL
P        2.40235556       8.35389544       0.89605525       0.00000000 NULL
P        2.40235556       2.01304114       0.89605525       0.00000000 NULL
P        2.81370067       3.96588528       9.15252862       0.00000000 NULL
P        2.81370067       6.40105131       9.15252862       0.00000000 NULL
P        0.24349152       6.30697942       9.00772378       0.00000000 NULL
P        0.24349152       4.05995717       9.00772378       0.00000000 NULL
P        5.39199647       1.12493555       5.86726165       0.00000000 NULL
P        5.39199647       9.24200104       5.86726165       0.00000000 NULL
P        3.30199550       8.33224537       7.59046289       0.00000000 NULL
P        3.30199550       2.03469122       7.59046289       0.00000000 NULL
P       -0.00921155       7.56689223       7.17125150       0.00000000 NULL
P       -0.00921155       2.80004436       7.17125150       0.00000000 NULL
P        2.36139501       6.51733745       4.98379124       0.00000000 NULL
P        2.36139501       3.84959914       4.98379124       0.00000000 NULL
P        4.69997329       6.31851383       4.78040597       0.00000000 NULL
P        4.69997329       4.04842276       4.78040597       0.00000000 NULL
24
Lattice="6.313536491627718 0.0 0.06632982844682805 0.0 10.454467473507469 0.0 -0.6985603521896365 0.0 10.988590811461926" Properties=species:S:1:pos:R:3:initial_magmoms:R:1:castep_labels:S:1 n_minim_iter=5 pbc="T T T"
P        2.02137275       1.74293900       4.45336017       0.00000000 NULL
P        2.02137275       8.71152847       4.45336017       0.00000000 NULL
P        1.91589757       6.36222158       7.28467221       0.00000000 NULL
P        1.91589757       4.09224590       7.28467221       0.00000000 NULL
P        4.50846381       6.36917954       7.75230227       0.00000000 NULL
P        4.50846381       4.08528793       7.75230227       0.00000000 NULL
P        5.61783655       8.44600830       9.38976424       0.00000000 NULL
P        5.61783655       2.00845918       9.38976424       0.00000000 NULL
P        2.45252284       8.42462912       0.93092775       0.00000000 NULL
P        2.45252284       2.02983836       0.93092775       0.00000000 NULL
P        2.92561728       3.99832928       9.37634448       0.00000000 NULL
P        2.92561728       6.45613820       9.37634448       0.00000000 NULL
P        0.30370162       6.36117625       9.21287624       0.00000000 NULL
P        0.30370162       4.09329122       9.21287624       0.00000000 NULL
P        5.52729729       1.13338047       6.03031641       0.00000000 NULL
P        5.52729729       9.32108700       6.03031641       0.00000000 NULL
P        3.41271213       8.40373793       7.78146698       0.00000000 NULL
P        3.41271213       2.05072955       7.78146698       0.00000000 NULL
P        0.03825688       7.63395096       7.32909269       0.00000000 NULL
P        0.03825688       2.82051651       7.32909269       0.00000000 NULL
P        2.43799658       6.57403033       5.10576427       0.00000000 NULL
P        2.43799658       3.88043714       5.10576427       0.00000000 NULL
P        4.81474416       6.37004472       4.91785386       0.00000000 NULL
P        4.81474416       4.08442276       4.91785386       0.00000000 NULL
24
Lattice="6.348193090835721 0.0 0.1090703256451642 0.0 10.381306832510957 0.0 -0.6285716687952247 0.0 11.1108724705142" Properties=species:S:1:pos:R:3:initial_magmoms:R:1:castep_labels:S:1 n_minim_iter=6 pbc="T T T"
P        2.06275989       1.73367456       4.52027174       0.00000000 NULL
P        2.06275989       8.64763228       4.52027174       0.00000000 NULL
P        1.97673898       6.31788771       7.37920543       0.00000000 NULL
P        1.97673898       4.06341913       7.37920543       0.00000000 NULL
P        4.58578687       6.32604470       7.86929614       0.00000000 NULL
P        4.58578687       4.05526214       7.86929614       0.00000000 NULL
P        5.71069285       8.38824168       9.53410545       0.00000000 NULL
P        5.71069285       1.99306516       9.53410545       0.00000000 NULL
P        2.47238972       8.36606396       0.95763994       0.00000000 NULL
P        2.47238972       2.01524287       0.95763994       0.00000000 NULL
P        3.00569224       3.96944943       9.50604157       0.00000000 NULL
P        3.00569224       6.41185740       9.50604157       0.00000000 NULL
P        0.36456002       6.31843445       9.32528701       0.00000000 NULL
P        0.36456002       4.06287239       9.32528701       0.00000000 NULL
P        5.59556963       1.12418373       6.13534136       0.00000000 NULL
P        5.59556963       9.25712310       6.13534136       0.00000000 NULL
P        3.48514796       8.34493263       7.89602867       0.00000000 NULL
P        3.48514796       2.03637420       7.89602867       0.00000000 NULL
P        0.08851376       7.58371211       7.41370405       0.00000000 NULL
P        0.08851376       2.79759472       7.41370405       0.00000000 NULL
P        2.48733687       6.52995898       5.17741211       0.00000000 NULL
P        2.48733687       3.85134785       5.17741211       0.00000000 NULL
P        4.87034976       6.32290421       5.00861883       0.00000000 NULL
P        4.87034976       4.05840262       5.00861883       0.00000000 NULL
24
Lattice="6.367332000783423 0.0 0.20571109382189431 0.0 10.241993655421561 0.0 -0.4626832030260477 0.0 11.281712375721627" Properties=species:S:1:pos:R:3:initial_magmoms:R:1:castep_labels:S:1 n_minim_iter=7 pbc="T T T"
P        2.13814533       1.71627586       4.62927356       0.00000000 NULL
P        2.13814533       8.52571779       4.62927356       0.00000000 NULL
P        2.09750933       6.23492499       7.52317701       0.00000000 NULL
P        2.09750933       4.00706867       7.52317701       0.00000000 NULL
P        4.71857247       6.24500479       8.05992723       0.00000000 NULL
P        4.71857247       3.99698887       8.05992723       0.00000000 NULL
P        5.86896514       8.27836617       9.77017006       0.00000000 NULL
P        5.86896514       1.96362748       9.77017006       0.00000000 NULL
P        2.49441111       8.25459612       1.00949388       0.00000000 NULL
P        2.49441111       1.98739754       1.00949388       0.00000000 NULL
P        3.15970568       3.91419134       9.70869148       0.00000000 NULL
P        3.15970568       6.32780231       9.70869148       0.00000000 NULL
P        0.50142087       6.23802058       9.49051125       0.00000000 NULL
P        0.50142087       4.00397307       9.49051125       0.00000000 NULL
P        5.69852647       1.10668272       6.31548949       0.00000000 NULL
P        5.69852647       9.13531094       6.31548949       0.00000000 NULL
P        3.61709284       8.23259988       8.08038111       0.00000000 NULL
P        3.61709284       2.00939377       8.08038111       0.00000000 NULL
P        0.20212332       7.48857287       7.53501556       0.00000000 NULL
P        0.20212332       2.75342078       7.53501556       0.00000000 NULL
P        2.57669064       6.44618361       5.29193571       0.00000000 NULL
P        2.57669064       3.79581005       5.29193571       0.00000000 NULL
P        4.95132408       6.23325693       5.16687493       0.00000000 NULL
P        4.95132408       4.00873673       5.16687493       0.00000000 NULL
24
Lattice="6.349810460049885 0.0 0.3144593996873586 0.0 10.264337449779324 0.0 -0.27097512437895366 0.0 11.32702808707889" Properties=species:S:1:pos:R:3:initial_magmoms:R:1:castep_labels:S:1 n_minim_iter=8 pbc="T T T"
P        2.21085434       1.72484403       4.69294453       0.00000000 NULL
P        2.21085434       8.53949342       4.69294453       0.00000000 NULL
P        2.22236871       6.25268612       7.58826426       0.00000000 NULL
P        2.22236871       4.01165133       7.58826426       0.00000000 NULL
P        4.83993624       6.26358801       8.17107526       0.00000000 NULL
P        4.83993624       4.00074944       8.17107526       0.00000000 NULL
P        6.01322020       8.29969664       9.91104417       0.00000000 NULL
P        6.01322020       1.96464081       9.91104417       0.00000000 NULL
P        2.50382140       8.27316606       1.05539772       0.00000000 NULL
P        2.50382140       1.99117139       1.05539772       0.00000000 NULL
P        3.31453634       3.92024115       9.81152932       0.00000000 NULL
P        3.31453634       6.34409630       9.81152932       0.00000000 NULL
P        0.65664191       6.25686685       9.55300465       0.00000000 NULL
P        0.65664191       4.00747060       9.55300465       0.00000000 NULL
P        5.78066204       1.10755472       6.43847080       0.00000000 NULL
P        5.78066204       9.15678273       6.43847080       0.00000000 NULL
P        3.74327450       8.25048495       8.18315613       0.00000000 NULL
P        3.74327450       2.01385250       8.18315613       0.00000000 NULL
P        0.33000550       7.51211643       7.57415614       0.00000000 NULL
P        0.33000550       2.75222102       7.57415614       0.00000000 NULL
P        2.66246030       6.46379575       5.35558640       0.00000000 NULL
P        2.66246030       3.80054170       5.35558640       0.00000000 NULL
P        5.01348006       6.24372781       5.27898280       0.00000000 NULL
P        5.01348006       4.02060964       5.27898280       0.00000000 NULL
24
Lattice="6.306764674343637 2.22695246239025e-19 0.4440182373221906 0.0 10.231600586741367 7.269043819747978e-18 -0.03972206467028464 8.021624767827829e-18 11.30975602733482" Properties=species:S:1:pos:R:3:initial_magmoms:R:1:castep_labels:S:1 n_minim_iter=9 pbc="T T T"
P        2.29037824       1.72492533       4.74083305       0.00000000 NULL
P        2.29037824       8.50667526       4.74083305       0.00000000 NULL
P        2.36402674       6.23748007       7.62004975       0.00000000 NULL
P        2.36402674       3.99412052       7.62004975       0.00000000 NULL
P        4.96828235       6.24896548       8.25182754       0.00000000 NULL
P        4.96828235       3.98263511       8.25182754       0.00000000 NULL
P        6.16610977       8.27706184      10.01907540       0.00000000 NULL
P        6.16610977       1.95453875      10.01907540       0.00000000 NULL
P        2.50619826       8.24726744       1.10347802       0.00000000 NULL
P        2.50619826       1.98433315       1.10347802       0.00000000 NULL
P        3.48834953       3.90498761       9.87447217       0.00000000 NULL
P        3.48834953       6.32661298       9.87447217       0.00000000 NULL
P        0.84256558       6.24292512       9.56755437       0.00000000 NULL
P        0.84256558       3.98867547       9.56755437       0.00000000 NULL
P        5.85976709       1.10289104       6.54652798       0.00000000 NULL
P        5.85976709       9.12870954       6.54652798       0.00000000 NULL
P        3.88134689       8.22432223       8.25425403       0.00000000 NULL
P        3.88134689       2.00727836       8.25425403       0.00000000 NULL
P        0.48239545       7.49689292       7.57311278       0.00000000 NULL
P        0.48239545       2.73470767       7.57311278       0.00000000 NULL
P        2.75585941       6.44717817       5.39935600       0.00000000 NULL
P        2.75585941       3.78442242       5.39935600       0.00000000 NULL
P        5.07175557       6.22040223       5.38018512       0.00000000 NULL
P        5.07175557       4.01119836       5.38018512       0.00000000 NULL
24
Lattice="6.328018024492171 2.2408563732778895e-19 0.4940422723550935 5.432200567126068e-20 10.29548127804417 7.300620384945174e-18 0.04468346699383596 8.071707541407218e-18 11.358582437306982" Properties=species:S:1:pos:R:3:initial_magmoms:R:1:castep_labels:S:1 n_minim_iter=10 pbc="T T T"
P        2.33256040       1.73727187       4.78194715       0.00000000 NULL
P        2.33256040       8.55820941       4.78194715       0.00000000 NULL
P        2.42955393       6.27815512       7.66937277       0.00000000 NULL
P        2.42955393       4.01732616       7.66937277       0.00000000 NULL
P        5.04434985       6.28972308       8.32061295       0.00000000 NULL
P        5.04434985       4.00575820       8.32061295       0.00000000 NULL
P        6.25840121       8.33063865      10.10871424       0.00000000 NULL
P        6.25840121       1.96484263      10.10871424       0.00000000 NULL
P        2.52174613       8.29876360       1.12613659       0.00000000 NULL
P        2.52174613       1.99671768       1.12613659       0.00000000 NULL
P        3.57210725       3.92813234       9.94739761       0.00000000 NULL
P        3.57210725       6.36734894       9.94739761       0.00000000 NULL
P        0.91617395       6.28400722       9.62013670       0.00000000 NULL
P        0.91617395       4.01147406       9.62013670       0.00000000 NULL
P        5.92337318       1.10991235       6.61823287       0.00000000 NULL
P        5.92337318       9.18556893       6.61823287       0.00000000 NULL
P        3.95402469       8.27643971       8.32024725       0.00000000 NULL
P        3.95402469       2.01904157       8.32024725       0.00000000 NULL
P        0.54118139       7.54731374       7.60910273       0.00000000 NULL
P        0.54118139       2.74816754       7.60910273       0.00000000 NULL
P        2.80603787       6.48878445       5.44175897       0.00000000 NULL
P        2.80603787       3.80669683       5.44175897       0.00000000 NULL
P        5.12341099       6.25851700       5.44359923       0.00000000 NULL
P        5.12341099       4.03696427       5.44359923       0.00000000 NULL
24
Lattice="6.315714010064992 2.234331484860932e-19 0.5250956398190898 8.983297924607992e-20 10.272298799882217 7.295853020338456e-18 0.10036762122172296 8.053241063962997e-18 11.35138109144524" Properties=species:S:1:pos:R:3:initial_magmoms:R:1:castep_labels:S:1 n_minim_iter=11 pbc="T T T"
P        2.35078047       1.73455070       4.79239462       0.00000000 NULL
P        2.35078047       8.53774810       4.79239462       0.00000000 NULL
P        2.46264330       6.26509728       7.67548339       0.00000000 NULL
P        2.46264330       4.00720152       7.67548339       0.00000000 NULL
P        5.07357061       6.27666463       8.33700875       0.00000000 NULL
P        5.07357061       3.99563417       8.33700875       0.00000000 NULL
P        6.29359543       8.31280964      10.13252370       0.00000000 NULL
P        6.29359543       1.95948916      10.13252370       0.00000000 NULL
P        2.52145582       8.28009028       1.13703404       0.00000000 NULL
P        2.52145582       1.99220852       1.13703404       0.00000000 NULL
P        3.61256710       3.91866537       9.96054704       0.00000000 NULL
P        3.61256710       6.35363343       9.96054704       0.00000000 NULL
P        0.96123161       6.27125874       9.62108910       0.00000000 NULL
P        0.96123161       4.00104006       9.62108910       0.00000000 NULL
P        5.94092722       1.10749663       6.64260216       0.00000000 NULL
P        5.94092722       9.16480217       6.64260216       0.00000000 NULL
P        3.98571792       8.25801140       8.33460803       0.00000000 NULL
P        3.98571792       2.01428740       8.33460803       0.00000000 NULL
P        0.57769030       7.53248975       7.60660737       0.00000000 NULL
P        0.57769030       2.73980905       7.60660737       0.00000000 NULL
P        2.82756928       6.47502160       5.45093737       0.00000000 NULL
P        2.82756928       3.79727720       5.45093737       0.00000000 NULL
P        5.13626326       6.24372370       5.46625812       0.00000000 NULL
P        5.13626326       4.02857510       5.46625812       0.00000000 NULL
24
Lattice="6.313397863374509 7.823630639580172e-18 0.5561089549820372 1.2194312770750229e-17 10.27256185043838 9.004187824087383e-18 0.1546940939233761 1.0054520286027454e-17 11.359808697910422" Properties=species:S:1:pos:R:3:initial_magmoms:R:1:castep_labels:S:1 n_minim_iter=12 pbc="T T T"
P        2.37202610       1.73562031       4.80913523       0.00000000 NULL
P        2.37202610       8.53694154       4.80913523       0.00000000 NULL
P        2.49855818       6.26633357       7.69192486       0.00000000 NULL
P        2.49855818       4.00622828       7.69192486       0.00000000 NULL
P        5.10974783       6.27787417       8.36412416       0.00000000 NULL
P        5.10974783       3.99468768       8.36412416       0.00000000 NULL
P        6.33748456       8.31404414      10.16972538       0.00000000 NULL
P        6.33748456       1.95851771      10.16972538       0.00000000 NULL
P        2.52502133       8.28027334       1.14912899       0.00000000 NULL
P        2.52502133       1.99228851       1.14912899       0.00000000 NULL
P        3.65740857       3.91810218       9.98724366       0.00000000 NULL
P        3.65740857       6.35445967       9.98724366       0.00000000 NULL
P        1.00665839       6.27276055       9.63523795       0.00000000 NULL
P        1.00665839       3.99980130       9.63523795       0.00000000 NULL
P        5.96715605       1.10772680       6.67538203       0.00000000 NULL
P        5.96715605       9.16483505       6.67538203       0.00000000 NULL
P        4.02247972       8.25859116       8.35985737       0.00000000 NULL
P        4.02247972       2.01397069       8.35985737       0.00000000 NULL
P        0.61413198       7.53488076       7.61441021       0.00000000 NULL
P        0.61413198       2.73768109       7.61441021       0.00000000 NULL
P        2.85278139       6.47597522       5.46728735       0.00000000 NULL
P        2.85278139       3.79658663       5.46728735       0.00000000 NULL
P        5.15674467       6.24334404       5.49576231       0.00000000 NULL
P        5.15674467       4.02921781       5.49576231       0.00000000 NULL
24
Lattice="6.308803457699415 2.0418188358200017e-17 0.6074370216234786 3.2256640457256765e-17 10.271348687537708 1.2188939002558944e-17 0.2447043530357288 1.376109463565137e-17 11.374160037866632" Properties=species:S:1:pos:R:3:initial_magmoms:R:1:castep_labels:S:1 n_minim_iter=13 pbc="T T T"
P        2.40691000       1.73704958       4.83707302       0.00000000 NULL
P        2.40691000       8.53429910       4.83707302       0.00000000 NULL
P        2.55767774       6.26739937       7.71951516       0.00000000 NULL
P        2.55767774       4.00394931       7.71951516       0.00000000 NULL
P        5.16900206       6.27885478       8.40900745       0.00000000 NULL
P        5.16900206       3.99249391       8.40900745       0.00000000 NULL
P        6.40956522       8.31475837      10.23180666       0.00000000 NULL
P        6.40956522       1.95659032      10.23180666       0.00000000 NULL
P        2.53058618       8.27920570       1.16906042       0.00000000 NULL
P        2.53058618       1.99214298       1.16906042       0.00000000 NULL
P        3.73122022       3.91654892      10.03200172       0.00000000 NULL
P        3.73122022       6.35479977      10.03200172       0.00000000 NULL
P        1.08202143       6.27423960       9.65904349       0.00000000 NULL
P        1.08202143       3.99710908       9.65904349       0.00000000 NULL
P        6.01003388       1.10805770       6.72990022       0.00000000 NULL
P        6.01003388       9.16329099       6.72990022       0.00000000 NULL
P        4.08275522       8.25828731       8.40174262       0.00000000 NULL
P        4.08275522       2.01306137       8.40174262       0.00000000 NULL
P        0.67444146       7.53766899       7.62754927       0.00000000 NULL
P        0.67444146       2.73367970       7.62754927       0.00000000 NULL
P        2.89416248       6.47646248       5.49456635       0.00000000 NULL
P        2.89416248       3.79488621       5.49456635       0.00000000 NULL
P        5.19018721       6.24176958       5.54468486       0.00000000 NULL
P        5.19018721       4.02957910       5.54468486       0.00000000 NULL
24
Lattice="6.2932594965463915 2.0391259964162004e-17 0.7141217292968871 3.2351467698761146e-17 10.266866879656352 1.221048576060175e-17 0.43256246624466127 1.315056426406522e-17 11.408453787935622" Properties=species:S:1:pos:R:3:initial_magmoms:R:1:castep_labels:S:1 n_minim_iter=14 pbc="T T T"
P        2.47741309       1.73955112       4.89743221       0.00000000 NULL
P        2.47741309       8.52731576       4.89743221       0.00000000 NULL
P        2.67856647       6.26867130       7.78008216       0.00000000 NULL
P        2.67856647       3.99819558       7.78008216       0.00000000 NULL
P        5.28761335       6.27977614       8.50395551       0.00000000 NULL
P        5.28761335       3.98709074       8.50395551       0.00000000 NULL
P        6.55454773       8.31480502      10.36520820       0.00000000 NULL
P        6.55454773       1.95206186      10.36520820       0.00000000 NULL
P        2.53966389       8.27523772       1.21028988       0.00000000 NULL
P        2.53966389       1.99162916       1.21028988       0.00000000 NULL
P        3.88176070       3.91251507      10.13003901       0.00000000 NULL
P        3.88176070       6.35435181      10.13003901       0.00000000 NULL
P        1.23927033       6.27627784       9.71286964       0.00000000 NULL
P        1.23927033       3.99058904       9.71286964       0.00000000 NULL
P        6.09431392       1.10903719       6.84570435       0.00000000 NULL
P        6.09431392       9.15782969       6.84570435       0.00000000 NULL
P        4.20422633       8.25638396       8.49125367       0.00000000 NULL
P        4.20422633       2.01048292       8.49125367       0.00000000 NULL
P        0.79969718       7.54244856       7.65749234       0.00000000 NULL
P        0.79969718       2.72441832       7.65749234       0.00000000 NULL
P        2.97793760       6.47616202       5.55340750       0.00000000 NULL
P        2.97793760       3.79070486       5.55340750       0.00000000 NULL
P        5.25544599       6.23746310       5.64811021       0.00000000 NULL
P        5.25544599       4.02940378       5.64811021       0.00000000 NULL
24
Lattice="6.281252530877574 2.0417842738031713e-17 0.7814234779713409 3.2450882607948093e-17 10.270510299323584 1.2231445939368804e-17 0.5513560559162635 1.2758325095584445e-17 11.450496824564562" Properties=species:S:1:pos:R:3:initial_magmoms:R:1:castep_labels:S:1 n_minim_iter=15 pbc="T T T"
P        2.52087321       1.74193524       4.94444545       0.00000000 NULL
P        2.52087321       8.52857506       4.94444545       0.00000000 NULL
P        2.75380468       6.27378233       7.83189105       0.00000000 NULL
P        2.75380468       3.99672797       7.83189105       0.00000000 NULL
P        5.36062919       6.28440248       8.57591759       0.00000000 NULL
P        5.36062919       3.98610782       8.57591759       0.00000000 NULL
P        6.64476108       8.32032456      10.46756685       0.00000000 NULL
P        6.64476108       1.95018574      10.46756685       0.00000000 NULL