26
Lattice="7.806860000000002 -1.029741733813395e-15 -3.843477325722405e-16 1.4115371195860686 8.496629334414358 -1.4691089061969626e-15 1.411537119586069 1.8476816041934543 8.293297458547821" Properties=species:S:1:pos:R:3:initial_magmoms:R:1:castep_labels:S:1 n_minim_iter=1 pbc="T T T"
P        9.62434317       9.43086755       5.60460462       0.00000000 NULL
P        9.62434317       7.52132301       7.98639818       0.00000000 NULL
P        4.21087416       2.41446206       0.63251570       0.00000000 NULL
P        4.21087416       1.14242926       2.21913464       0.00000000 NULL
P        5.40512971       9.95132022       6.67305584       0.00000000 NULL
P        5.40512971       8.67738316       8.26204998       0.00000000 NULL
P        6.31717001       3.21096743       1.29098527       0.00000000 NULL
P        6.31717001       1.95834956       2.85338778       0.00000000 NULL
P        5.73026994       5.14544504       0.72053495       0.00000000 NULL
P        5.73026994       1.82222317       4.86562206       0.00000000 NULL
P        3.13512559       7.16574826       4.36613002       0.00000000 NULL
P        3.13512559       5.81991214       6.04480456       0.00000000 NULL
P        5.95289100       2.43626809       6.77886256       0.00000000 NULL
P        5.95289100       7.14643054       0.90383092       0.00000000 NULL
P        3.81703237       7.44718013       8.25613934       0.00000000 NULL
P        3.81703237       9.67803041       5.47357799       0.00000000 NULL
P        3.69966092       4.24014758       8.22370674       0.00000000 NULL
P        3.69966092       8.94897092       2.35034538       0.00000000 NULL
P        9.23710244       6.25757755       3.21803411       0.00000000 NULL
P        9.23710244       4.50179989       5.40803274       0.00000000 NULL
P        5.77163221       5.14214246       5.42366145       0.00000000 NULL
P        5.77163221       6.41208150       3.83965408       0.00000000 NULL
P        1.66682503       4.55530587       2.16918576       0.00000000 NULL
P        1.66682503       3.10787449       3.97458106       0.00000000 NULL
P        7.61893890       2.40601354       4.37615496       0.00000000 NULL
P        7.61893890       4.79464269       1.39679448       0.00000000 NULL
26
Lattice="7.845957471435533 0.007239753894507245 0.005804295030396077 1.4264856440283185 8.524888654458916 -0.006238016277283022 1.426485644028319 1.8477381561784445 8.32223703038863" Properties=species:S:1:pos:R:3:initial_magmoms:R:1:castep_labels:S:1 n_minim_iter=2 pbc="T T T"
P        9.68534294       9.46457450       5.62385401       0.00000000 NULL
P        9.68534294       7.54744167       8.01511251       0.00000000 NULL
P        4.23473896       2.42560047       0.63566542       0.00000000 NULL
P        4.23473896       1.14792577       2.22932155       0.00000000 NULL
P        5.44646156       9.98232248       6.69231460       0.00000000 NULL
P        5.44646156       8.70292281       8.28812230       0.00000000 NULL
P        6.35271452       3.22571576       1.29730437       0.00000000 NULL
P        6.35271452       1.96772462       2.86640901       0.00000000 NULL
P        5.76386858       5.16640254       0.72279938       0.00000000 NULL
P        5.76386858       1.82899083       4.88558560       0.00000000 NULL
P        3.16081955       7.18766676       4.37770479       0.00000000 NULL
P        3.16081955       5.83597632       6.06368147       0.00000000 NULL
P        5.99006263       2.44382192       6.80555573       0.00000000 NULL
P        5.99006263       7.17412758       0.90539927       0.00000000 NULL
P        3.84928438       7.46704204       8.28197044       0.00000000 NULL
P        3.84928438       9.70756253       5.48734734       0.00000000 NULL
P        3.72804755       4.24996981       8.25202225       0.00000000 NULL
P        3.72804755       8.97874477       2.35377504       0.00000000 NULL
P        9.29152591       6.28345680       3.23121771       0.00000000 NULL
P        9.29152591       4.52029572       5.43042576       0.00000000 NULL
P        5.80925461       5.15915067       5.44288141       0.00000000 NULL
P        5.80925461       6.43454012       3.85207569       0.00000000 NULL
P        1.68140267       4.56921525       2.17422316       0.00000000 NULL
P        1.68140267       3.11581608       3.98706214       0.00000000 NULL
P        7.66264761       2.41716110       4.39527103       0.00000000 NULL
P        7.66264761       4.81572545       1.40351828       0.00000000 NULL
26
Lattice="8.214900589976226 0.07636443498983993 0.06122331186517074 1.5684253867626163 8.788543508342071 -0.0656217366567011 1.5684253867626168 1.8471100678253478 8.592496005683193" Properties=species:S:1:pos:R:3:initial_magmoms:R:1:castep_labels:S:1 n_minim_iter=3 pbc="T T T"
P       10.26240468       9.77953978       5.80383720       0.00000000 NULL
P       10.26240468       7.79161023       8.28340115       0.00000000 NULL
P        4.46018649       2.53022054       0.66526529       0.00000000 NULL
P        4.46018649       1.19956802       2.32500117       0.00000000 NULL
P        5.83812087      10.27129961       6.87156807       0.00000000 NULL
P        5.83812087       8.94072771       8.53120339       0.00000000 NULL
P        6.68858708       3.36419167       1.35668625       0.00000000 NULL
P        6.68858708       2.05579848       2.98865786       0.00000000 NULL
P        6.08120863       5.36273614       0.74391081       0.00000000 NULL
P        6.08120863       1.89229186       5.07262986       0.00000000 NULL
P        3.40443870       7.39179114       4.48510520       0.00000000 NULL
P        3.40443870       5.98519554       6.23956562       0.00000000 NULL
P        6.34166404       2.51433231       7.05561628       0.00000000 NULL
P        6.34166404       7.43353718       0.91984399       0.00000000 NULL
P        4.15507573       7.65133261       8.52275284       0.00000000 NULL
P        4.15507573       9.98265873       5.61486700       0.00000000 NULL
P        3.99695463       4.34083893       8.51642362       0.00000000 NULL
P        3.99695463       9.25657923       2.38497273       0.00000000 NULL
P        9.80607604       6.52617708       3.35503151       0.00000000 NULL
P        9.80607604       4.69392862       5.64041292       0.00000000 NULL
P        6.16514747       5.31800039       5.62246092       0.00000000 NULL
P        6.16514747       6.64436567       3.96807254       0.00000000 NULL
P        1.81988689       4.69868563       2.22087545       0.00000000 NULL
P        1.81988689       3.18950665       4.10328914       0.00000000 NULL
P        8.07579455       2.52200297       4.57457406       0.00000000 NULL
P        8.07579455       5.01353657       1.46685986       0.00000000 NULL
26
Lattice="8.310636994371585 0.09236211848571263 0.07404906204479839 1.6031463725845032 8.837789904347629 -0.0736548263263862 1.6031463725845037 1.8499783649901655 8.642310771772696" Properties=species:S:1:pos:R:3:initial_magmoms:R:1:castep_labels:S:1 n_minim_iter=4 pbc="T T T"
P       10.40897357       9.84170580       5.84345722       0.00000000 NULL
P       10.40897357       7.84380076       8.33546369       0.00000000 NULL
P        4.51721948       2.55141624       0.67211987       0.00000000 NULL
P        4.51721948       1.21086780       2.34419904       0.00000000 NULL
P        5.93637546      10.32949840       6.90931151       0.00000000 NULL
P        5.93637546       8.99022385       8.57980173       0.00000000 NULL
P        6.77507870       3.39196701       1.36941167       0.00000000 NULL
P        6.77507870       2.07425941       3.01300123       0.00000000 NULL
P        6.16018765       5.40136228       0.75036377       0.00000000 NULL
P        6.16018765       1.90699005       5.10892838       0.00000000 NULL
P        3.46525541       7.43138904       4.50688445       0.00000000 NULL
P        3.46525541       6.01506458       6.27347979       0.00000000 NULL
P        6.43067700       2.53217605       7.10496236       0.00000000 NULL
P        6.43067700       7.48558268       0.92652988       0.00000000 NULL
P        4.23066317       7.68782086       8.56984432       0.00000000 NULL
P        4.23066317      10.03655802       5.64024152       0.00000000 NULL
P        4.06390131       4.36171402       8.56669606       0.00000000 NULL
P        4.06390131       9.31018811       2.39441598       0.00000000 NULL
P        9.93779154       6.57714047       3.38433709       0.00000000 NULL
P        9.93779154       4.73361542       5.68378390       0.00000000 NULL
P        6.25421090       5.35220580       5.65779137       0.00000000 NULL
P        6.25421090       6.68628896       3.99377641       0.00000000 NULL
P        1.85631453       4.72263221       2.23114364       0.00000000 NULL
P        1.85631453       3.20473654       4.12442974       0.00000000 NULL
P        8.18202382       2.54658361       4.61006065       0.00000000 NULL
P        8.18202382       5.05351925       1.48313533       0.00000000 NULL
26
Lattice="8.341585267295182 0.0948263006016176 0.07602465958827131 1.6114239487252384 8.837991925453142 -0.07086772958999715 1.6114239487252389 1.8527426956484192 8.641901874772337" Properties=species:S:1:pos:R:3:initial_magmoms:R:1:castep_labels:S:1 n_minim_iter=5 pbc="T T T"
P       10.45184252       9.84381721       5.84939550       0.00000000 NULL
P       10.45184252       7.85005608       8.33623323       0.00000000 NULL
P        4.53380481       2.55281895       0.67283079       0.00000000 NULL
P        4.53380481       1.21186674       2.34541358       0.00000000 NULL
P        5.96335075      10.33388303       6.91359642       0.00000000 NULL
P        5.96335075       8.99535971       8.58314963       0.00000000 NULL
P        6.80196682       3.39312947       1.37003995       0.00000000 NULL
P        6.80196682       2.07512544       3.01399924       0.00000000 NULL
P        6.18151830       5.40299834       0.75211883       0.00000000 NULL
P        6.18151830       1.90905889       5.11014363       0.00000000 NULL
P        3.48144789       7.43252496       4.50820337       0.00000000 NULL
P        3.48144789       6.01659896       6.27430171       0.00000000 NULL
P        6.45640520       2.53648764       7.10808611       0.00000000 NULL
P        6.45640520       7.48956928       0.93005900       0.00000000 NULL
P        4.24988964       7.68904817       8.57205129       0.00000000 NULL
P        4.24988964      10.03897907       5.64095952       0.00000000 NULL
P        4.08166030       4.36541517       8.56768243       0.00000000 NULL
P        4.08166030       9.31195573       2.39781407       0.00000000 NULL
P        9.97773486       6.58274186       3.39079696       0.00000000 NULL
P        9.97773486       4.74113878       5.68784648       0.00000000 NULL
P        6.27870982       5.35671476       5.65916912       0.00000000 NULL
P        6.27870982       6.68861427       3.99787786       0.00000000 NULL
P        1.86828220       4.72189915       2.23257655       0.00000000 NULL
P        1.86828220       3.20597575       4.12340261       0.00000000 NULL
P        8.21486904       2.55137008       4.61162282       0.00000000 NULL
P        8.21486904       5.05608491       1.48746754       0.00000000 NULL
26
Lattice="8.354201143300223 0.09249539772168679 0.07415591540173455 1.611168142868842 8.822532779578552 -0.06792970610805556 1.6111681428688425 1.8522486554110649 8.626173775796422" Properties=species:S:1:pos:R:3:initial_magmoms:R:1:castep_labels:S:1 n_minim_iter=6 pbc="T T T"
P       10.46377158       9.82363297       5.84188501       0.00000000 NULL
P       10.46377158       7.83833605       8.31816525       0.00000000 NULL
P        4.53832311       2.54746717       0.67028722       0.00000000 NULL
P        4.53832311       1.20822024       2.34074300       0.00000000 NULL
P        5.96841557      10.31862358       6.90448644       0.00000000 NULL
P        5.96841557       8.98314941       8.57023642       0.00000000 NULL
P        6.81160360       3.38473700       1.36507365       0.00000000 NULL
P        6.81160360       2.06845297       3.00688759       0.00000000 NULL
P        6.18516125       5.39221468       0.75005339       0.00000000 NULL
P        6.18516125       1.90469786       5.10006719       0.00000000 NULL
P        3.48375806       7.41945091       4.50065564       0.00000000 NULL
P        3.48375806       6.00638875       6.26318186       0.00000000 NULL
P        6.46316046       2.53368889       7.09690000       0.00000000 NULL
P        6.46316046       7.47804224       0.92975976       0.00000000 NULL
P        4.25131918       7.67526676       8.55845916       0.00000000 NULL
P        4.25131918      10.02271530       5.63046367       0.00000000 NULL
P        4.08410149       4.36037440       8.55267225       0.00000000 NULL
P        4.08410149       9.29620859       2.39615804       0.00000000 NULL
P        9.99073814       6.57249144       3.38835186       0.00000000 NULL
P        9.99073814       4.73652313       5.67837307       0.00000000 NULL
P        6.28347589       5.34959171       5.64836470       0.00000000 NULL
P        6.28347589       6.67651942       3.99327480       0.00000000 NULL
P        1.87328705       4.71208239       2.22973179       0.00000000 NULL
P        1.87328705       3.20106431       4.11443941       0.00000000 NULL
P        8.22635977       2.54799783       4.60177115       0.00000000 NULL
P        8.22635977       5.04573566       1.48631834       0.00000000 NULL
26
Lattice="8.385931604062952 0.07969192552969213 0.06389104575303202 1.6029705276662256 8.760574849952288 -0.07575733330202444 1.6029705276662258 1.8311349454376349 8.5674007544157" Properties=species:S:1:pos:R:3:initial_magmoms:R:1:castep_labels:S:1 n_minim_iter=7 pbc="T T T"
P       10.48232150       9.72701503       5.79282418       0.00000000 NULL
P       10.48232150       7.76943869       8.23452826       0.00000000 NULL
P        4.54507286       2.52311388       0.65369629       0.00000000 NULL
P        4.54507286       1.18673046       2.32058038       0.00000000 NULL
P        5.96868939      10.24094619       6.85017577       0.00000000 NULL
P        5.96868939       8.91324668       8.50622834       0.00000000 NULL
P        6.83318392       3.34596678       1.33714357       0.00000000 NULL
P        6.83318392       2.03276028       2.97511886       0.00000000 NULL
P        6.18406206       5.34529616       0.72923441       0.00000000 NULL
P        6.18406206       1.87417418       5.05879878       0.00000000 NULL
P        3.48064457       7.35681216       4.45779561       0.00000000 NULL
P        3.48064457       5.95093295       6.21136248       0.00000000 NULL
P        6.47245378       2.50469289       7.05152032       0.00000000 NULL
P        6.47245378       7.42744305       0.91132596       0.00000000 NULL
P        4.24155563       7.60079519       8.49462952       0.00000000 NULL
P        4.24155563       9.94421853       5.57165470       0.00000000 NULL
P        4.08011918       4.32023776       8.49061052       0.00000000 NULL
P        4.08011918       9.22690391       2.37047789       0.00000000 NULL
P       10.01650667       6.51983109       3.36423621       0.00000000 NULL
P       10.01650667       4.70153304       5.63221713       0.00000000 NULL
P        6.28471778       5.30610923       5.59781614       0.00000000 NULL
P        6.28471778       6.61772481       3.96182521       0.00000000 NULL
P        1.88599570       4.66804557       2.20960805       0.00000000 NULL
P        1.88599570       3.17184588       4.07583255       0.00000000 NULL
P        8.25116056       2.52117186       4.55900197       0.00000000 NULL
P        8.25116056       4.99815640       1.46943495       0.00000000 NULL
26
Lattice="8.410768165183613 0.061881451793736476 0.049611935482028025 1.5880770537650615 8.651379227232292 -0.1722289249315401 1.5880770537650617 1.7132262654645591 8.481797044217213" Properties=species:S:1:pos:R:3:initial_magmoms:R:1:castep_labels:S:1 n_minim_iter=8 pbc="T T T"
P       10.48575140       9.50741399       5.64185694       0.00000000 NULL
P       10.48575140       7.57432968       8.05301188       0.00000000 NULL
P        4.54192916       2.47706745       0.60415374       0.00000000 NULL
P        4.54192916       1.12836023       2.28640944       0.00000000 NULL
P        5.95636004      10.04238439       6.68542304       0.00000000 NULL
P        5.95636004       8.70925727       8.34824552       0.00000000 NULL
P        6.84946325       3.26924397       1.26409172       0.00000000 NULL
P        6.84946325       1.94477244       2.91611799       0.00000000 NULL
P        6.16388850       5.25835728       0.64842112       0.00000000 NULL
P        6.16388850       1.77638904       4.99151412       0.00000000 NULL
P        3.46935475       7.20664254       4.33121370       0.00000000 NULL
P        3.46935475       5.79472429       6.09231312       0.00000000 NULL
P        6.47046700       2.39035991       6.98040513       0.00000000 NULL
P        6.47046700       7.33316680       0.81519382       0.00000000 NULL
P        4.21737425       7.39059286       8.34627252       0.00000000 NULL
P        4.21737425       9.75370113       5.39874449       0.00000000 NULL
P        4.06394764       4.17029245       8.37702847       0.00000000 NULL
P        4.06394764       9.08343280       2.24882052       0.00000000 NULL
P       10.02994818       6.39815537       3.27873891       0.00000000 NULL
P       10.02994818       4.59162210       5.53204551       0.00000000 NULL
P        6.27007772       5.17732971       5.48653387       0.00000000 NULL
P        6.27007772       6.48110116       3.86032700       0.00000000 NULL
P        1.90508715       4.57106573       2.13831982       0.00000000 NULL
P        1.90508715       3.08117435       3.99667589       0.00000000 NULL
P        8.26764248       2.43447367       4.48330505       0.00000000 NULL
P        8.26764248       4.90541754       1.40127262       0.00000000 NULL
26
Lattice="8.45149647702173 0.10273131327973566 0.08236230952380656 1.6399001497839834 8.515880472382594 -0.17677404201465755 1.6399001497839834 1.6793242846503071 8.350529278364405" Properties=species:S:1:pos:R:3:initial_magmoms:R:1:castep_labels:S:1 n_minim_iter=9 pbc="T T T"
P       10.61157621       9.38257018       5.58582156       0.00000000 NULL
P       10.61157621       7.49248668       7.94334119       0.00000000 NULL
P        4.57251427       2.45637670       0.60267714       0.00000000 NULL
P        4.57251427       1.12241955       2.26653493       0.00000000 NULL
P        6.06799253       9.90276326       6.59131813       0.00000000 NULL
P        6.06799253       8.58704229       8.23242976       0.00000000 NULL
P        6.90904235       3.24068198       1.25596880       0.00000000 NULL
P        6.90904235       1.93063280       2.89000593       0.00000000 NULL
P        6.20686775       5.19774841       0.64910752       0.00000000 NULL
P        6.20686775       1.76387898       4.93220641       0.00000000 NULL
P        3.54451348       7.09476625       4.25984290       0.00000000 NULL
P        3.54451348       5.70073278       5.99863446       0.00000000 NULL
P        6.54229665       2.37540887       6.90558407       0.00000000 NULL
P        6.54229665       7.25688502       0.81687119       0.00000000 NULL
P        4.30801653       7.26419620       8.22086352       0.00000000 NULL
P        4.30801653       9.60380699       5.30264412       0.00000000 NULL
P        4.13616383       4.10974996       8.25460763       0.00000000 NULL
P        4.13616383       8.95077599       2.21634857       0.00000000 NULL
P       10.12653354       6.34627942       3.27415903       0.00000000 NULL
P       10.12653354       4.57587085       5.48240694       0.00000000 NULL
P        6.34196161       5.11935657       5.41510809       0.00000000 NULL
P        6.34196161       6.39877779       3.81927350       0.00000000 NULL
P        1.96498810       4.49191245       2.10120398       0.00000000 NULL
P        1.96498810       3.02773401       3.92748805       0.00000000 NULL
P        8.34287095       2.43220347       4.44225401       0.00000000 NULL
P        8.34287095       4.86485521       1.40798373       0.00000000 NULL
26
Lattice="8.476212678539175 0.11046577850451798 0.08856322722365158 1.6527868571172684 8.54532783128511 -0.22382897206379868 1.6527868571172684 1.6397990593833658 8.38950452635413" Properties=species:S:1:pos:R:3:initial_magmoms:R:1:castep_labels:S:1 n_minim_iter=10 pbc="T T T"
P       10.65670023       9.38841572       5.57485326       0.00000000 NULL
P       10.65670023       7.48305202       7.95143201       0.00000000 NULL
P        4.58722379       2.46535208       0.59371352       0.00000000 NULL
P        4.58722379       1.11562222       2.27724476       0.00000000 NULL
P        6.10090156       9.90573164       6.57813845       0.00000000 NULL
P        6.10090156       8.57482352       8.23819316       0.00000000 NULL
P        6.93455188       3.24900542       1.24745067       0.00000000 NULL
P        6.93455188       1.92412854       2.89998255       0.00000000 NULL
P        6.22646459       5.21557349       0.62725562       0.00000000 NULL
P        6.22646459       1.74642627       4.95435685       0.00000000 NULL
P        3.56570531       7.09692212       4.24553321       0.00000000 NULL
P        3.56570531       5.68723435       6.00385053       0.00000000 NULL
P        6.56927393       2.35148487       6.94006322       0.00000000 NULL
P        6.56927393       7.28533652       0.78602185       0.00000000 NULL
P        4.33341737       7.24318188       8.23044762       0.00000000 NULL
P        4.33341737       9.60859195       5.28004853       0.00000000 NULL
P        4.15754946       4.08086086       8.28188749       0.00000000 NULL
P        4.15754946       8.97112078       2.18221851       0.00000000 NULL
P       10.16477943       6.35991371       3.26941659       0.00000000 NULL
P       10.16477943       4.57420682       5.49674624       0.00000000 NULL
P        6.36793230       5.11186550       5.42250045       0.00000000 NULL
P        6.36793230       6.40436424       3.81035415       0.00000000 NULL
P        1.98053270       4.49406177       2.08789740       0.00000000 NULL
P        1.98053270       3.01521326       3.93247959       0.00000000 NULL
P        8.37385972       2.42426378       4.45983193       0.00000000 NULL
P        8.37385972       4.88028591       1.39641153       0.00000000 NULL
26
Lattice="8.452505486556385 0.11107872631873648 0.08905464309272684 1.649167528590036 8.517036598852734 -0.23433913225203917 1.649167528590036 1.6233881899649998 8.364175873317329" Properties=species:S:1:pos:R:3:initial_magmoms:R:1:castep_labels:S:1 n_minim_iter=11 pbc="T T T"
P       10.62913881       9.34922717       5.54893808       0.00000000 NULL
P       10.62913881       7.44923506       7.91881680       0.00000000 NULL
P        4.57366848       2.45670582       0.58816810       0.00000000 NULL
P        4.57366848       1.10832929       2.27001132       0.00000000 NULL
P        6.08605875       9.86591713       6.54777932       0.00000000 NULL
P        6.08605875       8.53653282       8.20593336       0.00000000 NULL
P        6.91656144       3.23640471       1.23880790       0.00000000 NULL
P        6.91656144       1.91295245       2.88956284       0.00000000 NULL
P        6.20726105       5.19749220       0.61848542       0.00000000 NULL
P        6.20726105       1.73393397       4.93861543       0.00000000 NULL
P        3.55740162       7.06770420       4.22392710       0.00000000 NULL
P        3.55740162       5.65979155       5.98003031       0.00000000 NULL
P        6.55193161       2.33568085       6.92075440       0.00000000 NULL
P        6.55193161       7.26305303       0.77479494       0.00000000 NULL
P        4.32250931       7.20687895       8.19871305       0.00000000 NULL
P        4.32250931       9.56972236       5.25151538       0.00000000 NULL
P        4.14667976       4.05683380       8.25415920       0.00000000 NULL
P        4.14667976       8.93883111       2.16479626       0.00000000 NULL
P       10.13756314       6.33696576       3.25587765       0.00000000 NULL
P       10.13756314       4.55600161       5.47729164       0.00000000 NULL
P        6.35009126       5.08888994       5.40137520       0.00000000 NULL
P        6.35009126       6.37874826       3.79252232       0.00000000 NULL
P        1.97814597       4.47491149       2.07528356       0.00000000 NULL
P        1.97814597       2.99873685       3.91653060       0.00000000 NULL
P        8.35178460       2.41186723       4.44512102       0.00000000 NULL
P        8.35178460       4.86323128       1.38751070       0.00000000 NULL
26
Lattice="8.45289105336246 0.1164443664420921 0.09335641339551477 1.6550769591586463 8.506278346792087 -0.24669000253092696 1.6550769591586463 1.6089933916624422 8.356360902691982" Properties=species:S:1:pos:R:3:initial_magmoms:R:1:castep_labels:S:1 n_minim_iter=12 pbc="T T T"
P       10.63965783       9.33267651       5.53675101       0.00000000 NULL
P       10.63965783       7.43374052       7.90531242       0.00000000 NULL
P        4.57494989       2.45521927       0.58525771       0.00000000 NULL
P        4.57494989       1.10516528       2.26919324       0.00000000 NULL
P        6.09722332       9.84693190       6.53107511       0.00000000 NULL
P        6.09722332       8.51609982       8.19103497       0.00000000 NULL
P        6.92060616       3.23352059       1.23501200       0.00000000 NULL
P        6.92060616       1.90862020       2.88757320       0.00000000 NULL
P        6.20904583       5.19271598       0.61243242       0.00000000 NULL
P        6.20904583       1.72698719       4.93526980       0.00000000 NULL
P        3.56534065       7.05321379       4.21085336       0.00000000 NULL
P        3.56534065       5.64387958       5.96872969       0.00000000 NULL
P        6.55786960       2.32626208       6.91788947       0.00000000 NULL
P        6.55786960       7.25820844       0.76622458       0.00000000 NULL
P        4.33200686       7.18504768       8.18395225       0.00000000 NULL
P        4.33200686       9.55056736       5.23341644       0.00000000 NULL
P        4.15368348       4.04089337       8.24415701       0.00000000 NULL
P        4.15368348       8.92560188       2.15141237       0.00000000 NULL
P       10.14423521       6.33100366       3.25172185       0.00000000 NULL
P       10.14423521       4.55064874       5.47237594       0.00000000 NULL
P        6.35581726       5.07784561       5.39292622       0.00000000 NULL
P        6.35581726       6.36809976       3.78357962       0.00000000 NULL
P        1.98485493       4.46505806       2.06671316       0.00000000 NULL
P        1.98485493       2.98822882       3.90877670       0.00000000 NULL
P        8.35685837       2.40757234       4.44258355       0.00000000 NULL
P        8.35685837       4.85982056       1.38387038       0.00000000 NULL
26
Lattice="8.453030486880243 0.1200439184786696 0.09624226591232594 1.6590197575450414 8.498725294480098 -0.25368674564279897 1.6590197575450416 1.6005215959835815 8.350510117156961" Properties=species:S:1:pos:R:3:initial_magmoms:R:1:castep_labels:S:1 n_minim_iter=13 pbc="T T T"
P       10.64653750       9.32214739       5.52933528       0.00000000 NULL
P       10.64653750       7.42421259       7.89664790       0.00000000 NULL
P        4.57579640       2.45420904       0.58367404       0.00000000 NULL
P        4.57579640       1.10339982       2.26855157       0.00000000 NULL
P        6.10460833       9.83473438       6.52065891       0.00000000 NULL
P        6.10460833       8.50328041       8.18139445       0.00000000 NULL
P        6.92318896       3.23169483       1.23291153       0.00000000 NULL
P        6.92318896       1.90617296       2.88624790       0.00000000 NULL
P        6.21027962       5.18943820       0.60911989       0.00000000 NULL
P        6.21027962       1.72304114       4.93279081       0.00000000 NULL
P        3.57060011       7.04387931       4.20275825       0.00000000 NULL
P        3.57060011       5.63394832       5.96137895       0.00000000 NULL
P        6.56177085       2.32084839       6.91549406       0.00000000 NULL
P        6.56177085       7.25469310       0.76146136       0.00000000 NULL
P        4.33834538       7.17145116       8.17427650       0.00000000 NULL
P        4.33834538       9.53816645       5.22224939       0.00000000 NULL
P        4.15835115       4.03126838       8.23719205       0.00000000 NULL
P        4.15835115       8.91671053       2.14353232       0.00000000 NULL
P       10.14855737       6.32718470       3.24939792       0.00000000 NULL
P       10.14855737       4.54754994       5.46915373       0.00000000 NULL
P        6.35962342       5.07103292       5.38744923       0.00000000 NULL
P        6.35962342       6.36127235       3.77812099       0.00000000 NULL
P        1.98919090       4.45866124       2.06144964       0.00000000 NULL
P        1.98919090       2.98170020       3.90367757       0.00000000 NULL
P        8.36011489       2.40521379       4.44078466       0.00000000 NULL
P        8.36011489       4.85755183       1.38195947       0.00000000 NULL
26
Lattice="8.457284657471057 0.15947700022363762 0.12785677156273956 1.702706105039764 8.419545883888434 -0.3247881321721482 1.7027061050397643 1.5139033313026375 8.288687286004539" Properties=species:S:1:pos:R:3:initial_magmoms:R:1:castep_labels:S:1 n_minim_iter=14 pbc="T T T"
P       10.72508070       9.21494647       5.45470565       0.00000000 NULL
P       10.72508070       7.32805694       7.80824140       0.00000000 NULL
P        4.58678754       2.44457221       0.56834040       0.00000000 NULL
P        4.58678754       1.08633750       2.26247982       0.00000000 NULL