27
Lattice="4.56892 0.0 0.0 0.0 11.98545 2.3091609413734866e-15 0.0 -5.992725000000001 10.379704175788198" Properties=species:S:1:pos:R:3:initial_magmoms:R:1:castep_labels:S:1 n_minim_iter=1 pbc="T T T"
P        2.23108862      -0.16901582       2.14069254       0.00000000 NULL
P        2.23108862       4.22333938       9.16298487       0.00000000 NULL
P        2.23108862      -4.05432177       9.45572989       0.00000000 NULL
P        3.41972834       0.42537201       8.16881888       0.00000000 NULL
P        3.41972834      -1.29436508       6.66367666       0.00000000 NULL
P        3.41972834       0.86899486       5.92691176       0.00000000 NULL
P        3.26934553       6.78219820       6.99927326       0.00000000 NULL
P        3.26934553       2.53280304       2.37391826       0.00000000 NULL
P        3.26934553       8.66317555       1.00651160       0.00000000 NULL
P        3.47587625       0.94536915       3.60492731       0.00000000 NULL
P        3.47587625       2.39808239       9.39595318       0.00000000 NULL
P        3.47587625      -3.34344975       7.75852681       0.00000000 NULL
P        1.56703402       0.13022191       8.90422092       0.00000000 NULL
P        1.56703402      -1.78366688       6.04036816       0.00000000 NULL
P        1.56703402       1.65344676       5.81481822       0.00000000 NULL
P        1.01076253      -3.93883357       7.86455239       0.00000000 NULL
P        1.01076253       1.15124022       3.03629701       0.00000000 NULL
P        1.01076253       2.78759514       9.85855790       0.00000000 NULL
P        2.98588608       1.11179731       0.74899842       0.00000000 NULL
P        2.98588608      10.78090028       0.58834446       0.00000000 NULL
P        2.98588608       6.08547920       9.04236024       0.00000000 NULL
P        3.24255064       4.51680193       2.75239654       0.00000000 NULL
P        3.24255064       7.34340430       2.53546590       0.00000000 NULL
P        3.24255064       6.11797056       5.09184068       0.00000000 NULL
P        3.74524470      -2.66755486       9.86535454       0.00000000 NULL
P        3.74524470      -1.21714463       3.13685559       0.00000000 NULL
P        3.74524470       3.88470128       7.75719717       0.00000000 NULL
27
Lattice="4.588885339701824 0.0 0.0 0.0 12.05348927862286 8.211397913833259e-16 0.0 -6.02674463931143 10.438627919530763" Properties=species:S:1:pos:R:3:initial_magmoms:R:1:castep_labels:S:1 n_minim_iter=2 pbc="T T T"
P        2.24057030      -0.17030972       2.15297999       0.00000000 NULL
P        2.24057030       4.24736473       9.21464433       0.00000000 NULL
P        2.24057030      -4.07705321       9.50963046       0.00000000 NULL
P        3.43481897       0.42775744       8.21522659       0.00000000 NULL
P        3.43481897      -1.30172841       6.70146239       0.00000000 NULL
P        3.43481897       0.87397277       5.96056581       0.00000000 NULL
P        3.28358787       6.82047566       7.03888229       0.00000000 NULL
P        3.28358787       2.54740116       2.38726300       0.00000000 NULL
P        3.28358787       8.71235889       1.01248158       0.00000000 NULL
P        3.49116707       0.95060904       3.62562001       0.00000000 NULL
P        3.49116707       2.41156169       9.44906844       0.00000000 NULL
P        3.49116707      -3.36216892       7.80256633       0.00000000 NULL
P        1.57372100       0.13097235       8.95489120       0.00000000 NULL
P        1.57372100      -1.79390421       6.07460666       0.00000000 NULL
P        1.57372100       1.66293366       5.84775692       0.00000000 NULL
P        1.01507627      -3.96114657       7.90885915       0.00000000 NULL
P        1.01507627       1.15804558       3.05374374       0.00000000 NULL
P        1.01507627       2.80310279       9.91465189       0.00000000 NULL
P        2.99916399       1.11821244       0.75330531       0.00000000 NULL
P        2.99916399      10.84200212       0.59174668       0.00000000 NULL
P        2.99916399       6.12002116       9.09357488       0.00000000 NULL
P        3.25671424       4.54253521       2.76804016       0.00000000 NULL
P        3.25671424       7.38502918       2.54992976       0.00000000 NULL
P        3.25671424       6.15267134       5.12065695       0.00000000 NULL
P        3.76171306      -2.68255990       9.92141279       0.00000000 NULL
P        3.76171306      -1.22417033       3.15475546       0.00000000 NULL
P        3.76171306       3.90673203       7.80108654       0.00000000 NULL
27
Lattice="4.7760380000543865 -2.7218858545110244e-57 1.620770182207493e-41 -3.090848371247237e-57 12.693193785075206 -1.4171865721282955e-15 2.6817640912518637e-41 -6.346596892537601 10.992628273033882" Properties=species:S:1:pos:R:3:initial_magmoms:R:1:castep_labels:S:1 n_minim_iter=3 pbc="T T T"
P        2.32930745      -0.18276541       2.26859337       0.00000000 NULL
P        2.32930745       4.47332073       9.70005100       0.00000000 NULL
P        2.32930745      -4.29055343      10.01661107       0.00000000 NULL
P        3.57628260       0.45010708       8.65156082       0.00000000 NULL
P        3.57628260      -1.37092748       7.05665092       0.00000000 NULL
P        3.57628260       0.92082229       6.27704369       0.00000000 NULL
P        3.41706139       7.18020768       7.41117381       0.00000000 NULL
P        3.41706139       2.68482578       2.51265425       0.00000000 NULL
P        3.41706139       9.17475911       1.06879910       0.00000000 NULL
P        3.63460916       0.99976572       3.82027081       0.00000000 NULL
P        3.63460916       2.53826309       9.94831427       0.00000000 NULL
P        3.63460916      -3.53802691       8.21667035       0.00000000 NULL
P        1.63640444       0.13808162       9.43133082       0.00000000 NULL
P        1.63640444      -1.89021537       6.39654395       0.00000000 NULL
P        1.63640444       1.75213565       6.15738066       0.00000000 NULL
P        1.05545510      -4.17088639       8.32513842       0.00000000 NULL
P        1.05545510       1.22225935       3.21796440       0.00000000 NULL
P        1.05545510       2.94862893      10.44215262       0.00000000 NULL
P        3.12379873       1.17869156       0.79391682       0.00000000 NULL
P        3.12379873      11.41629650       0.62381732       0.00000000 NULL
P        3.12379873       6.44480451       9.57489302       0.00000000 NULL
P        3.38947309       4.78447926       2.91517052       0.00000000 NULL
P        3.38947309       7.77634305       2.68589422       0.00000000 NULL
P        3.38947309       6.47897026       5.39156242       0.00000000 NULL
P        3.91604405      -2.82364314      10.44844054       0.00000000 NULL
P        3.91604405      -1.29019585       3.32306021       0.00000000 NULL
P        3.91604405       4.11384088       8.21375469       0.00000000 NULL
27
Lattice="4.822475911064905 -5.635582679210559e-43 5.1431631036001805e-42 -1.4977590847939547e-42 12.893925513239944 2.877853889144604e-15 4.639201839067406e-41 -6.446962756619974 11.166467048970096" Properties=species:S:1:pos:R:3:initial_magmoms:R:1:castep_labels:S:1 n_minim_iter=4 pbc="T T T"
P        2.35018973      -0.18840360       2.30525051       0.00000000 NULL
P        2.35018973       4.54475968       9.85067837       0.00000000 NULL
P        2.35018973      -4.35635416      10.17700408       0.00000000 NULL
P        3.61123031       0.45642716       8.78819278       0.00000000 NULL
P        3.61123031      -1.39204839       7.16764706       0.00000000 NULL
P        3.61123031       0.93562315       6.37709313       0.00000000 NULL
P        3.44980550       7.29219898       7.52743368       0.00000000 NULL
P        3.44980550       2.72887787       2.55151160       0.00000000 NULL
P        3.44980550       9.31981335       1.08752063       0.00000000 NULL
P        3.67148543       1.01432353       3.88200726       0.00000000 NULL
P        3.67148543       2.57788473      10.10389224       0.00000000 NULL
P        3.67148543      -3.59220633       8.34703347       0.00000000 NULL
P        1.65211063       0.14056740       9.58058818       0.00000000 NULL
P        1.65211063      -1.92035306       6.49790677       0.00000000 NULL
P        1.65211063       1.77978758       6.25443801       0.00000000 NULL
P        1.06502287      -4.23635061       8.45384550       0.00000000 NULL
P        1.06502287       1.24389374       3.27075593       0.00000000 NULL
P        1.06502287       2.99245880      10.60833154       0.00000000 NULL
P        3.15603004       1.19878443       0.80796176       0.00000000 NULL
P        3.15603004      11.59481853       0.63419577       0.00000000 NULL
P        3.15603004       6.54728724       9.72430839       0.00000000 NULL
P        3.42238701       4.86038377       2.96160074       0.00000000 NULL
P        3.42238701       7.89891279       2.72841432       0.00000000 NULL
P        3.42238701       6.58159364       5.47645086       0.00000000 NULL
P        3.95373781      -2.86823521      10.61321294       0.00000000 NULL
P        3.95373781      -1.31023103       3.37589490       0.00000000 NULL
P        3.95373781       4.17846816       8.34382512       0.00000000 NULL
27
Lattice="4.826414881813943 -9.372002948062026e-43 -3.252341192192326e-42 -2.4895292872476012e-42 12.9663655503696 1.0783076740094634e-15 4.477850115819031e-41 -6.4831827751848 11.229201961375468" Properties=species:S:1:pos:R:3:initial_magmoms:R:1:castep_labels:S:1 n_minim_iter=5 pbc="T T T"
P        2.35020490      -0.19254134       2.31889060       0.00000000 NULL
P        2.35020490       4.57123592       9.90300984       0.00000000 NULL
P        2.35020490      -4.37869263      10.23650235       0.00000000 NULL
P        3.61399831       0.45783250       8.83711340       0.00000000 NULL
P        3.61399831      -1.39889754       7.20713871       0.00000000 NULL
P        3.61399831       0.94106697       6.41415067       0.00000000 NULL
P        3.45203148       7.33145520       7.56878418       0.00000000 NULL
P        3.45203148       2.74587922       2.56483323       0.00000000 NULL
P        3.45203148       9.37221584       1.09558342       0.00000000 NULL
P        3.67652361       1.01848048       3.90508458       0.00000000 NULL
P        3.67652361       2.59204073      10.15868851       0.00000000 NULL
P        3.67652361      -3.61051927       8.39462969       0.00000000 NULL
P        1.65358875       0.14163878       9.63403188       0.00000000 NULL
P        1.65358875      -1.93095232       6.53484768       0.00000000 NULL
P        1.65358875       1.78931547       6.28952323       0.00000000 NULL
P        1.06513517      -4.25955486       8.49791812       0.00000000 NULL
P        1.06513517       1.25354787       3.29135906       0.00000000 NULL
P        1.06513517       3.00600892      10.66912561       0.00000000 NULL
P        3.16078589       1.20718226       0.81462700       0.00000000 NULL
P        3.16078589      11.65728738       0.63813587       0.00000000 NULL
P        3.16078589       6.58508062       9.77643795       0.00000000 NULL
P        3.42516093       4.88778166       2.97868204       0.00000000 NULL
P        3.42516093       7.94286104       2.74360094       0.00000000 NULL
P        3.42516093       6.61890756       5.50691784       0.00000000 NULL
P        3.95607811      -2.88467196      10.67184205       0.00000000 NULL
P        3.95607811      -1.31656692       3.39508062       0.00000000 NULL
P        3.95607811       4.20124081       8.39148012       0.00000000 NULL
27
Lattice="4.8167993273809255 -1.0426473401415442e-42 -1.2238226195541643e-41 -2.764008608731568e-42 12.986185912989344 -1.1589784079243037e-15 9.038965801857415e-41 -6.49309295649467 11.246366898916387" Properties=species:S:1:pos:R:3:initial_magmoms:R:1:castep_labels:S:1 n_minim_iter=6 pbc="T T T"
P        2.34324510      -0.19647098       2.32308468       0.00000000 NULL
P        2.34324510       4.57947874       9.91467457       0.00000000 NULL
P        2.34324510      -4.38300582      10.25497341       0.00000000 NULL
P        3.60650210       0.45705245       8.84995589       0.00000000 NULL
P        3.60650210      -1.39971925       7.21720686       0.00000000 NULL
P        3.60650210       0.94266874       6.42556991       0.00000000 NULL
P        3.44441874       7.34066843       7.57931477       0.00000000 NULL
P        3.44441874       2.75197321       2.56754683       0.00000000 NULL
P        3.44441874       9.38663917       1.09950416       0.00000000 NULL
P        3.67176425       1.01815193       3.91244716       0.00000000 NULL
P        3.67176425       2.59573900      10.17188762       0.00000000 NULL
P        3.67176425      -3.61388899       8.40839788       0.00000000 NULL
P        1.65051902       0.14213141       9.64810126       0.00000000 NULL
P        1.65051902      -1.93347290       6.54540455       0.00000000 NULL
P        1.65051902       1.79134343       6.29922685       0.00000000 NULL
P        1.06213528      -4.26536095       8.50673732       0.00000000 NULL
P        1.06213528       1.25872345       3.29908617       0.00000000 NULL
P        1.06213528       3.00663944      10.68690917       0.00000000 NULL
P        3.15713972       1.21096792       0.81861532       0.00000000 NULL
P        3.15713972      11.67176093       0.63942019       0.00000000 NULL
P        3.15713972       6.59655196       9.78833025       0.00000000 NULL
P        3.41832631       4.89527697       2.98380298       0.00000000 NULL
P        3.41832631       7.95449889       2.74753159       0.00000000 NULL
P        3.41832631       6.62950496       5.51503118       0.00000000 NULL
P        3.94695316      -2.88960892      10.68672825       0.00000000 NULL
P        3.94695316      -1.31708009       3.40052691       0.00000000 NULL
P        3.94695316       4.20669095       8.40547750       0.00000000 NULL
27
Lattice="4.802142505707337 -1.0933968553711198e-42 -1.1752397136590267e-41 -2.8913926113871835e-42 12.990931410322803 -1.3974171404642567e-15 4.427360849955632e-41 -6.4954657051614 11.250476620160756" Properties=species:S:1:pos:R:3:initial_magmoms:R:1:castep_labels:S:1 n_minim_iter=7 pbc="T T T"
P        2.33088623      -0.20458869       2.32506073       0.00000000 NULL
P        2.33088623       4.58419903       9.91076612       0.00000000 NULL
P        2.33088623      -4.37960840      10.26512525       0.00000000 NULL
P        3.59503371       0.45389732       8.85154443       0.00000000 NULL
P        3.59503371      -1.39714465       7.21778989       0.00000000 NULL
P        3.59503371       0.94324927       6.43161778       0.00000000 NULL
P        3.43227006       7.33904746       7.57987024       0.00000000 NULL
P        3.43227006       2.75704814       2.56586529       0.00000000 NULL
P        3.43227006       9.39030345       1.10473995       0.00000000 NULL
P        3.66641266       1.01433004       3.91694430       0.00000000 NULL
P        3.66641266       2.59612806      10.17043892       0.00000000 NULL
P        3.66641266      -3.61045616       8.41356888       0.00000000 NULL
P        1.64583329       0.14272384       9.65014448       0.00000000 NULL
P        1.64583329      -1.93316584       6.54900572       0.00000000 NULL
P        1.64583329       1.79044394       6.30180190       0.00000000 NULL
P        1.05702985      -4.26537804       8.50037189       0.00000000 NULL
P        1.05702985       1.26661737       3.30636381       0.00000000 NULL
P        1.05702985       2.99876261      10.69421641       0.00000000 NULL
P        3.15348953       1.21563466       0.82517658       0.00000000 NULL
P        3.15348953      11.66849084       0.64018108       0.00000000 NULL
P        3.15348953       6.60227356       9.78511783       0.00000000 NULL
P        3.40790555       4.89708582       2.98618337       0.00000000 NULL
P        3.40790555       7.95627849       2.74790791       0.00000000 NULL
P        3.40790555       6.63303475       5.51638421       0.00000000 NULL
P        3.93211265      -2.89181430      10.68729073       0.00000000 NULL
P        3.93211265      -1.31409177       3.40244548       0.00000000 NULL
P        3.93211265       4.20590802       8.41121589       0.00000000 NULL
27
Lattice="4.813593053852584 -9.35860343898349e-43 6.29585403021529e-42 -2.4787768044454278e-42 12.96166657417301 -8.619550329378958e-16 5.65987802022988e-41 -6.480833287086504 11.225132528617445" Properties=species:S:1:pos:R:3:initial_magmoms:R:1:castep_labels:S:1 n_minim_iter=8 pbc="T T T"
P        2.32732966      -0.21673691       2.32076086       0.00000000 NULL
P        2.32732966       4.57936452       9.87705130       0.00000000 NULL
P        2.32732966      -4.36262567      10.25245176       0.00000000 NULL
P        3.60333701       0.44761108       8.82870121       0.00000000 NULL
P        3.60333701      -1.38885114       7.19842336       0.00000000 NULL
P        3.60333701       0.94124200       6.42313935       0.00000000 NULL
P        3.43772416       7.31618973       7.55951180       0.00000000 NULL
P        3.43772416       2.75684310       2.55624914       0.00000000 NULL
P        3.43772416       9.36946897       1.10937046       0.00000000 NULL
P        3.68481823       1.00548382       3.91308895       0.00000000 NULL
P        3.68481823       2.58925757      10.13936146       0.00000000 NULL
P        3.68481823      -3.59473946       8.39781351       0.00000000 NULL
P        1.64977165       0.14323531       9.62628004       0.00000000 NULL
P        1.64977165      -1.92738679       6.53603680       0.00000000 NULL
P        1.64977165       1.78415341       6.28794708       0.00000000 NULL
P        1.05682343      -4.25328941       8.46563644       0.00000000 NULL
P        1.05682343       1.27602241       3.30885650       0.00000000 NULL
P        1.05682343       2.97726893      10.67577098       0.00000000 NULL
P        3.17071864       1.21937549       0.83349911       0.00000000 NULL
P        3.17071864      11.63014806       0.63925947       0.00000000 NULL
P        3.17071864       6.59297824       9.75237281       0.00000000 NULL
P        3.41598480       4.88617854       2.98151156       0.00000000 NULL
P        3.41598480       7.93651319       2.74079783       0.00000000 NULL
P        3.41598480       6.61981007       5.50282200       0.00000000 NULL
P        3.93698900      -2.88677435      10.65768166       0.00000000 NULL
P        3.93698900      -1.30560196       3.39627065       0.00000000 NULL
P        3.93698900       4.19237825       8.39631162       0.00000000 NULL
27
Lattice="4.811829564403971 1.4524158753217664e-43 -1.1959089655420743e-41 4.007222160150493e-43 12.794421982398603 -8.495290850409253e-16 6.234328942406835e-41 -6.397210991199301 11.08029446349525" Properties=species:S:1:pos:R:3:initial_magmoms:R:1:castep_labels:S:1 n_minim_iter=9 pbc="T T T"
P        2.28759409      -0.25932803       2.29145005       0.00000000 NULL
P        2.28759409       4.54242168       9.70998367       0.00000000 NULL
P        2.28759409      -4.28309174      10.15915409       0.00000000 NULL
P        3.60027095       0.42193359       8.70502325       0.00000000 NULL
P        3.60027095      -1.35252645       7.09318694       0.00000000 NULL
P        3.60027095       0.93059477       6.36237762       0.00000000 NULL
P        3.42606713       7.20190111       7.45083996       0.00000000 NULL
P        3.42606713       2.74085538       2.51160823       0.00000000 NULL
P        3.42606713       9.24887840       1.11784516       0.00000000 NULL
P        3.72320479       0.96920207       3.88117605       0.00000000 NULL
P        3.72320479       2.55141353       9.97905894       0.00000000 NULL
P        3.72320479      -3.52061369       8.30035281       0.00000000 NULL
P        1.64969015       0.14655849       9.49475772       0.00000000 NULL
P        1.64969015      -1.89876901       6.45983787       0.00000000 NULL
P        1.64969015       1.75221243       6.20599222       0.00000000 NULL
P        1.04715630      -4.18717136       8.29639809       0.00000000 NULL
P        1.04715630       1.30590579       3.30589754       0.00000000 NULL
P        1.04715630       2.88126748      10.55829217       0.00000000 NULL
P        3.20704358       1.22718091       0.86109715       0.00000000 NULL
P        3.20704358      11.43510015       0.63222015       0.00000000 NULL
P        3.20704358       6.52935382       9.58697604       0.00000000 NULL
P        3.41438525       4.82497656       2.95041613       0.00000000 NULL
P        3.41438525       7.82679901       2.70334309       0.00000000 NULL
P        3.41438525       6.53985931       5.42653412       0.00000000 NULL
P        3.91845521      -2.85333109      10.49899240       0.00000000 NULL
P        3.91845521      -1.26851697       3.35973995       0.00000000 NULL
P        3.91845521       4.12184996       8.30185546       0.00000000 NULL
27
Lattice="4.905720718447375 -1.3851253718011082e-42 -2.7226769128057556e-41 -3.6678527732048944e-42 13.033699343625093 -1.835021655833281e-15 1.014329282651206e-40 -6.516849671812545 11.287514736867895" Properties=species:S:1:pos:R:3:initial_magmoms:R:1:castep_labels:S:1 n_minim_iter=10 pbc="T T T"
P        2.32337779      -0.27054866       2.33234650       0.00000000 NULL
P        2.32337779       4.63225332       9.88703834       0.00000000 NULL
P        2.32337779      -4.36170272      10.35564349       0.00000000 NULL
P        3.67095724       0.42710403       8.86760182       0.00000000 NULL
P        3.67095724      -1.37627015       7.22359563       0.00000000 NULL
P        3.67095724       0.94916806       6.48383088       0.00000000 NULL
P        3.49128399       7.33586567       7.58847523       0.00000000 NULL
P        3.49128399       2.79395483       2.55880728       0.00000000 NULL
P        3.49128399       9.42073047       1.14023108       0.00000000 NULL
P        3.80319148       0.98495564       3.95718899       0.00000000 NULL
P        3.80319148       2.59734630      10.16191571       0.00000000 NULL
P        3.80319148      -3.58229999       8.45592363       0.00000000 NULL
P        1.68100856       0.15151167       9.67271854       0.00000000 NULL
P        1.68100856      -1.93572550       6.58236728       0.00000000 NULL
P        1.68100856       1.78421578       6.31994250       0.00000000 NULL
P        1.06730702      -4.26249366       8.44067323       0.00000000 NULL
P        1.06730702       1.33825970       3.37574920       0.00000000 NULL
P        1.06730702       2.92423590      10.75860590       0.00000000 NULL
P        3.27576117       1.25292867       0.88233485       0.00000000 NULL
P        3.27576117      11.64311126       0.64389950       0.00000000 NULL
P        3.27576117       6.65451103       9.76127925       0.00000000 NULL
P        3.48083828       4.91659068       3.00658488       0.00000000 NULL
P        3.48083828       7.97162576       2.75459886       0.00000000 NULL
P        3.48083828       6.66233452       5.52632986       0.00000000 NULL
P        3.99281255      -2.90552652      10.69259081       0.00000000 NULL
P        3.99281255      -1.29044170       3.42495842       0.00000000 NULL
P        3.99281255       4.19597017       8.45747910       0.00000000 NULL
27
Lattice="4.852489489299116 6.1336983492493565e-43 -4.778967315180938e-41 1.6308274710764184e-42 12.853799006896683 7.00340693433428e-16 7.784190494453925e-41 -6.426899503448341 11.131716475111716" Properties=species:S:1:pos:R:3:initial_magmoms:R:1:castep_labels:S:1 n_minim_iter=11 pbc="T T T"
P        2.29608597      -0.26847845       2.29933752       0.00000000 NULL
P        2.29608597       4.56985465       9.74953744       0.00000000 NULL
P        2.29608597      -4.30137429      10.21455686       0.00000000 NULL
P        3.63045740       0.42019701       8.74489059       0.00000000 NULL
P        3.63045740      -1.35649577       7.12317134       0.00000000 NULL
P        3.63045740       0.93630069       6.39536989       0.00000000 NULL
P        3.45289380       7.23457468       7.48352011       0.00000000 NULL
P        3.45289380       2.75559378       2.52356428       0.00000000 NULL
P        3.45289380       9.29053197       1.12463095       0.00000000 NULL
P        3.76455442       0.97043890       3.90310301       0.00000000 NULL
P        3.76455442       2.56149432      10.02058859       0.00000000 NULL
P        3.76455442      -3.53193130       8.33974022       0.00000000 NULL
P        1.66328824       0.15010110       9.53852504       0.00000000 NULL
P        1.66328824      -1.90875542       6.49244421       0.00000000 NULL
P        1.66328824       1.75865623       6.23246257       0.00000000 NULL
P        1.05545806      -4.20256076       8.32108734       0.00000000 NULL
P        1.05545806       1.32190750       3.33164731       0.00000000 NULL
P        1.05545806       2.88065518      10.61069718       0.00000000 NULL
P        3.24191324       1.23647951       0.87204387       0.00000000 NULL
P        3.24191324      11.48034774       0.63479962       0.00000000 NULL
P        3.24191324       6.56387318       9.62487186       0.00000000 NULL
P        3.44305604       4.84892300       2.96538383       0.00000000 NULL
P        3.44305604       7.86124041       2.71659747       0.00000000 NULL
P        3.44305604       6.57053702       5.44973405       0.00000000 NULL
P        3.94817427      -2.86583917      10.54344844       0.00000000 NULL
P        3.94817427      -1.27107447       3.37810161       0.00000000 NULL
P        3.94817427       4.13691556       8.34188177       0.00000000 NULL
27
Lattice="4.850474120890037 6.849771798529852e-43 -3.0670958497667445e-41 1.8210123922061435e-42 12.84445614468954 -3.893419637517212e-15 8.110153787541936e-41 -6.422228072344766 11.123625319096274" Properties=species:S:1:pos:R:3:initial_magmoms:R:1:castep_labels:S:1 n_minim_iter=12 pbc="T T T"
P        2.29240887      -0.27025353       2.29687296       0.00000000 NULL
P        2.29240887       4.56820514       9.74114130       0.00000000 NULL
P        2.29240887      -4.29794969      10.20923525       0.00000000 NULL
P        3.62877382       0.41895308       8.73845987       0.00000000 NULL
P        3.62877382      -1.35497607       7.11721828       0.00000000 NULL
P        3.62877382       0.93602491       6.39157136       0.00000000 NULL
P        3.45092407       7.22926065       7.47760997       0.00000000 NULL
P        3.45092407       2.75402626       2.52191727       0.00000000 NULL
P        3.45092407       9.28339922       1.12409695       0.00000000 NULL
P        3.76560709       0.96895383       3.90122055       0.00000000 NULL
P        3.76560709       2.55919569      10.01215255       0.00000000 NULL
P        3.76560709      -3.52814760       8.33387640       0.00000000 NULL
P        1.66260007       0.15083233       9.53148105       0.00000000 NULL
P        1.66260007      -1.90769218       6.48850831       0.00000000 NULL
P        1.66260007       1.75686177       6.22726016       0.00000000 NULL
P        1.05493060      -4.19833501       8.31150121       0.00000000 NULL
P        1.05493060       1.32342502       3.33200883       0.00000000 NULL
P        1.05493060       2.87491191      10.60373948       0.00000000 NULL
P        3.24251444       1.23645480       0.87315630       0.00000000 NULL
P        3.24251444      11.47005384       0.63422200       0.00000000 NULL
P        3.24251444       6.56017749       9.61624589       0.00000000 NULL
P        3.44158176       4.84581337       2.96353881       0.00000000 NULL
P        3.44158176       7.85505020       2.71482696       0.00000000 NULL
P        3.44158176       6.56582257       5.44525843       0.00000000 NULL
P        3.94553625      -2.86364202      10.53463965       0.00000000 NULL
P        3.94553625      -1.26921584       3.37631764       0.00000000 NULL
P        3.94553625       4.13285977       8.33629222       0.00000000 NULL
27
Lattice="4.851802138713859 7.128939746388819e-43 -3.7925825762677936e-41 1.8959373587339364e-42 12.840912628233786 -1.1622276188377986e-15 1.2582079572891234e-40 -6.420456314116892 11.120556543826861" Properties=species:S:1:pos:R:3:initial_magmoms:R:1:castep_labels:S:1 n_minim_iter=13 pbc="T T T"
P        2.28978391      -0.27250374       2.29526886       0.00000000 NULL
P        2.28978391       4.56894768       9.73692584       0.00000000 NULL
P        2.28978391      -4.29644202      10.20891727       0.00000000 NULL
P        3.62959522       0.41774989       8.73598979       0.00000000 NULL
P        3.62959522      -1.35400708       7.11434255       0.00000000 NULL
P        3.62959522       0.93625911       6.39077963       0.00000000 NULL
P        3.45123329       7.22723513       7.47497283       0.00000000 NULL
P        3.45123329       2.75377933       2.52148169       0.00000000 NULL
P        3.45123329       9.28035640       1.12410089       0.00000000 NULL
P        3.76972640       0.96778921       3.90129660       0.00000000 NULL
P        3.76972640       2.55794038      10.00803717       0.00000000 NULL
P        3.76972640      -3.52572767       8.33177819       0.00000000 NULL
P        1.66301370       0.15181698       9.52876910       0.00000000 NULL
P        1.66301370      -1.90760765       6.48764824       0.00000000 NULL
P        1.66301370       1.75579259       6.22469462       0.00000000 NULL
P        1.05516063      -4.19576469       8.30499856       0.00000000 NULL
P        1.05516063       1.32599956       3.33441733       0.00000000 NULL
P        1.05516063       2.86976705      10.60169607       0.00000000 NULL
P        3.24570594       1.23712308       0.87494988       0.00000000 NULL
P        3.24570594      11.46462290       0.63390396       0.00000000 NULL
P        3.24570594       6.55962488       9.61170158       0.00000000 NULL