2
Lattice="2.00189 -7.991780619984314e-16 -4.2132744889373297e-16 -0.7595409804287647 4.169208630897392 -1.308308602755617e-15 -0.2615725456882919 -2.115469173914639 5.113866099778041" Properties=species:S:1:pos:R:3:initial_magmoms:R:1:castep_labels:S:1 n_minim_iter=1 pbc="T T T"
P        1.43866126      -0.59527115       1.71594243       0.00000000 NULL
P       -0.06210249       2.02138668       2.83328433       0.00000000 NULL
2
Lattice="2.0051325842686367 8.390824844381253e-06 -3.628765512108e-05 -0.76075378060018 4.170396606275623 -0.0006600733853181729 -0.2620977952087067 -2.116901188005698 5.114606094511607" Properties=species:S:1:pos:R:3:initial_magmoms:R:1:castep_labels:S:1 n_minim_iter=2 pbc="T T T"
P        1.44097377      -0.59555171       1.71596942       0.00000000 NULL
P       -0.06226178       2.02134519       2.83335180       0.00000000 NULL
2
Lattice="2.245012137296109 0.0004532140672193577 -0.002674582738544281 -0.8508405436041301 4.2542313389326 -0.046984900003382235 -0.3006507641477486 -2.217631836465397 5.166191766385637" Properties=species:S:1:pos:R:3:initial_magmoms:R:1:castep_labels:S:1 n_minim_iter=3 pbc="T T T"
P        1.61218721      -0.61515210       1.71749872       0.00000000 NULL
P       -0.07420551       2.01834610       2.83804148       0.00000000 NULL
2
Lattice="2.433134530324373 -0.014875746865417278 0.0014426835425357012 -0.9541410761330544 4.287317706453268 -0.06125001388264707 -0.2985150626185263 -2.2450471919595807 5.149043207781152" Properties=species:S:1:pos:R:3:initial_magmoms:R:1:castep_labels:S:1 n_minim_iter=4 pbc="T T T"
P        1.75139935      -0.62991319       1.70491270       0.00000000 NULL
P       -0.08562289       2.01803378       2.82860308       0.00000000 NULL
2
Lattice="2.50241870289595 -0.043991409773021406 0.010931190121350524 -1.0410656531337326 4.254752216663074 -0.05874725069761175 -0.2525617874162965 -2.21162824450041 5.10834781470686" Properties=species:S:1:pos:R:3:initial_magmoms:R:1:castep_labels:S:1 n_minim_iter=5 pbc="T T T"
P        1.81279159      -0.64114393       1.69470561       0.00000000 NULL
P       -0.09855253       2.00098483       2.81507779       0.00000000 NULL
