20
Lattice="5.631077566087818 -0.66812924624762 0.0 -1.1588168403985672 5.550907563218614 0.0 0.0 0.0 17.028694333960807" Properties=species:S:1:pos:R:3:initial_magmoms:R:1:castep_labels:S:1:forces:R:3 n_minim_iter=1 energy=-102.80440257789 stress="0.00169253315056516 -0.0008452840900145472 -0.0 -0.0008452840900145472 0.0015438889088369078 -0.0 -0.0 -0.0 0.0009031158699093389" free_energy=-102.80440257789 pbc="T T T"
P       -0.43508858       4.67924994      14.23929512       0.00000000 NULL      -0.18105200       0.43410900       0.18395500
P        4.90734931       0.20352838       5.72494795       0.00000000 NULL       0.18105200      -0.43410900       0.18395500
P       -0.22711456       4.90631430       5.72494795       0.00000000 NULL      -0.44830100       0.14233000       0.18395400
P        4.69937529      -0.02353598      14.23929512       0.00000000 NULL       0.44830100      -0.14233000       0.18395400
P       -0.05722230       5.02971654       0.63589950       0.00000000 NULL      -0.66214200       0.40997000      -0.08032300
P        4.52948303      -0.14693823       9.15024667       0.00000000 NULL       0.66214200      -0.40996900      -0.08032400
P       -0.54313472       4.49920127       9.15024667       0.00000000 NULL      -0.46639500       0.62368400      -0.08032300
P        5.01539545       0.38357705       0.63589950       0.00000000 NULL       0.46639600      -0.62368400      -0.08032300
P       -0.09902848       5.03757275       3.04189155       0.00000000 NULL       0.28321900       0.58323700      -0.58327000
P        4.57128921      -0.15479444      11.55623871       0.00000000 NULL      -0.28322000      -0.58323700      -0.58327000
P       -0.55462276       4.54015858      11.55623871       0.00000000 NULL      -0.55618700      -0.33322000      -0.58327000
P        5.02688349       0.34261973       3.04189155       0.00000000 NULL       0.55618700       0.33322000      -0.58327000
P        4.34661501       3.05274117      16.05803654       0.00000000 NULL      -0.44252200      -0.03476900      -0.16210300
P        0.12564572       1.83003714       7.54368938       0.00000000 NULL       0.44252200       0.03476900      -0.16210200
P        1.81199678       0.28546536       7.54368938       0.00000000 NULL      -0.00412700       0.44386700      -0.16210100
P        2.66026395       4.59731296      16.05803654       0.00000000 NULL       0.00412600      -0.44386800      -0.16210200
P        3.72516342       2.38829367      10.21502018       0.00000000 NULL      -0.02184200       0.35309900       0.64174100
P        0.74709731       2.49448465       1.70067302       0.00000000 NULL       0.02184200      -0.35309900       0.64174100
P        2.41945402       0.96273064       1.70067302       0.00000000 NULL      -0.35365400      -0.00917000       0.64174100
P        2.05280671       3.92004767      10.21502018       0.00000000 NULL       0.35365400       0.00917100       0.64174100
20
Lattice="5.594187273946983 -0.6469995894934779 0.0 -1.1345369876860383 5.516009930046119 0.0 0.0 0.0 16.972366964473306" Properties=species:S:1:pos:R:3:initial_magmoms:R:1:castep_labels:S:1:forces:R:3 n_minim_iter=2 energy=-102.846701241839 stress="-0.005924663235345248 0.002863665141302826 0.0 0.002863665141302826 -0.005421013365879039 0.0 0.0 0.0 -0.0038753265859009143" free_energy=-102.846701241839 pbc="T T T"
P       -0.41923462       4.65454922      14.19349031       0.00000000 NULL       0.04383500       0.29764600       0.11981700
P        4.87888491       0.21446112       5.70730683       0.00000000 NULL      -0.04383500      -0.29764600       0.11981700
P       -0.21373050       4.87891697       5.70730683       0.00000000 NULL      -0.29266100      -0.06973700       0.11981900
P        4.67338079      -0.00990663      14.19349031       0.00000000 NULL       0.29266100       0.06973700       0.11981900
P       -0.04600483       5.00402279       0.63323026       0.00000000 NULL      -0.55061600       0.27159800      -0.17785100
P        4.50565512      -0.13501245       9.11941375       0.00000000 NULL       0.55061600      -0.27159800      -0.17785100
P       -0.52916758       4.47650959       9.11941375       0.00000000 NULL      -0.31878200       0.52471200      -0.17785300
P        4.98881787       0.39250075       0.63323026       0.00000000 NULL       0.31878200      -0.52471200      -0.17785300
P       -0.08088436       5.01294405       3.02772094       0.00000000 NULL       0.39762500       0.38646200      -0.44821800
P        4.54053465      -0.14393371      11.51390442       0.00000000 NULL      -0.39762500      -0.38646200      -0.44821800
P       -0.54110982       4.51047358      11.51390442       0.00000000 NULL      -0.35014500      -0.42994800      -0.44821800
P        5.00076012       0.35853676       3.02772094       0.00000000 NULL       0.35014500       0.42994800      -0.44821800
P        4.32603123       3.04865927      16.00377803       0.00000000 NULL      -0.34045000      -0.23645500      -0.11702400
P        0.13361907       1.82035107       7.51759455       0.00000000 NULL       0.34045000       0.23645500      -0.11702400
P        1.80164951       0.29255960       7.51759455       0.00000000 NULL       0.20572300       0.35985100      -0.11702500
P        2.65800078       4.57645074      16.00377803       0.00000000 NULL      -0.20572300      -0.35985100      -0.11702500
P        3.70933849       2.38878062      10.18575157       0.00000000 NULL       0.02528900       0.14132000       0.62327700
P        0.75031180       2.48022972       1.69956809       0.00000000 NULL      -0.02528900      -0.14132000       0.62327700
P        2.40497231       0.96468411       1.69956809       0.00000000 NULL      -0.13856300      -0.03757400       0.62327700
P        2.05467798       3.90432623      10.18575157       0.00000000 NULL       0.13856300       0.03757400       0.62327700
20
Lattice="5.6854705260650915 -0.6929260055243551 0.0 -1.1882828508220542 5.60291936568152 0.0 0.0 0.0 17.27435943002394" Properties=species:S:1:pos:R:3:initial_magmoms:R:1:castep_labels:S:1:forces:R:3 n_minim_iter=3 energy=-103.411076770692 stress="-0.004617024798642779 0.006604730664326483 -0.0 0.006604730664326483 -0.003455521210581884 -0.0 -0.0 -0.0 0.006836255342408551" free_energy=-103.411076770692 pbc="T T T"
P       -0.46821651       4.76332602      14.46246679       0.00000000 NULL      -0.06214100      -0.01702400       0.31998900
P        4.96540419       0.14666734       5.82528707       0.00000000 NULL       0.06214100       0.01702400       0.31998900
P       -0.28884237       4.95916526       5.82528707       0.00000000 NULL       0.01151400       0.06339100       0.31998700
P        4.78603005      -0.04917190      14.46246679       0.00000000 NULL      -0.01151400      -0.06339100       0.31998700
P       -0.14145021       5.11310338       0.63405245       0.00000000 NULL       0.04434900      -0.12396200      -0.05875000
P        4.63863789      -0.20311002       9.27123217       0.00000000 NULL      -0.04434900       0.12396300      -0.05875000
P       -0.60865205       4.60301616       9.27123217       0.00000000 NULL       0.12736700      -0.03332300      -0.05874800
P        5.10583973       0.30697720       0.63405245       0.00000000 NULL      -0.12736700       0.03332300      -0.05874800
P       -0.08442383       5.13757960       3.02772156       0.00000000 NULL       0.23316800       0.11848900      -0.26121200
P        4.58161151      -0.22758625      11.66490127       0.00000000 NULL      -0.23316800      -0.11848900      -0.26121300
P       -0.62803895       4.54406498      11.66490127       0.00000000 NULL      -0.09761300      -0.24265300      -0.26121400
P        5.12522663       0.36592838       3.02772156       0.00000000 NULL       0.09761300       0.24265300      -0.26121300
P        4.33276122       3.05578065      16.27376068       0.00000000 NULL      -0.07176900       0.12275000      -0.25257400
P        0.16442646       1.85421270       7.63658097       0.00000000 NULL       0.07176900      -0.12275100      -0.25257300
P        1.83268240       0.32621470       7.63658097       0.00000000 NULL      -0.12856500       0.06074300      -0.25257100
P        2.66450528       4.58377866      16.27376068       0.00000000 NULL       0.12856400      -0.06074400      -0.25257200
P        3.75042467       2.42798800      10.42965220       0.00000000 NULL       0.12425600       0.02263600       0.25254700
P        0.74676301       2.48200536       1.79247249       0.00000000 NULL      -0.12425600      -0.02263500       0.25254700
P        2.40705199       0.96130450       1.79247249       0.00000000 NULL      -0.01166300      -0.12575600       0.25254600
P        2.09013569       3.94868885      10.42965220       0.00000000 NULL       0.01166400       0.12575700       0.25254600
20
Lattice="5.733299998303798 -0.7702389035326779 0.0 -1.26948820511463 5.643792743903729 0.0 0.0 0.0 17.001002427925258" Properties=species:S:1:pos:R:3:initial_magmoms:R:1:castep_labels:S:1:forces:R:3 n_minim_iter=4 energy=-103.536467966015 stress="-0.004990016821237019 -0.0002349822166290171 -0.0 -0.0002349822166290171 -0.005031348648587607 -0.0 -0.0 -0.0 -0.0033053090449155307" free_energy=-103.536467966015 pbc="T T T"
P       -0.53771068       4.80186177      14.23950043       0.00000000 NULL      -0.06278100       0.19214500       0.22347200
P        5.00152248       0.07169207       5.73899922       0.00000000 NULL       0.06278100      -0.19214500       0.22347300
P       -0.36669323       4.98857725       5.73899922       0.00000000 NULL      -0.19690400       0.04571000       0.22347400
P        4.83050503      -0.11502341      14.23950043       0.00000000 NULL       0.19690400      -0.04571000       0.22347400
P       -0.22618090       5.14804077       0.62118225       0.00000000 NULL       0.09492700      -0.18947500      -0.20921300
P        4.68999270      -0.27448694       9.12168347       0.00000000 NULL      -0.09492700       0.18947500      -0.20921400
P       -0.68425304       4.64792129       9.12168347       0.00000000 NULL       0.19706400      -0.07796300      -0.20921500
P        5.14806484       0.22563255       0.62118225       0.00000000 NULL      -0.19706400       0.07796400      -0.20921400
P       -0.14312672       5.17684905       2.96405151       0.00000000 NULL      -0.06830700      -0.05973300       0.02410800
P        4.60693852      -0.30329521      11.46455272       0.00000000 NULL       0.06830700       0.05973300       0.02410800
P       -0.70567543       4.56266289      11.46455272       0.00000000 NULL       0.05352200       0.07327900       0.02410900
P        5.16948723       0.31089095       2.96405151       0.00000000 NULL      -0.05352200      -0.07327900       0.02410900
P        4.31086495       3.01188891      16.01111518       0.00000000 NULL      -0.30249200       0.03503900      -0.14218100
P        0.15294685       1.86166493       7.51061397       0.00000000 NULL       0.30249100      -0.03503900      -0.14218100
P        1.84111155       0.31543200       7.51061397       0.00000000 NULL      -0.06140300       0.29825800      -0.14218200
P        2.62270025       4.55812184      16.01111518       0.00000000 NULL       0.06140200      -0.29825800      -0.14218200
P        3.74439611       2.39848625      10.28243195       0.00000000 NULL      -0.25415100      -0.23061300       0.10381300
P        0.71941569       2.47506759       1.78193074       0.00000000 NULL       0.25415100       0.23061300       0.10381400
P        2.40253638       0.93345458       1.78193074       0.00000000 NULL       0.20746200       0.27337200       0.10381400
P        2.06127542       3.94009926      10.28243195       0.00000000 NULL      -0.20746200      -0.27337200       0.10381400
20
Lattice="5.790687205678923 -0.7339941387340105 0.0 -1.2384096080714573 5.704134233373697 0.0 0.0 0.0 16.772510282724692" Properties=species:S:1:pos:R:3:initial_magmoms:R:1:castep_labels:S:1:forces:R:3 n_minim_iter=5 energy=-103.572622988884 stress="-0.0028413348834990192 0.0018868545427052333 -0.0 0.0018868545427052333 -0.002509482946406376 -0.0 -0.0 -0.0 -0.005514507199177727" free_energy=-103.572622988884 pbc="T T T"
P       -0.50990220       4.86430688      14.05457371       0.00000000 NULL       0.05222800       0.17102000       0.18939600
P        5.06217980       0.10583321       5.66831857       0.00000000 NULL      -0.05222800      -0.17102000       0.18939600
P       -0.33799662       5.05199201       5.66831857       0.00000000 NULL      -0.16578900      -0.06700900       0.18939500
P        4.89027422      -0.08185192      14.05457371       0.00000000 NULL       0.16578900       0.06700900       0.18939400
P       -0.19004515       5.21020818       0.60979805       0.00000000 NULL       0.18473900      -0.08333600      -0.29173200
P        4.74232275      -0.24006808       8.99605319       0.00000000 NULL      -0.18473900       0.08333600      -0.29173200
P       -0.65455036       4.70306513       8.99605319       0.00000000 NULL       0.09919700      -0.17673000      -0.29173100
P        5.20682796       0.26707497       0.60979805       0.00000000 NULL      -0.09919600       0.17673000      -0.29173100
P       -0.10322534       5.24475473       2.91941726       0.00000000 NULL       0.00577000       0.03583800       0.04487100
P        4.65550294      -0.27461464      11.30567240       0.00000000 NULL      -0.00577000      -0.03583800       0.04487100
P       -0.68135911       4.61355292      11.30567240       0.00000000 NULL      -0.03519600      -0.00888800       0.04487000
P        5.23363672       0.35658717       2.91941726       0.00000000 NULL       0.03519600       0.00888800       0.04487000
P        4.37401314       3.08718199      15.79135902       0.00000000 NULL      -0.23973700      -0.02204000      -0.01956700
P        0.17826446       1.88295810       7.40510388       0.00000000 NULL       0.23973700       0.02203900      -0.01956700
P        1.86010516       0.34251746       7.40510388       0.00000000 NULL       0.00095600       0.24074700      -0.01956600
P        2.69217244       4.62762263      15.79135902       0.00000000 NULL      -0.00095700      -0.24074800      -0.01956600
P        3.80077832       2.45858224      10.15018703       0.00000000 NULL      -0.10805100       0.03688700       0.07703300
P        0.75149929       2.51155785       1.76393189       0.00000000 NULL       0.10805100      -0.03688600       0.07703300
P        2.43607601       0.96861123       1.76393189       0.00000000 NULL      -0.04620700       0.10440800       0.07703200
P        2.11620159       4.00152886      10.15018703       0.00000000 NULL       0.04620700      -0.10440700       0.07703200
20
Lattice="5.817386359301989 -0.7976542048707591 0.0 -1.3041636939206003 5.725154438388558 0.0 0.0 0.0 16.881527076828764" Properties=species:S:1:pos:R:3:initial_magmoms:R:1:castep_labels:S:1:forces:R:3 n_minim_iter=6 energy=-103.636331348854 stress="-0.0033912068007318336 0.0007629728782052986 -0.0 0.0007629728782052986 -0.003257037548267222 -0.0 -0.0 -0.0 -0.003188869727467947" free_energy=-103.636331348854 pbc="T T T"
P       -0.57925844       4.90096618      14.17460915       0.00000000 NULL       0.33404300       0.04914800      -0.05565800
P        5.09248111       0.02653405       5.73384561       0.00000000 NULL      -0.33404300      -0.04914800      -0.05565800
P       -0.41964522       5.07523061       5.73384561       0.00000000 NULL      -0.01970000      -0.33706500      -0.05565900
P        4.93286789      -0.14773038      14.17460915       0.00000000 NULL       0.01970000       0.33706500      -0.05565900
P       -0.23616410       5.21120493       0.59504145       0.00000000 NULL      -0.10961100       0.27531400      -0.01270200
P        4.74938677      -0.28370470       9.03580499       0.00000000 NULL       0.10961100      -0.27531400      -0.01270200
P       -0.69863801       4.70627963       9.03580499       0.00000000 NULL      -0.28385900       0.08507200      -0.01270200
P        5.21186068       0.22122060       0.59504145       0.00000000 NULL       0.28385900      -0.08507200      -0.01270200
P       -0.16597946       5.26561272       2.92991696       0.00000000 NULL      -0.09438800      -0.06963400      -0.04234300
P        4.67920213      -0.33811249      11.37068050       0.00000000 NULL       0.09438800       0.06963400      -0.04234300
P       -0.74668883       4.63159890      11.37068050       0.00000000 NULL       0.06109600       0.10012200      -0.04234300
P        5.25991150       0.29590133       2.92991696       0.00000000 NULL      -0.06109600      -0.10012200      -0.04234300
P        4.32179639       3.06041958      15.88001486       0.00000000 NULL      -0.03473900      -0.38250500       0.13598000
P        0.19142629       1.86708065       7.43925132       0.00000000 NULL       0.03473900       0.38250500       0.13598000
P        1.84313583       0.35423791       7.43925132       0.00000000 NULL       0.37799300       0.06811300       0.13598200
P        2.67008684       4.57326232      15.88001486       0.00000000 NULL      -0.37799300      -0.06811300       0.13598200
P        3.76979190       2.42672826      10.22865558       0.00000000 NULL      -0.09588400      -0.08305100      -0.02527700
P        0.74343077       2.50077197       1.78789205       0.00000000 NULL       0.09588400       0.08305100      -0.02527700
P        2.42603835       0.95962894       1.78789205       0.00000000 NULL       0.07433500       0.10279300      -0.02527800
P        2.08718432       3.96787130      10.22865558       0.00000000 NULL      -0.07433500      -0.10279300      -0.02527800
20
Lattice="5.853011140661712 -0.8551683289871762 0.0 -1.3645773046629532 5.755604317811606 0.0 0.0 0.0 16.76241804637662" Properties=species:S:1:pos:R:3:initial_magmoms:R:1:castep_labels:S:1:forces:R:3 n_minim_iter=7 energy=-103.710712979555 stress="-0.0023930104264568266 0.0008275898809433056 -0.0 0.0008275898809433056 -0.002247484192349382 -0.0 -0.0 -0.0 -0.0017591375544854877" free_energy=-103.710712979555 pbc="T T T"
P       -0.61193323       4.94753179      14.10035816       0.00000000 NULL       0.13444500       0.12670100      -0.04852800
P        5.10036707      -0.04709580       5.71914914       0.00000000 NULL      -0.13444500      -0.12670100      -0.04852800
P       -0.49368282       5.07663663       5.71914914       0.00000000 NULL      -0.11443800      -0.14502700      -0.04852800
P        4.98211667      -0.17620064      14.10035816       0.00000000 NULL       0.11443800       0.14502700      -0.04852800
P       -0.27972618       5.25506987       0.57909592       0.00000000 NULL      -0.15794700       0.16197300      -0.11366600
P        4.76816002      -0.35463389       8.96030494       0.00000000 NULL       0.15794700      -0.16197300      -0.11366600
P       -0.77093901       4.71876766       8.96030494       0.00000000 NULL      -0.17518700       0.14315100      -0.11366600
P        5.25937285       0.18166833       0.57909592       0.00000000 NULL       0.17518700      -0.14315100      -0.11366600
P       -0.24554885       5.28902900       2.89786554       0.00000000 NULL       0.05133900      -0.18333800       0.01202200
P        4.73398269      -0.38859301      11.27907457       0.00000000 NULL      -0.05133900       0.18333800       0.01202200
P       -0.80177383       4.68174704      11.27907457       0.00000000 NULL       0.18712900      -0.03508300       0.01202200
P        5.29020767       0.21868895       2.89786554       0.00000000 NULL      -0.18712900       0.03508300       0.01202200
P        4.28353570       3.01423582      15.76830471       0.00000000 NULL       0.00151400      -0.24098600       0.10431500
P        0.20489814       1.88620017       7.38709569       0.00000000 NULL      -0.00151400       0.24098600       0.10431500
P        1.86100179       0.36933276       7.38709569       0.00000000 NULL       0.24019200       0.01960200       0.10431600
P        2.62743205       4.53110323      15.76830471       0.00000000 NULL      -0.24019200      -0.01960200       0.10431600
P        3.73750658       2.40285490      10.15352096       0.00000000 NULL       0.01617000      -0.25130200       0.04585700
P        0.75092726       2.49758109       1.77231193       0.00000000 NULL      -0.01617000       0.25130200       0.04585700
P        2.42220308       0.96681710       1.77231193       0.00000000 NULL       0.25175200       0.00590600       0.04585600
P        2.06623076       3.93361888      10.15352096       0.00000000 NULL      -0.25175200      -0.00590600       0.04585600
20
Lattice="5.86317454853388 -0.9841718448227619 0.0 -1.4939752163640767 5.754428560648502 0.0 0.0 0.0 16.558770156210706" Properties=species:S:1:pos:R:3:initial_magmoms:R:1:castep_labels:S:1:forces:R:3 n_minim_iter=8 energy=-103.827987588901 stress="-0.000315196570354687 0.0010811231134217766 -0.0 0.0010811231134217766 -0.00012507176580455845 -0.0 -0.0 -0.0 0.0007518154984139941" free_energy=-103.827987588901 pbc="T T T"
P       -0.71041492       5.00059740      13.96981021       0.00000000 NULL       0.28101700      -0.13073100      -0.08732000
P        5.07961426      -0.23034068       5.69042513       0.00000000 NULL      -0.28101700       0.13073100      -0.08732000
P       -0.67440549       5.03991220       5.69042513       0.00000000 NULL       0.15484500      -0.26848500      -0.08731900
P        5.04360483      -0.26965549      13.96981021       0.00000000 NULL      -0.15484500       0.26848500      -0.08731900
P       -0.40700138       5.28007130       0.53150338       0.00000000 NULL       0.01036600      -0.08554100      -0.11343400
P        4.77620071      -0.50981459       8.81088846       0.00000000 NULL      -0.01036600       0.08554100      -0.11343400
P       -0.92622754       4.71318434       8.81088846       0.00000000 NULL       0.08612100      -0.00283200      -0.11343500
P        5.29542688       0.05707237       0.53150338       0.00000000 NULL      -0.08612100       0.00283200      -0.11343500
P       -0.39700897       5.24235516       2.85246012       0.00000000 NULL      -0.05212800       0.03739400      -0.10636500
P        4.76620831      -0.47209845      11.13184520       0.00000000 NULL       0.05212800      -0.03739400      -0.10636500
P       -0.88778109       4.70653410      11.13184520       0.00000000 NULL      -0.04181600       0.04865400      -0.10636400
P        5.25698043       0.06372261       2.85246012       0.00000000 NULL       0.04181600      -0.04865400      -0.10636400
P        4.16054516       2.87006842      15.58458673       0.00000000 NULL       0.00141300      -0.15328300       0.08090800
P        0.20865418       1.90018829       7.30520165       0.00000000 NULL      -0.00141300       0.15328200       0.08090800
P        1.87460713       0.37429965       7.30520165       0.00000000 NULL       0.15281600       0.01201800       0.08090700
P        2.49459221       4.39595706      15.58458673       0.00000000 NULL      -0.15281600      -0.01201800       0.08090700
P        3.64482272       2.26948959      10.03231038       0.00000000 NULL      -0.19680500      -0.04047300       0.22621100
P        0.72437662       2.50076713       1.75292530       0.00000000 NULL       0.19680500       0.04047300       0.22621100
P        2.42770258       0.94064760       1.75292530       0.00000000 NULL       0.02307700       0.19959200       0.22621100
P        1.94149676       3.82960912      10.03231038       0.00000000 NULL      -0.02307700      -0.19959200       0.22621100
20
Lattice="5.8072992479044485 -1.5244953181085734 0.0 -2.0273273529902833 5.651438253530148 0.0 0.0 0.0 15.45599995448398" Properties=species:S:1:pos:R:3:initial_magmoms:R:1:castep_labels:S:1:forces:R:3 n_minim_iter=9 energy=-104.680505971507 stress="0.005107526679803335 -0.00516219592730709 0.0 -0.00516219592730709 0.004199673312120576 0.0 0.0 0.0 -7.229746823545794e-05" free_energy=-104.680505971507 pbc="T T T"
P       -1.06730572       5.05135130      13.16146425       0.00000000 NULL       0.11248200      -0.23664400       0.15739700
P        4.84727762      -0.92440837       5.43346427       0.00000000 NULL      -0.11248200       0.23664400       0.15739700
P       -1.34545369       4.74767159       5.43346427       0.00000000 NULL       0.24558700      -0.09132100       0.15739700
P        5.12542559      -0.62072866      13.16146425       0.00000000 NULL      -0.24558700       0.09132100       0.15739700
P       -0.95354753       5.20491912       0.27750985       0.00000000 NULL       0.83589200       0.00512500      -0.02341600
P        4.73351943      -1.07797619       8.00550983       0.00000000 NULL      -0.83589200      -0.00512500      -0.02341600
P       -1.48846654       4.62089885       8.00550983       0.00000000 NULL       0.06811500      -0.83312800      -0.02341500
P        5.26843844      -0.49395591       0.27750985       0.00000000 NULL      -0.06811500       0.83312800      -0.02341600
P       -1.04036214       4.98474044       2.59951824       0.00000000 NULL      -0.27574500       0.27734600      -0.16014100
P        4.82033404      -0.85779751      10.32751822       0.00000000 NULL       0.27574500      -0.27734600      -0.16014100
P       -1.27673874       4.72666637      10.32751822       0.00000000 NULL      -0.30043400       0.25039100      -0.16014100
P        5.05671064      -0.59972344       2.59951824       0.00000000 NULL       0.30043400      -0.25039100      -0.16014100
P        3.58336930       2.20268599      14.59952127       0.00000000 NULL      -0.30587300      -0.36648100      -0.30620800
P        0.19660260       1.92425694       6.87152129       0.00000000 NULL       0.30587300       0.36648100      -0.30620800
P        1.89963893       0.36440270       6.87152129       0.00000000 NULL       0.33827900       0.33679900      -0.30620800
P        1.88033297       3.76254023      14.59952127       0.00000000 NULL      -0.33827900      -0.33679900      -0.30620800
P        3.11786617       1.65853000       9.47092425       0.00000000 NULL      -0.36500700       0.26583500       0.33236800
P        0.66210573       2.46841294       1.74292427       0.00000000 NULL       0.36500700      -0.26583500       0.33236800
P        2.40092739       0.87578200       1.74292427       0.00000000 NULL      -0.29678600       0.34031800       0.33236800
P        1.37904451       3.25116094       9.47092425       0.00000000 NULL       0.29678600      -0.34031800       0.33236800
20
Lattice="5.793249113890637 -1.6323659085849018 0.0 -2.1335525793563006 5.627993172190854 0.0 0.0 0.0 15.176203980496206" Properties=species:S:1:pos:R:3:initial_magmoms:R:1:castep_labels:S:1:forces:R:3 n_minim_iter=10 energy=-104.758067223443 stress="0.00515454343711012 -0.008037909162974956 0.0 -0.008037909162974956 0.003740940309768434 0.0 0.0 0.0 -0.011805119072276703" free_energy=-104.758067223443 pbc="T T T"
P       -1.14030231       5.06072100      12.95629658       0.00000000 NULL       0.20316200      -0.35516600      -0.02788300
P        4.79999885      -1.06509374       5.36819458       0.00000000 NULL      -0.20316200       0.35516600      -0.02788400
P       -1.48145689       4.68825118       5.36819458       0.00000000 NULL       0.37159600      -0.17127100      -0.02788400
P        5.14115343      -0.69262392      12.95629658       0.00000000 NULL      -0.37159600       0.17127100      -0.02788400
P       -1.05100223       5.19321169       0.21822888       0.00000000 NULL       0.93125800      -0.00337600       0.09257400
P        4.71069877      -1.19758442       7.80633087       0.00000000 NULL      -0.93125800       0.00337600       0.09257400
P       -1.60561603       4.58768880       7.80633087       0.00000000 NULL       0.08493500      -0.92738400       0.09257500
P        5.26531257      -0.59206153       0.21822888       0.00000000 NULL      -0.08493500       0.92738400       0.09257500
P       -1.16734511       4.93021558       2.53541490       0.00000000 NULL      -0.31487700       0.27317700      -0.09713900
P        4.82704165      -0.93458832      10.12351689       0.00000000 NULL       0.31487700      -0.27317700      -0.09713900
P       -1.35382194       4.72662169      10.12351689       0.00000000 NULL      -0.29971000       0.28973600      -0.09713900
P        5.01351848      -0.73099443       2.53541490       0.00000000 NULL       0.29971100      -0.28973600      -0.09713900
P        3.46405047       2.05484901      14.34094568       0.00000000 NULL      -0.41279600      -0.29637700      -0.34718500
P        0.19564607       1.94077825       6.75284369       0.00000000 NULL       0.41279600       0.29637700      -0.34718500
P        1.91618052       0.36489704       6.75284369       0.00000000 NULL       0.25908100       0.43717200      -0.34718500
P        1.74351602       3.63073023      14.34094568       0.00000000 NULL      -0.25908100      -0.43717200      -0.34718500
P        3.01253928       1.53391367       9.33197006       0.00000000 NULL      -0.43492800       0.26396600       0.37963400
P        0.64715726       2.46171359       1.74386807       0.00000000 NULL       0.43492800      -0.26396600       0.37963400
P        2.39556321       0.86030416       1.74386807       0.00000000 NULL      -0.30104800       0.41013600       0.37963300
P        1.26413333       3.13532310       9.33197006       0.00000000 NULL       0.30104800      -0.41013600       0.37963300
20