12
Lattice="3.8481500000000004 3.1899897148874845e-16 -2.932174747323584e-16 -1.0005241516079506 5.671950462799305 -4.299938422858431e-16 -0.30293859779880866 -1.3446350939168505 11.53370267360274" Properties=species:S:1:pos:R:3:initial_magmoms:R:1:castep_labels:S:1 n_minim_iter=1 pbc="T T T"
P        2.63289270       4.75761070       6.05220321       0.00000000 NULL
P        0.62961606      -0.62884863       7.97039522       0.00000000 NULL
P        3.02605303       1.62632879       7.51125351       0.00000000 NULL
P        0.20063733       1.26808105       4.77806239       0.00000000 NULL
P       -0.19127274       2.82715556       5.98883936       0.00000000 NULL
P        3.13490341       1.59962706       2.99783308       0.00000000 NULL
P        1.47833292       0.53187578       3.40271448       0.00000000 NULL
P        2.49399713       2.83429978       9.05370401       0.00000000 NULL
P        1.50808327       4.38485153       8.23172240       0.00000000 NULL
P        2.62196713       1.85204206      11.43150599       0.00000000 NULL
P        1.70770310       2.73511337       5.16742635       0.00000000 NULL
P        0.30296075      -0.17851792      10.67123315       0.00000000 NULL
12
Lattice="3.8589958650844225 -0.0006955408496733966 -0.0007182810459250276 -1.004369278020966 5.685621430089423 0.0019195557673250996 -0.3057022173418758 -1.3442548204608327 11.55630572382324" Properties=species:S:1:pos:R:3:initial_magmoms:R:1:castep_labels:S:1 n_minim_iter=2 pbc="T T T"
P        2.63822184       4.77040120       6.06509647       0.00000000 NULL
P        0.62993252      -0.62769034       7.98609278       0.00000000 NULL
P        3.03286095       1.63168775       7.52620861       0.00000000 NULL
P        0.20010738       1.27214608       4.78796448       0.00000000 NULL
P       -0.19347597       2.83609213       6.00193528       0.00000000 NULL
P        3.14295327       1.60402029       3.00339664       0.00000000 NULL
P        1.48177324       0.53349366       3.40919075       0.00000000 NULL
P        2.49887793       2.84318743       9.07249912       0.00000000 NULL
P        1.51001837       4.39749962       8.24918684       0.00000000 NULL
P        2.62696741       1.85929639      11.45416770       0.00000000 NULL
P        1.71112669       2.74309239       5.17806179       0.00000000 NULL
P        0.30179200      -0.17555209      10.69237610       0.00000000 NULL
12
Lattice="4.080602725238525 -0.014885416742367845 -0.015873307561036772 -1.0829024144326977 5.965356330497934 0.04175535038520685 -0.3636122874300743 -1.3355870541236716 12.008513073065357" Properties=species:S:1:pos:R:3:initial_magmoms:R:1:castep_labels:S:1 n_minim_iter=3 pbc="T T T"
P        2.74630344       5.03264784       6.32361285       0.00000000 NULL
P        0.63523981      -0.60304739       8.30026457       0.00000000 NULL
P        3.17101133       1.74187326       7.82538269       0.00000000 NULL
P        0.18885232       1.35549910       4.98634238       0.00000000 NULL
P       -0.23927349       3.01964144       6.26505377       0.00000000 NULL
P        3.30708713       1.69430977       3.11424892       0.00000000 NULL
P        1.55170620       0.56652245       3.53842526       0.00000000 NULL
P        2.59750623       3.02562653       9.44909494       0.00000000 NULL
P        1.54861270       4.65689844       8.59940425       0.00000000 NULL
P        2.72793393       2.00840247      11.90731338       0.00000000 NULL
P        1.78044108       2.90693827       5.39107147       0.00000000 NULL
P        0.27639378      -0.11376764      11.11550885       0.00000000 NULL
12
Lattice="4.126825045152908 -0.00785543051156357 -0.014618259389543902 -1.0845584865095166 6.05684281077475 0.05122623814339036 -0.36594586032263876 -1.3383400112465031 12.009551847932059" Properties=species:S:1:pos:R:3:initial_magmoms:R:1:castep_labels:S:1 n_minim_iter=4 pbc="T T T"
P        2.78758496       5.12648526       6.33460679       0.00000000 NULL
P        0.64184170      -0.59351033       8.30394038       0.00000000 NULL
P        3.21243212       1.78569889       7.83327290       0.00000000 NULL
P        0.19706486       1.38105479       4.98950739       0.00000000 NULL
P       -0.23472801       3.07972485       6.27573624       0.00000000 NULL
P        3.34851032       1.73438856       3.11661744       0.00000000 NULL
P        1.57187099       0.57837861       3.53880346       0.00000000 NULL
P        2.63604837       3.08892265       9.46125562       0.00000000 NULL
P        1.57864787       4.74452904       8.60972570       0.00000000 NULL
P        2.76967713       2.05954105      11.90989500       0.00000000 NULL
P        1.80750897       2.96728716       5.39631782       0.00000000 NULL
P        0.28041668      -0.09301559      11.11817794       0.00000000 NULL
12
Lattice="4.148330256162357 0.006972219140571921 -0.0074485459795810656 -1.0682947724374878 6.134308728720518 0.06296074636986451 -0.351330835914982 -1.3311335457667643 11.910073187181416" Properties=species:S:1:pos:R:3:initial_magmoms:R:1:castep_labels:S:1 n_minim_iter=5 pbc="T T T"
P        2.83060960       5.21906581       6.30141933       0.00000000 NULL
P        0.65447086      -0.57443681       8.24052075       0.00000000 NULL
P        3.24918274       1.83781562       7.78309862       0.00000000 NULL
P        0.21524041       1.40688643       4.95275486       0.00000000 NULL
P       -0.21437824       3.13814588       6.23755188       0.00000000 NULL
P        3.37680539       1.77986679       3.09913483       0.00000000 NULL
P        1.58945627       0.59312577       3.51183428       0.00000000 NULL
P        2.67817433       3.15586338       9.40201886       0.00000000 NULL
P        1.62140137       4.83050721       8.55400970       0.00000000 NULL
P        2.81749209       2.11832897      11.81732378       0.00000000 NULL
P        1.83661102       3.02985510       5.36135736       0.00000000 NULL
P        0.29713444      -0.06211380      11.02910556       0.00000000 NULL
12
Lattice="4.149835119752647 0.030339308093019976 0.006282880123505922 -1.0342443017876561 6.209220988311401 0.07966508785644197 -0.31845839153430494 -1.3109451241123016 11.730741634542037" Properties=species:S:1:pos:R:3:initial_magmoms:R:1:castep_labels:S:1 n_minim_iter=6 pbc="T T T"
P        2.88015606       5.32354460       6.23784073       0.00000000 NULL
P        0.67497983      -0.54180061       8.12532484       0.00000000 NULL
P        3.28635311       1.90562773       7.69050196       0.00000000 NULL
P        0.24518347       1.43774044       4.88627992       0.00000000 NULL
P       -0.17665484       3.20457799       6.16323682       0.00000000 NULL
P        3.39590890       1.83647822       3.06811427       0.00000000 NULL
P        1.60754623       0.61294515       3.46367574       0.00000000 NULL
P        2.72890499       3.23652044       9.29097966       0.00000000 NULL
P        1.68115143       4.92793386       8.44986083       0.00000000 NULL
P        2.87737338       2.19422458      11.65147329       0.00000000 NULL
P        1.87114970       3.10360125       5.29703234       0.00000000 NULL
P        0.32824330      -0.01507794      10.86792903       0.00000000 NULL
12
Lattice="4.143037233532254 0.0957586393872125 0.04750188184813109 -0.9360525328198422 6.404468770562736 0.1326509157260869 -0.21724042346253203 -1.2368770037858021 11.347906056226504" Properties=species:S:1:pos:R:3:initial_magmoms:R:1:castep_labels:S:1 n_minim_iter=7 pbc="T T T"
P        3.01482206       5.60993404       6.12939419       0.00000000 NULL
P        0.73876064      -0.43652946       7.88786646       0.00000000 NULL
P        3.38637491       2.10004531       7.51427068       0.00000000 NULL
P        0.33274765       1.52884988       4.75566732       0.00000000 NULL
P       -0.06513428       3.39211715       6.01890800       0.00000000 NULL
P        3.43911501       1.99371153       3.01632345       0.00000000 NULL
P        1.65876292       0.67080369       3.36485174       0.00000000 NULL
P        2.86929635       3.46465470       9.08135187       0.00000000 NULL
P        1.84962939       5.19876364       8.25076058       0.00000000 NULL
P        3.04514061       2.41541576      11.31240890       0.00000000 NULL
P        1.96667825       3.30841511       5.17503780       0.00000000 NULL
P        0.42273826       0.13101722      10.52884642       0.00000000 NULL
12
Lattice="4.1022920174471915 0.1782752710876959 0.08703329408451152 -0.8038339810176018 6.592927761365678 0.21948997114877475 -0.1243822721915125 -1.095652217269761 11.117934596823497" Properties=species:S:1:pos:R:3:initial_magmoms:R:1:castep_labels:S:1 n_minim_iter=8 pbc="T T T"
P        3.14324471       5.93861739       6.13017164       0.00000000 NULL
P        0.79453131      -0.26765007       7.76438427       0.00000000 NULL
P        3.46018267       2.34943159       7.45340181       0.00000000 NULL
P        0.42534913       1.65268916       4.70829042       0.00000000 NULL
P        0.05833592       3.62162170       5.97430836       0.00000000 NULL
P        3.45058369       2.17979235       3.01200188       0.00000000 NULL
P        1.70628955       0.75107270       3.30890173       0.00000000 NULL
P        2.99441492       3.74759417       9.01931261       0.00000000 NULL
P        2.02066309       5.51834038       8.18882568       0.00000000 NULL
P        3.19442696       2.70756109      11.13761653       0.00000000 NULL
P        2.05702936       3.54646682       5.13471872       0.00000000 NULL
P        0.50847374       0.35011251      10.33739224       0.00000000 NULL
12
Lattice="3.9863578786221683 0.23485622038156947 0.0747533935248079 -0.6902939039875192 6.654948196660718 0.26441336145992617 -0.17183170283533833 -1.0334393678545535 10.851808301442437" Properties=species:S:1:pos:R:3:initial_magmoms:R:1:castep_labels:S:1 n_minim_iter=9 pbc="T T T"
P        3.11068195       6.07970140       6.02450753       0.00000000 NULL
P        0.73497988      -0.15721131       7.60122904       0.00000000 NULL
P        3.35958891       2.46915123       7.30236536       0.00000000 NULL
P        0.43938433       1.70143605       4.62573161       0.00000000 NULL
P        0.08214484       3.73390027       5.87767157       0.00000000 NULL
P        3.34892273       2.27305118       2.93925539       0.00000000 NULL
P        1.67936155       0.78117622       3.21071535       0.00000000 NULL
P        2.92885777       3.85070919       8.85328021       0.00000000 NULL
P        2.02072912       5.64077695       8.02358101       0.00000000 NULL
P        3.12451077       2.81892626      10.85624630       0.00000000 NULL
P        2.02811706       3.64969543       5.01376868       0.00000000 NULL
P        0.44884239       0.47367600      10.09568754       0.00000000 NULL
12
Lattice="4.025181479544974 0.22923098371561756 0.07010623356530725 -0.7086793655954219 6.761024778977788 0.28078683431167833 -0.18685092969551276 -1.0269592267869463 11.047622568922495" Properties=species:S:1:pos:R:3:initial_magmoms:R:1:castep_labels:S:1 n_minim_iter=10 pbc="T T T"
P        3.12177076       6.17935703       6.13766084       0.00000000 NULL
P        0.73030859      -0.13253065       7.74360385       0.00000000 NULL
P        3.37579965       2.51269205       7.43519273       0.00000000 NULL
P        0.43949455       1.73444075       4.71714114       0.00000000 NULL
P        0.06625932       3.81208909       5.99534235       0.00000000 NULL
P        3.36892414       2.30806314       2.98718355       0.00000000 NULL
P        1.69494643       0.78967928       3.26200235       0.00000000 NULL
P        2.93866955       3.91424856       9.02164208       0.00000000 NULL
P        2.02181489       5.73545720       8.17361332       0.00000000 NULL
P        3.13968363       2.86855688      11.04699528       0.00000000 NULL
P        2.03502911       3.71175075       5.10047936       0.00000000 NULL
P        0.43556053       0.51067629      10.27951508       0.00000000 NULL
12
Lattice="3.9870760761856183 0.23000042631552955 0.0707568162077744 -0.6976377958337292 6.736193557919854 0.2745318430059631 -0.1821700818329129 -1.033555880840389 10.98576876490911" Properties=species:S:1:pos:R:3:initial_magmoms:R:1:castep_labels:S:1 n_minim_iter=11 pbc="T T T"
P        3.09779755       6.15241363       6.10073419       0.00000000 NULL
P        0.72436499      -0.13215409       7.70281062       0.00000000 NULL
P        3.34663299       2.49940020       7.39407802       0.00000000 NULL
P        0.44093752       1.72230525       4.69070515       0.00000000 NULL
P        0.06848084       3.79732794       5.96217540       0.00000000 NULL
P        3.33691885       2.29838886       2.96918660       0.00000000 NULL
P        1.68245923       0.78308743       3.24132081       0.00000000 NULL
P        2.91589832       3.88774458       8.97140707       0.00000000 NULL
P        2.01008592       5.70501399       8.12290827       0.00000000 NULL
P        3.11788633       2.84336298      10.97936204       0.00000000 NULL
P        2.01904857       3.69365297       5.06591608       0.00000000 NULL
P        0.43299809       0.50598486      10.22119850       0.00000000 NULL
12
Lattice="3.97115503390314 0.22882236775787373 0.06931551840573692 -0.695234693683061 6.74690210603804 0.27433312399799004 -0.18482495318900624 -1.0370952824971738 10.991890260644785" Properties=species:S:1:pos:R:3:initial_magmoms:R:1:castep_labels:S:1 n_minim_iter=12 pbc="T T T"
P        3.08305480       6.15954297       6.10283138       0.00000000 NULL
P        0.71774073      -0.12641882       7.70979452       0.00000000 NULL
P        3.32969236       2.50109625       7.39801965       0.00000000 NULL
P        0.44074289       1.72228467       4.69480667       0.00000000 NULL
P        0.06456778       3.80697037       5.96859716       0.00000000 NULL
P        3.32026476       2.30059565       2.96831089       0.00000000 NULL
P        1.67690641       0.78059957       3.23967810       0.00000000 NULL
P        2.90115311       3.88582133       8.97782662       0.00000000 NULL
P        2.00053191       5.70821436       8.12491821       0.00000000 NULL
P        3.10466938       2.83842308      10.97983492       0.00000000 NULL
P        2.00881765       3.69689651       5.06318646       0.00000000 NULL
P        0.42608877       0.51140093      10.22667844       0.00000000 NULL
12
Lattice="3.905011589874635 0.22131428901627834 0.061621996475170915 -0.6891037833682551 6.802298311217388 0.2740773304133783 -0.2000535087568954 -1.0537618165824971 11.033379950632892" Properties=species:S:1:pos:R:3:initial_magmoms:R:1:castep_labels:S:1 n_minim_iter=13 pbc="T T T"
P        3.01600892       6.19632364       6.11913058       0.00000000 NULL
P        0.68659123      -0.10124808       7.75046907       0.00000000 NULL
P        3.25489786       2.50947564       7.42381176       0.00000000 NULL
P        0.43748534       1.72354072       4.71857258       0.00000000 NULL
P        0.04289380       3.85425737       6.00549231       0.00000000 NULL
P        3.24921916       2.31114364       2.96745810       0.00000000 NULL
P        1.65178565       0.76912031       3.23604565       0.00000000 NULL
P        2.83401132       3.87993653       9.01678286       0.00000000 NULL
P        1.95443563       5.72693405       8.14375983       0.00000000 NULL
P        3.04412161       2.81732440      10.99529096       0.00000000 NULL
P        1.96191489       3.71373317       5.05622571       0.00000000 NULL
P        0.39238519       0.53609508      10.26423840       0.00000000 NULL
12
Lattice="3.7527631973501734 0.18415203628837973 0.04169942761158862 -0.7042940079682454 6.948867547708311 0.26882580974610115 -0.2347947225951056 -1.1045043851368777 11.16721226959865" Properties=species:S:1:pos:R:3:initial_magmoms:R:1:castep_labels:S:1 n_minim_iter=14 pbc="T T T"
P        2.83514594       6.27609820       6.17264584       0.00000000 NULL
P        0.61136496      -0.05263455       7.86983169       0.00000000 NULL
P        3.07309341       2.51421569       7.50382985       0.00000000 NULL
P        0.42030246       1.71931893       4.78335153       0.00000000 NULL
P       -0.02893860       3.97022775       6.11516527       0.00000000 NULL
P        3.08571373       2.32349140       2.97491848       0.00000000 NULL
P        1.58184640       0.73165093       3.23760883       0.00000000 NULL
P        2.66119612       3.85121328       9.13018250       0.00000000 NULL
P        1.82046561       5.76006617       8.20828695       0.00000000 NULL
P        2.88956222       2.74328433      11.06418420       0.00000000 NULL
P        1.83417323       3.74102543       5.04409842       0.00000000 NULL
P        0.30947304       0.58667981      10.38546672       0.00000000 NULL
12
Lattice="3.517553020756223 0.0643922983797143 0.05540642244242336 -0.8196579720729615 6.9799713427761905 0.197779946107947 -0.13334862760319702 -1.2322907014842603 11.201555716646022" Properties=species:S:1:pos:R:3:initial_magmoms:R:1:castep_labels:S:1 n_minim_iter=15 pbc="T T T"
P        2.55092566       6.13059855       6.15593752       0.00000000 NULL
P        0.59858532      -0.07200295       7.92972829       0.00000000 NULL
P        2.86394516       2.35754795       7.52623757       0.00000000 NULL
P        0.42535423       1.61268205       4.78601424       0.00000000 NULL
P       -0.11614888       3.98048959       6.16332724       0.00000000 NULL
P        2.87017222       2.20759513       2.96970810       0.00000000 NULL
P        1.47795233       0.61560508       3.21461145       0.00000000 NULL
P        2.46307721       3.58994682       9.15413378       0.00000000 NULL
P        1.63135705       5.56543445       8.16175577       0.00000000 NULL
P        2.74778564       2.42636816      11.02047272       0.00000000 NULL
P        1.63829074       3.59651006       4.93101118       0.00000000 NULL
P        0.30919547       0.55487795      10.40557754       0.00000000 NULL
12
Lattice="3.652805408683868 0.0257188825962896 0.028753601666760525 -0.9118261513890118 7.287709711871691 0.26165975374864103 -0.2103667394031586 -1.1840114160467818 11.613550948615304" Properties=species:S:1:pos:R:3:initial_magmoms:R:1:castep_labels:S:1 n_minim_iter=16 pbc="T T T"
P        2.55243638       6.41868150       6.40996323       0.00000000 NULL
P        0.56579140       0.00173899       8.22753032       0.00000000 NULL
P        2.89939260       2.48420186       7.79863877       0.00000000 NULL
P        0.39642100       1.71539092       4.97812314       0.00000000 NULL
P       -0.20318088       4.21010372       6.42882525       0.00000000 NULL
P        2.94808741       2.30172306       3.07140264       0.00000000 NULL
P        1.50222348       0.63826226       3.31998256       0.00000000 NULL
P        2.46163205       3.79153349       9.51121827       0.00000000 NULL
P        1.58390944       5.85029692       8.49444932       0.00000000 NULL
P        2.75296364       2.58586994      11.42378630       0.00000000 NULL
P        1.63172509       3.77317991       5.11602526       0.00000000 NULL
P        0.24215434       0.67330265      10.79657904       0.00000000 NULL
12
Lattice="3.5730560164798573 0.03411538916520607 0.04209024111484163 -0.8787152377563308 7.109229449810395 0.21524882139903279 -0.16704988176769092 -1.2302018903494012 11.306853457087916" Properties=species:S:1:pos:R:3:initial_magmoms:R:1:castep_labels:S:1 n_minim_iter=17 pbc="T T T"
P        2.53004355       6.23020301       6.21965818       0.00000000 NULL
P        0.58187751      -0.04935598       8.00939469       0.00000000 NULL
P        2.86766773       2.38617599       7.59033105       0.00000000 NULL
P        0.41004933       1.64272334       4.83552205       0.00000000 NULL
P       -0.17039627       4.06797280       6.23555424       0.00000000 NULL
P        2.89982316       2.23256529       2.99140305       0.00000000 NULL
P        1.48058531       0.60963477       3.23444373       0.00000000 NULL
P        2.44825563       3.64090392       9.24688170       0.00000000 NULL
P        1.58880203       5.66156640       8.24286090       0.00000000 NULL
P        2.73844293       2.45317764      11.11147018       0.00000000 NULL
P        1.61831598       3.65259400       4.96413324       0.00000000 NULL
P        0.27507961       0.59457813      10.50403047       0.00000000 NULL
12
Lattice="3.571162709093009 0.028196860595761965 0.04365475436248504 -0.8869465439922061 7.113714079772829 0.20925726481612325 -0.16014358972319398 -1.2417907663601244 11.3045922194911" Properties=species:S:1:pos:R:3:initial_magmoms:R:1:castep_labels:S:1 n_minim_iter=18 pbc="T T T"
P        2.52392018       6.22304923       6.21552382       0.00000000 NULL
P        0.58576467      -0.05525412       8.00914110       0.00000000 NULL
P        2.86678205       2.37523663       7.58777894       0.00000000 NULL
P        0.41170754       1.63682350       4.83331503       0.00000000 NULL
P       -0.17365882       4.06495039       6.23174700       0.00000000 NULL
P        2.89891735       2.22676281       2.99070512       0.00000000 NULL
P        1.47911742       0.60300034       3.23250553       0.00000000 NULL
P        2.44726897       3.62671791       9.24450256       0.00000000 NULL
P        1.58384872       5.65317306       8.23676853       0.00000000 NULL
P        2.73961741       2.43489291      11.10562005       0.00000000 NULL
P        1.61364813       3.64613259       4.95717892       0.00000000 NULL
P        0.27953332       0.58747675      10.50060569       0.00000000 NULL
12
Lattice="3.5605432211587855 -0.007348956286853148 0.050334270136363934 -0.9365779404714977 7.1412392855376465 0.18262421632602363 -0.12686714401654828 -1.293952693529648 11.300801080337619" Properties=species:S:1:pos:R:3:initial_magmoms:R:1:castep_labels:S:1 n_minim_iter=19 pbc="T T T"
P        2.48336231       6.18949244       6.20141050       0.00000000 NULL
P        0.60332185      -0.08023895       8.01398173       0.00000000 NULL
P        2.85669457       2.32076001       7.58007468       0.00000000 NULL
P        0.41720506       1.60961091       4.82645493       0.00000000 NULL
P       -0.19721071       4.05577228       6.21899389       0.00000000 NULL
P        2.89079026       2.19562048       2.98966496       0.00000000 NULL
P        1.46938234       0.56903211       3.22411601       0.00000000 NULL
P        2.43520829       3.55762367       9.24099239       0.00000000 NULL
P        1.54899161       5.61614964       8.21390995       0.00000000 NULL
P        2.73867448       2.34465271      11.08359041       0.00000000 NULL
P        1.58361002       3.61581637       4.92550660       0.00000000 NULL
P        0.29892761       0.55878081      10.49081606       0.00000000 NULL
12
Lattice="3.5220762370217735 -0.0756399020348108 0.049533121320299835 -1.0272333761150605 7.157569902089886 0.16240339838684836 -0.1023776297710872 -1.3297806229802565 11.286797723226163" Properties=species:S:1:pos:R:3:initial_magmoms:R:1:castep_labels:S:1 n_minim_iter=20 pbc="T T T"
P        2.37180605       6.12237723       6.18469819       0.00000000 NULL
P        0.60610024      -0.09523333       8.01546056       0.00000000 NULL
P        2.79656184       2.23978720       7.55981806       0.00000000 NULL
P        0.40388631       1.57612393       4.81677430       0.00000000 NULL
P       -0.26182223       4.04467538       6.20481538       0.00000000 NULL
P        2.84638083       2.13492290       2.98466794       0.00000000 NULL
P        1.43566960       0.52100178       3.20541525       0.00000000 NULL
P        2.36749523       3.45941498       9.23452276       0.00000000 NULL
P        1.44555345       5.56096278       8.18485974       0.00000000 NULL
P        2.67900623       2.22336158      11.04218702       0.00000000 NULL
P        1.50563268       3.56724899       4.87982985       0.00000000 NULL
P        0.30098257       0.54575426      10.47085746       0.00000000 NULL
12
Lattice="3.539080963756203 -0.08391348550820563 0.052840312545544686 -1.0438494111969094 7.213082070545352 0.13814511075743813 -0.09091297197588201 -1.389359278253548 11.341953146777586" Properties=species:S:1:pos:R:3:initial_magmoms:R:1:castep_labels:S:1 n_minim_iter=21 pbc="T T T"
P        2.37850482       6.13763138       6.19700519       0.00000000 NULL
P        0.61971554      -0.12361704       8.05713171       0.00000000 NULL
P        2.81255165       2.21649197       7.58828311       0.00000000 NULL
P        0.41064602       1.56148910       4.83491691       0.00000000 NULL
P       -0.26860210       4.05005209       6.21979644       0.00000000 NULL
P        2.86597220       2.13518735       2.99488833       0.00000000 NULL
P        1.43922047       0.50257266       3.21490508       0.00000000 NULL
P        2.38358461       3.43348286       9.27205045       0.00000000 NULL
P        1.44448108       5.56494963       8.20491962       0.00000000 NULL
P        2.69299147       2.17359740      11.08094067       0.00000000 NULL
P        1.50766024       3.57224171       4.88196078       0.00000000 NULL
P        0.31769066       0.51295268      10.51649145       0.00000000 NULL
12
Lattice="3.5212336679296485 -0.08807564913878385 0.05371732000913624 -1.0453438787762286 7.179795372846298 0.13186048927811594 -0.08542504417054865 -1.3931997485803445 11.293801852351107" Properties=species:S:1:pos:R:3:initial_magmoms:R:1:castep_labels:S:1 n_minim_iter=22 pbc="T T T"
P        2.36271264       6.09958648       6.16770849       0.00000000 NULL
P        0.62019971      -0.12970726       8.02375483       0.00000000 NULL
P        2.79871655       2.19554179       7.55450616       0.00000000 NULL
P        0.40962505       1.54817149       4.81294743       0.00000000 NULL
P       -0.27047272       4.02527463       6.19002852       0.00000000 NULL
P        2.85219763       2.11825156       2.98223329       0.00000000 NULL
P        1.43120857       0.49530838       3.19991726       0.00000000 NULL
P        2.37206468       3.40295074       9.23172807       0.00000000 NULL
P        1.43309616       5.53014147       8.16561389       0.00000000 NULL
P        2.67930433       2.14583159      11.02996941       0.00000000 NULL
P        1.49724144       3.54897042       4.85616136       0.00000000 NULL
P        0.32130934       0.50360546      10.47051496       0.00000000 NULL
12
Lattice="3.519633771125712 -0.09392307283529025 0.05300592789713828 -1.0535466676875629 7.184533405333253 0.13106737239670818 -0.08538805587705707 -1.3954911208493876 11.302507223197253" Properties=species:S:1:pos:R:3:initial_magmoms:R:1:castep_labels:S:1 n_minim_iter=23 pbc="T T T"
P        2.35330080       6.09756698       6.17177913       0.00000000 NULL
P        0.61977518      -0.13012231       8.03092645       0.00000000 NULL
P        2.79360419       2.19029421       7.55889258       0.00000000 NULL
P        0.40759478       1.54647644       4.81662852       0.00000000 NULL
P       -0.27737977       4.02666908       6.19436591       0.00000000 NULL
P        2.84949599       2.11424297       2.98413020       0.00000000 NULL
P        1.42827535       0.49169326       3.20065454       0.00000000 NULL
P        2.36608644       3.39745949       9.23937387       0.00000000 NULL
P        1.42300936       5.52960688       8.17076229       0.00000000 NULL
P        2.67203902       2.13751013      11.03575022       0.00000000 NULL
P        1.49068289       3.54781457       4.85666301       0.00000000 NULL
P        0.32132566       0.50405105      10.47823461       0.00000000 NULL
12
Lattice="3.517426729713152 -0.09776738982055452 0.05282217984225413 -1.0586391347865174 7.18550069413613 0.1292853049800538 -0.08442174579833195 -1.3989017579681686 11.303965894532912" Properties=species:S:1:pos:R:3:initial_magmoms:R:1:castep_labels:S:1 n_minim_iter=24 pbc="T T T"
P        2.34678590       6.09319099       6.17138447       0.00000000 NULL
P        0.62004732      -0.13184363       8.03264437       0.00000000 NULL
P        2.78990015       2.18467207       7.55869165       0.00000000 NULL
P        0.40657778       1.54380335       4.81693963       0.00000000 NULL
P       -0.28149162       4.02512013       6.19411540       0.00000000 NULL
P        2.84718810       2.11035129       2.98418412       0.00000000 NULL
P        1.42597408       0.48848229       3.19981844       0.00000000 NULL
P        2.36218089       3.39071645       9.24052294       0.00000000 NULL
P        1.41635349       5.52604961       8.17017843       0.00000000 NULL
P        2.66699872       2.12874658      11.03486667       0.00000000 NULL
P        1.48615374       3.54508601       4.85443296       0.00000000 NULL
P        0.32236952       0.50236732      10.47912591       0.00000000 NULL
12
Lattice="3.508548005365738 -0.11353353588592992 0.052283120542970664 -1.079569041709846 7.190498360449881 0.12063161506721769 -0.07982939053203704 -1.415755552022298 11.30980356782356" Properties=species:S:1:pos:R:3:initial_magmoms:R:1:castep_labels:S:1 n_minim_iter=25 pbc="T T T"
P        2.32052531       6.07479688       6.16873382       0.00000000 NULL
P        0.62182394      -0.14057062       8.03962264       0.00000000 NULL
P        2.77525430       2.16016981       7.55737208       0.00000000 NULL
P        0.40277693       1.53174893       4.81785617       0.00000000 NULL
P       -0.29818343       4.01791338       6.19212055       0.00000000 NULL
P        2.83828273       2.09401980       2.98415562       0.00000000 NULL
P        1.41657124       0.47454040       3.19611407       0.00000000 NULL
P        2.34695257       3.36118560       9.24460970       0.00000000 NULL
P        1.38931927       5.51053989       8.16665096       0.00000000 NULL
P        2.64658323       2.09003190      11.03039395       0.00000000 NULL
P        1.46782883       3.53350837       4.84431036       0.00000000 NULL
P        0.32781239       0.49343479      10.48240700       0.00000000 NULL
12