30
Lattice="6.662899999999997 9.493375298670756e-16 0.0 -3.331449999999999 5.7702406628753335 0.0 0.0 0.0 17.632979999999996" Properties=species:S:1:pos:R:3:initial_magmoms:R:1:castep_labels:S:1 n_minim_iter=1 pbc="T T T"
P       -1.47767098       4.52194892      11.41550485       0.00000000 NULL
P        1.32350813       4.78896681       5.53784485       0.00000000 NULL
P        0.15416285       2.22956560      17.29316485       0.00000000 NULL
P       -3.21831796       5.76370760       3.69087718       0.00000000 NULL
P        3.26922618       5.67553198      15.44619718       0.00000000 NULL
P       -0.05090822       0.10124176       9.56853718       0.00000000 NULL
P        0.01491657       4.51928422       2.04053076       0.00000000 NULL
P        0.57490665       3.49768043      13.79585076       0.00000000 NULL
P       -0.58982323       3.52351669       7.91819076       0.00000000 NULL
P        0.98568344       5.56159915      13.07367679       0.00000000 NULL
P        0.99219443       2.13581419       7.19601679       0.00000000 NULL
P       -1.97787787       3.84306799       1.31835679       0.00000000 NULL
P       -2.62270100       4.92661474       7.79460591       0.00000000 NULL
P        2.24647402       5.57825899       1.91694591       0.00000000 NULL
P        0.37622698       1.03560760      13.67226591       0.00000000 NULL
P        2.79651641       1.27885959       6.81343108       0.00000000 NULL
P        3.04071668       2.70895662       0.93577108       0.00000000 NULL
P        4.15711690       1.78242446      12.69109108       0.00000000 NULL
P        2.56173580       4.00925438       3.14750104       0.00000000 NULL
P        5.52269824       1.54708519      14.90282104       0.00000000 NULL
P        1.90991596       0.21390109       9.02516104       0.00000000 NULL
P        0.15599048       5.60935366      10.20231527       0.00000000 NULL
P        1.44839752       2.83047212       4.32465527       0.00000000 NULL
P       -1.60438801       3.10065556      16.07997527       0.00000000 NULL
P        3.26932612       5.02643529       5.94482520       0.00000000 NULL
P        6.04980759       0.42570355       0.06716520       0.00000000 NULL
P        0.67521629       0.31810183      11.82248520       0.00000000 NULL
P        2.30471510       4.47276281      14.14761696       0.00000000 NULL
P       -0.61028134       1.53791743       8.26995696       0.00000000 NULL
P       -1.69443377       5.52980109       2.39229696       0.00000000 NULL
30
Lattice="6.701939240324053 -7.98166651299942e-16 0.0 -3.350969620162026 5.804049636740413 0.0 0.0 0.0 17.71804312419728" Properties=species:S:1:pos:R:3:initial_magmoms:R:1:castep_labels:S:1 n_minim_iter=2 pbc="T T T"
P       -1.48609489       4.54824861      11.47054783       0.00000000 NULL
P        1.33097666       4.81692126       5.56453346       0.00000000 NULL
P        0.15511822       2.24292941      17.37656221       0.00000000 NULL
P       -3.23717482       5.79777652       3.70897718       0.00000000 NULL
P        3.28863954       5.70863701      15.52100593       0.00000000 NULL
P       -0.05146472       0.10168575       9.61499155       0.00000000 NULL
P        0.01521399       4.54562394       2.05033922       0.00000000 NULL
P        0.57804919       3.51806197      13.86236797       0.00000000 NULL
P       -0.59326319       3.54441337       7.95635359       0.00000000 NULL
P        0.99123255       5.59417740      13.13658385       0.00000000 NULL
P        0.99811384       2.14852837       7.23056948       0.00000000 NULL
P       -1.98934640       3.86539351       1.32455510       0.00000000 NULL
P       -2.63811938       4.95507999       7.83221123       0.00000000 NULL
P        2.25931521       5.61118805       1.92619686       0.00000000 NULL
P        0.37880416       1.04183125      13.73822561       0.00000000 NULL
P        2.81304964       1.28627198       6.84636544       0.00000000 NULL
P        3.05838901       2.72474120       0.94035107       0.00000000 NULL
P        4.18147021       1.79303646      12.75237982       0.00000000 NULL
P        2.57689957       4.03235149       3.16256267       0.00000000 NULL
P        5.55463866       1.55621341      14.97459142       0.00000000 NULL
P        1.92137063       0.21548475       9.06857704       0.00000000 NULL
P        0.15704582       5.64210839      10.25170800       0.00000000 NULL
P        1.45671666       2.84698977       4.34569362       0.00000000 NULL
P       -1.61376249       3.11900112      16.15772237       0.00000000 NULL
P        3.28864593       5.05588676       5.97333700       0.00000000 NULL
P        6.08517302       0.42805534       0.06732263       0.00000000 NULL
P        0.67908990       0.32010755      11.87935138       0.00000000 NULL
P        2.31847589       4.49866923      14.21583860       0.00000000 NULL
P       -0.61424573       1.54685601       8.30982423       0.00000000 NULL
P       -1.70423016       5.56257404       2.40380985       0.00000000 NULL
30
Lattice="7.05238650816817 7.8545606441856195e-16 0.0 -3.526193254084086 6.107545873380267 0.0 0.0 0.0 18.484469557492627" Properties=species:S:1:pos:R:3:initial_magmoms:R:1:castep_labels:S:1 n_minim_iter=3 pbc="T T T"
P       -1.56153142       4.78434466      11.96644169       0.00000000 NULL
P        1.39793646       5.06769942       5.80495183       0.00000000 NULL
P        0.16359495       2.36304767      18.12793154       0.00000000 NULL
P       -3.40647351       6.10375252       3.87215327       0.00000000 NULL
P        3.46304824       6.00576221      16.19513297       0.00000000 NULL
P       -0.05657473       0.10557702      10.03364312       0.00000000 NULL
P        0.01790850       4.78198972       2.13869791       0.00000000 NULL
P        0.60617707       3.70104180      14.46167761       0.00000000 NULL
P       -0.62408557       3.73206024       8.30018776       0.00000000 NULL
P        1.04087442       5.88659176      13.70330354       0.00000000 NULL
P        1.05130754       2.26282631       7.54181369       0.00000000 NULL
P       -2.09218196       4.06567369       1.38032384       0.00000000 NULL
P       -2.77657514       5.21023553       8.17114247       0.00000000 NULL
P        2.37429064       5.90701272       2.00965262       0.00000000 NULL
P        0.40228450       1.09784351      14.33263232       0.00000000 NULL
P        2.96145539       1.35274498       7.14325604       0.00000000 NULL
P        3.21697707       2.86647779       0.98176619       0.00000000 NULL
P        4.40014730       1.88832311      13.30474589       0.00000000 NULL
P        2.71318425       4.23936368       3.29812883       0.00000000 NULL
P        5.84099776       1.63817755      15.62110854       0.00000000 NULL
P        2.02439774       0.23000466       9.45961869       0.00000000 NULL
P        0.16643954       5.93599494      10.69689353       0.00000000 NULL
P        1.53130939       2.99540753       4.53540368       0.00000000 NULL
P       -1.69774893       3.28368928      16.85838338       0.00000000 NULL
P        3.46210867       5.32024676       6.23010318       0.00000000 NULL
P        6.40260776       0.44914843       0.06861333       0.00000000 NULL
P        0.71386333       0.33815069      12.39159303       0.00000000 NULL
P        2.44208822       4.73103483      14.83043434       0.00000000 NULL
P       -0.65004102       1.62711802       8.66894449       0.00000000 NULL
P       -1.79204721       5.85693890       2.50745463       0.00000000 NULL
30
Lattice="7.147610207515337 -5.405298815745665e-16 0.0 -3.573805103757668 6.190012016057246 0.0 0.0 0.0 18.705438055701144" Properties=species:S:1:pos:R:3:initial_magmoms:R:1:castep_labels:S:1 n_minim_iter=4 pbc="T T T"
P       -1.58066212       4.84932245      12.10887803       0.00000000 NULL
P        1.41616238       5.13424435       5.87373201       0.00000000 NULL
P        0.16449973       2.39645724      18.34402405       0.00000000 NULL
P       -3.45279899       6.18745197       3.91970100       0.00000000 NULL
P        3.51108497       6.08649767      16.38999304       0.00000000 NULL
P       -0.05828599       0.10607440      10.15484702       0.00000000 NULL
P        0.01828460       4.84578363       2.16400295       0.00000000 NULL
P        0.61362432       3.75128527      14.63429498       0.00000000 NULL
P       -0.63190893       3.78295514       8.39914897       0.00000000 NULL
P        1.05341281       5.96554548      13.86641528       0.00000000 NULL
P        1.06580242       2.29495703       7.63126926       0.00000000 NULL
P       -2.11921523       4.11952153       1.39612325       0.00000000 NULL
P       -2.81461802       5.27699752       8.26957221       0.00000000 NULL
P        2.40351781       5.98904397       2.03442619       0.00000000 NULL
P        0.41110021       1.11398256      14.50471822       0.00000000 NULL
P        3.00136129       1.37039872       7.23017846       0.00000000 NULL
P        3.25992456       2.90555754       0.99503245       0.00000000 NULL
P        4.46012946       1.91405577      13.46532448       0.00000000 NULL
P        2.75137142       4.29341834       3.33613434       0.00000000 NULL
P        5.91632874       1.66054530      15.80642637       0.00000000 NULL
P        2.05371515       0.23604838       9.57128036       0.00000000 NULL
P        0.16758853       6.01465694      10.82652599       0.00000000 NULL
P        1.55124633       3.03754762       4.59137997       0.00000000 NULL
P       -1.71883487       3.32781948      17.06167201       0.00000000 NULL
P        3.50911135       5.39197990       6.30315597       0.00000000 NULL
P        6.48884100       0.45504249       0.06800996       0.00000000 NULL
P        0.72346296       0.34298963      12.53830199       0.00000000 NULL
P        2.47588147       4.79310350      15.00684576       0.00000000 NULL
P       -0.66079645       1.64928401       8.77169974       0.00000000 NULL
P       -1.81508503       5.93763652       2.53655372       0.00000000 NULL
30
Lattice="7.173745909119459 2.9114633608488823e-16 0.0 -3.58687295455973 6.212646197592145 0.0 0.0 0.0 18.79046739420382" Properties=species:S:1:pos:R:3:initial_magmoms:R:1:castep_labels:S:1 n_minim_iter=5 pbc="T T T"
P       -1.58406898       4.86831185      12.16301004       0.00000000 NULL
P        1.42124326       5.15033425       5.89952090       0.00000000 NULL
P        0.16282571       2.40664630      18.42649917       0.00000000 NULL
P       -3.46595041       6.21112714       3.93857914       0.00000000 NULL
P        3.52509614       6.10868374      16.46555741       0.00000000 NULL
P       -0.05914573       0.10548153      10.20206827       0.00000000 NULL
P        0.01797526       4.86269143       2.17350580       0.00000000 NULL
P        0.61535372       3.76573345      14.70048406       0.00000000 NULL
P       -0.63332899       3.79686752       8.43699493       0.00000000 NULL
P        1.05570625       5.98651922      13.92897857       0.00000000 NULL
P        1.06975165       2.30511816       7.66548943       0.00000000 NULL
P       -2.12545790       4.13365502       1.40200030       0.00000000 NULL
P       -2.82559726       5.29202626       8.30828193       0.00000000 NULL
P        2.40895485       6.01367208       2.04479280       0.00000000 NULL
P        0.41664240       1.11959406      14.57177106       0.00000000 NULL
P        3.01177042       1.37471841       7.26522152       0.00000000 NULL
P        3.27152881       2.91701730       1.00173239       0.00000000 NULL
P        4.47731963       1.92091049      13.52871065       0.00000000 NULL
P        2.76334241       4.30542482       3.34939823       0.00000000 NULL
P        5.93380902       1.66680906      15.87637650       0.00000000 NULL
P        2.06346743       0.24041232       9.61288737       0.00000000 NULL
P        0.16597305       6.03464469      10.87794580       0.00000000 NULL
P        1.55629612       3.05158698       4.61445667       0.00000000 NULL
P       -1.72226917       3.33906074      17.14143494       0.00000000 NULL
P        3.52184300       5.41161946       6.33013298       0.00000000 NULL
P        6.51255138       0.45683097       0.06664384       0.00000000 NULL
P        0.72622448       0.34419578      12.59362211       0.00000000 NULL
P        2.48549318       4.80877791      15.07379198       0.00000000 NULL
P       -0.66509572       1.65575701       8.81030285       0.00000000 NULL
P       -1.82039747       5.96075749       2.54681372       0.00000000 NULL
30
Lattice="7.1706413761841725 4.3260791552853155e-16 0.0 -3.5853206880920867 6.209957593203302 0.0 0.0 0.0 18.808507657387306" Properties=species:S:1:pos:R:3:initial_magmoms:R:1:castep_labels:S:1 n_minim_iter=6 pbc="T T T"
P       -1.58088269       4.86777909      12.17368760       0.00000000 NULL
P        1.42074100       5.14515262       5.90418504       0.00000000 NULL
P        0.16014168       2.40698348      18.44319015       0.00000000 NULL
P       -3.46504593       6.20933820       3.94328817       0.00000000 NULL
P        3.52464689       6.10610629      16.48229327       0.00000000 NULL
P       -0.05960097       0.10447070      10.21279072       0.00000000 NULL
P        0.01742899       4.85976210       2.17523273       0.00000000 NULL
P        0.61464224       3.76498260      14.71423784       0.00000000 NULL
P       -0.63207124       3.79517050       8.44473528       0.00000000 NULL
P        1.05371863       5.98296724      13.94198359       0.00000000 NULL
P        1.06922162       2.30592687       7.67248104       0.00000000 NULL
P       -2.12294025       4.13102108       1.40297849       0.00000000 NULL
P       -2.82510063       5.28528999       8.31751806       0.00000000 NULL
P        2.40442502       6.01392151       2.04801551       0.00000000 NULL
P        0.42067560       1.12070369      14.58702061       0.00000000 NULL
P        3.00972457       1.37340925       7.27461446       0.00000000 NULL
P        3.26986570       2.91675504       1.00511190       0.00000000 NULL
P        4.47637179       1.91979331      13.54411701       0.00000000 NULL
P        2.76418403       4.29976400       3.35051411       0.00000000 NULL
P        5.92693352       1.66622201      15.88951922       0.00000000 NULL
P        2.06484451       0.24397160       9.62001666       0.00000000 NULL
P        0.16325295       6.02984311      10.89073114       0.00000000 NULL
P        1.55505015       3.05365484       4.62122859       0.00000000 NULL
P       -1.71830310       3.33641724      17.16023369       0.00000000 NULL
P        3.52011075       5.40922773       6.33449125       0.00000000 NULL
P        6.50979394       0.45683839       0.06498870       0.00000000 NULL
P        0.72605737       0.34389147      12.60399381       0.00000000 NULL
P        2.48489197       4.80488812      15.08686366       0.00000000 NULL
P       -0.66661151       1.65553396       8.81736110       0.00000000 NULL
P       -1.81828047       5.95949311       2.54785855       0.00000000 NULL
30
Lattice="7.14662215334451 7.23778699909785e-16 0.0 -3.573311076672256 6.189156336044994 0.0 0.0 0.0 18.869208725924203" Properties=species:S:1:pos:R:3:initial_magmoms:R:1:castep_labels:S:1 n_minim_iter=7 pbc="T T T"
P       -1.55724171       4.86277896      12.20573330       0.00000000 NULL
P        1.41659989       5.10637774       5.91599706       0.00000000 NULL
P        0.14064182       2.40915598      18.49546954       0.00000000 NULL
P       -3.45775167       6.19478406       3.96252877       0.00000000 NULL
P        3.52040513       6.08626509      16.54200125       0.00000000 NULL
P       -0.06265346       0.09726352      10.25226501       0.00000000 NULL
P        0.01369634       4.83734322       2.17962827       0.00000000 NULL
P        0.60910286       3.75862334      14.75910075       0.00000000 NULL
P       -0.62279921       3.78234611       8.46936451       0.00000000 NULL
P        1.03914477       5.95578840      13.98433117       0.00000000 NULL
P        1.06498059       2.31133637       7.69459492       0.00000000 NULL
P       -2.10412536       4.11118791       1.40485868       0.00000000 NULL
P       -2.82093803       5.23503609       8.35377639       0.00000000 NULL
P        2.37083217       6.01464229       2.06404015       0.00000000 NULL
P        0.45010585       1.12863430      14.64351263       0.00000000 NULL
P        2.99427076       1.36349761       7.31613840       0.00000000 NULL
P        3.25699926       2.91429299       1.02640216       0.00000000 NULL
P        4.46866320       1.91136574      13.60587464       0.00000000 NULL
P        2.77011005       4.25784785       3.34527819       0.00000000 NULL
P        5.87566045       1.66124674      15.92475068       0.00000000 NULL
P        2.07416273       0.27006175       9.63501444       0.00000000 NULL
P        0.14328906       5.99360380      10.94314966       0.00000000 NULL
P        1.54565754       3.06826247       4.65341342       0.00000000 NULL
P       -1.68894660       3.31644640      17.23288590       0.00000000 NULL
P        3.50713016       5.39083285       6.34253562       0.00000000 NULL
P        6.48834418       0.45647610       0.05279937       0.00000000 NULL
P        0.72445888       0.34184740      12.63227186       0.00000000 NULL
P        2.48031355       4.77580562      15.12527047       0.00000000 NULL
P       -0.67749886       1.65323898       8.83553423       0.00000000 NULL
P       -1.80281469       5.94926807       2.54579799       0.00000000 NULL
30
Lattice="7.20407412442708 -6.235708165045585e-16 0.0 -3.6020370622135394 6.238911202499988 0.0 0.0 0.0 18.485961999141416" Properties=species:S:1:pos:R:3:initial_magmoms:R:1:castep_labels:S:1 n_minim_iter=8 pbc="T T T"
P       -1.54541380       4.91407817      11.95009983       0.00000000 NULL
P        1.42638637       5.12023973       5.78811250       0.00000000 NULL
P        0.11902743       2.44350451      18.11208716       0.00000000 NULL
P       -3.49059771       6.25044920       3.88795179       0.00000000 NULL
P        3.55630958       6.13663290      16.21192646       0.00000000 NULL
P       -0.06571188       0.09074031      10.04993912       0.00000000 NULL
P        0.01173853       4.86700150       2.13235928       0.00000000 NULL
P        0.60704061       3.79524459      14.45633395       0.00000000 NULL
P       -0.61877914       3.81557632       8.29434661       0.00000000 NULL
P        1.03404664       5.99347409      13.69697207       0.00000000 NULL
P        1.07144043       2.34666350       7.53498474       0.00000000 NULL
P       -2.10548708       4.13768482       1.37299741       0.00000000 NULL
P       -2.85022364       5.23329463       8.19761769       0.00000000 NULL
P        2.35524085       6.09062997       2.03563036       0.00000000 NULL
P        0.49498279       1.15389781      14.35960502       0.00000000 NULL
P        3.01204026       1.36633627       7.19304697       0.00000000 NULL
P        3.27929885       2.94723969       1.03105964       0.00000000 NULL
P        4.51477208       1.92533525      13.35503431       0.00000000 NULL
P        2.81504469       4.25758127       3.25137532       0.00000000 NULL
P        5.88168825       1.67222036      15.57534998       0.00000000 NULL
P        2.10937824       0.30910958       9.41336265       0.00000000 NULL
P        0.11949068       6.02081802      10.74286581       0.00000000 NULL
P        1.55239895       3.12502023       4.58087848       0.00000000 NULL
P       -1.67188964       3.33198417      16.90485314       0.00000000 NULL
P        3.53679271       5.43454881       6.19974089       0.00000000 NULL
P        6.54009803       0.45868447       0.03775355       0.00000000 NULL
P        0.72922045       0.34567793      12.36172822       0.00000000 NULL
P        2.50793052       4.79853525      14.80514995       0.00000000 NULL
P       -0.70034890       1.66771204       8.64316262       0.00000000 NULL
P       -1.80758163       6.01157512       2.48117529       0.00000000 NULL
30
Lattice="7.134707566359426 5.521447028431541e-16 0.0 -3.5673537831797133 6.178838001040311 0.0 0.0 0.0 17.83133442177164" Properties=species:S:1:pos:R:3:initial_magmoms:R:1:castep_labels:S:1 n_minim_iter=9 pbc="T T T"
P       -1.51230901       4.87868811      11.52285019       0.00000000 NULL
P        1.41386856       5.04919197       5.57907205       0.00000000 NULL
P        0.09844045       2.42979593      17.46662833       0.00000000 NULL
P       -3.45905616       6.19529105       3.75281135       0.00000000 NULL
P        3.52745372       6.07682299      15.64036763       0.00000000 NULL
P       -0.06839757       0.08556197       9.69658949       0.00000000 NULL
P        0.00612666       4.81254123       2.05500446       0.00000000 NULL
P        0.59736584       3.76726154      13.94256074       0.00000000 NULL
P       -0.60349251       3.77787323       7.99878260       0.00000000 NULL
P        1.01451449       5.92634517      13.20936607       0.00000000 NULL
P        1.05775443       2.33707010       7.26558793       0.00000000 NULL
P       -2.07226893       4.09426074       1.32180979       0.00000000 NULL
P       -2.82432754       5.14158193       7.92259871       0.00000000 NULL
P        2.29755055       6.05398644       1.97882057       0.00000000 NULL
P        0.52677699       1.16210764      13.86637685       0.00000000 NULL
P        2.97464318       1.34374726       6.96445210       0.00000000 NULL
P        3.24375145       2.93084781       1.02067396       0.00000000 NULL
P        4.48366671       1.90424294      12.90823024       0.00000000 NULL
P        2.81082144       4.18623380       3.10745096       0.00000000 NULL
P        5.78732787       1.65147833      14.99500724       0.00000000 NULL
P        2.10391203       0.34112588       9.05122910       0.00000000 NULL
P        0.09694636       5.94496264      10.37981600       0.00000000 NULL
P        1.53266171       3.12239867       4.43603786       0.00000000 NULL
P       -1.62960807       3.29031469      16.32359415       0.00000000 NULL
P        3.49991690       5.38289251       5.96758327       0.00000000 NULL
P        6.47911699       0.45637480       0.02380513       0.00000000 NULL
P        0.72302746       0.33957070      11.91136141       0.00000000 NULL
P        2.48746109       4.73718661      14.26942572       0.00000000 NULL
P       -0.70856039       1.65604021       8.32564758       0.00000000 NULL
P       -1.77890070       5.96444919       2.38186944       0.00000000 NULL
30
Lattice="7.275071702269231 4.0564515391395525e-16 0.0 -3.637535851134616 6.3003969085184535 0.0 0.0 0.0 18.041073432178205" Properties=species:S:1:pos:R:3:initial_magmoms:R:1:castep_labels:S:1 n_minim_iter=10 pbc="T T T"
P       -1.54047483       4.97461462      11.65861740       0.00000000 NULL
P        1.44084419       5.14717994       5.64492626       0.00000000 NULL
P        0.09963063       2.47899927      17.67230855       0.00000000 NULL
P       -3.52679847       6.31855865       3.79766933       0.00000000 NULL
P        3.59789569       6.19541466      15.82505161       0.00000000 NULL
P       -0.07109722       0.08682052       9.81136047       0.00000000 NULL
P        0.00634180       4.90609966       2.07909632       0.00000000 NULL
P        0.60810018       3.84185492      14.10647861       0.00000000 NULL
P       -0.61444199       3.85283924       8.09278746       0.00000000 NULL
P        1.03301625       6.04220892      13.36386850       0.00000000 NULL
P        1.07866244       2.38467414       7.35017736       0.00000000 NULL
P       -2.11167869       4.17391076       1.33648622       0.00000000 NULL
P       -2.87966058       5.23771497       8.01758685       0.00000000 NULL
P        2.33828866       6.17539864       2.00389570       0.00000000 NULL
P        0.54137192       1.18768021      14.03127799       0.00000000 NULL
P        3.03294342       1.36896226       7.04885983       0.00000000 NULL
P        3.30662024       2.98930973       1.03516869       0.00000000 NULL
P        4.57304390       1.94212492      13.06255098       0.00000000 NULL
P        2.86878525       4.26521580       3.14083322       0.00000000 NULL
P        5.89692846       1.68334810      15.16821550       0.00000000 NULL
P        2.14689384       0.35183301       9.15452436       0.00000000 NULL
P        0.09821544       6.06030280      10.50328829       0.00000000 NULL
P        1.56173261       3.18518844       4.48959714       0.00000000 NULL
P       -1.65994805       3.35530258      16.51697943       0.00000000 NULL
P        3.56878386       5.48888868       6.03630473       0.00000000 NULL
P        6.60666095       0.46529508       0.02261359       0.00000000 NULL
P        0.73716273       0.34621315      12.04999587       0.00000000 NULL
P        2.53745641       4.82806924      14.43624308       0.00000000 NULL
P       -0.72503344       1.68886058       8.42255193       0.00000000 NULL
P       -1.81242297       6.08386400       2.40886079       0.00000000 NULL
30
Lattice="7.255738221801066 -3.759163177593582e-16 0.0 -3.6278691109005328 6.283653623289453 0.0 0.0 0.0 17.955383456427988" Properties=species:S:1:pos:R:3:initial_magmoms:R:1:castep_labels:S:1 n_minim_iter=11 pbc="T T T"
P       -1.53528031       4.96242014      11.60318690       0.00000000 NULL
P        1.43735295       5.13203530       5.61805908       0.00000000 NULL
P        0.09792736       2.47285181      17.58831471       0.00000000 NULL
P       -3.51728754       6.30233227       3.77964433       0.00000000 NULL
P        3.58875451       6.17854785      15.74989997       0.00000000 NULL
P       -0.07146697       0.08642713       9.76477215       0.00000000 NULL
P        0.00555878       4.89245959       2.06911980       0.00000000 NULL
P        0.60634578       3.83260979      14.03937544       0.00000000 NULL
P       -0.61190457       3.84223788       8.05424762       0.00000000 NULL
P        1.02970638       6.02540646      13.30013642       0.00000000 NULL
P        1.07543276       2.37919851       7.31500860       0.00000000 NULL
P       -2.10513915       4.16270228       1.32988078       0.00000000 NULL
P       -2.87171743       5.22040263       7.98100236       0.00000000 NULL
P        2.32899090       6.16043256       1.99587454       0.00000000 NULL
P        0.54272653       1.18647206      13.96613018       0.00000000 NULL
P        3.02397405       1.36441852       7.01766500       0.00000000 NULL
P        3.29750318       2.98260602       1.03253718       0.00000000 NULL
P        4.56213010       1.93662909      13.00279281       0.00000000 NULL
P        2.86298365       4.25143922       3.12338312       0.00000000 NULL
P        5.87823164       1.67851744      15.09363876       0.00000000 NULL
P        2.14239203       0.35369697       9.10851094       0.00000000 NULL
P        0.09631918       6.04288581      10.45452107       0.00000000 NULL
P        1.55726391       3.17879586       4.46939325       0.00000000 NULL
P       -1.65358310       3.34562558      16.43964889       0.00000000 NULL
P        3.55867572       5.47437625       6.00659798       0.00000000 NULL
P        6.58948015       0.46456192       0.02147017       0.00000000 NULL
P        0.73545146       0.34471546      11.99172580       0.00000000 NULL
P        2.53073495       4.81391570      14.36674206       0.00000000 NULL
P       -0.72426331       1.68501502       8.38161424       0.00000000 NULL
P       -1.80647165       6.06837654       2.39648642       0.00000000 NULL
30
Lattice="7.260579862381685 1.8759519724079991e-16 0.0 -3.6302899311908425 6.287846607028262 0.0 0.0 0.0 17.90998311471064" Properties=species:S:1:pos:R:3:initial_magmoms:R:1:castep_labels:S:1 n_minim_iter=12 pbc="T T T"
P       -1.53514082       4.96661297      11.57386605       0.00000000 NULL
P        1.43849348       5.13401107       5.60387167       0.00000000 NULL
P        0.09664734       2.47506918      17.54386042       0.00000000 NULL
P       -3.51942944       6.30727944       3.77020294       0.00000000 NULL
P        3.59168901       6.18212219      15.71019168       0.00000000 NULL
P       -0.07225957       0.08629158       9.74019731       0.00000000 NULL
P        0.00487783       4.89502405       2.06379349       0.00000000 NULL
P        0.60648633       3.83611026      14.00378223       0.00000000 NULL
P       -0.61136417       3.84455891       8.03378786       0.00000000 NULL
P        1.02969289       6.02867071      13.26613861       0.00000000 NULL
P        1.07584560       2.38177106       7.29614424       0.00000000 NULL
P       -2.10553850       4.16525146       1.32614987       0.00000000 NULL
P       -2.87329645       5.22014606       7.96241850       0.00000000 NULL
P        2.32713739       6.16612130       1.99242413       0.00000000 NULL
P        0.54615906       1.18942587      13.93241287       0.00000000 NULL
P        3.02514906       1.36434251       7.00228972       0.00000000 NULL
P        3.29927066       2.98581942       1.03229535       0.00000000 NULL
P        4.56645006       1.93768469      12.97228409       0.00000000 NULL
P        2.86688485       4.25162769       3.11279649       0.00000000 NULL
P        5.87886509       1.67923766      15.05278523       0.00000000 NULL
P        2.14511985       0.35698127       9.08279086       0.00000000 NULL
P        0.09486910       6.04554586      10.42924696       0.00000000 NULL
P        1.55787181       3.18291462       4.45925259       0.00000000 NULL
P       -1.65274092       3.34723274      16.39924134       0.00000000 NULL
P        3.56047230       5.47810860       5.99028332       0.00000000 NULL
P        6.59423499       0.46533284       0.02028895       0.00000000 NULL
P        0.73616249       0.34440517      11.96027770       0.00000000 NULL
P        2.53258711       4.81561601      14.32943576       0.00000000 NULL
P       -0.72613770       1.68675383       8.35944139       0.00000000 NULL