16
Lattice="5.393410000000003 7.888967635632523e-16 -2.45127502541891e-16 0.09636133881228773 5.4799228357051115 -2.6068597219630346e-15 0.9034114314217265 1.5912829147897876 12.102165597490167" Properties=species:S:1:pos:R:3:initial_magmoms:R:1:castep_labels:S:1 n_minim_iter=1 pbc="T T T"
P        1.60431261       0.58867711       3.90265432       0.00000000 NULL
P        4.72750080       2.71415580       0.37923346       0.00000000 NULL
P        3.13208971       4.89984836       3.00636431       0.00000000 NULL
P        1.49249605       6.20299231       7.03207224       0.00000000 NULL
P        5.40222939       3.85547327       6.33627154       0.00000000 NULL
P        2.84991065       5.76151194       5.58195687       0.00000000 NULL
P        5.09619597       3.86545898       9.57828801       0.00000000 NULL
P        1.99844124       2.67016749       7.62254174       0.00000000 NULL
P        1.54984727       1.41698016      10.61465091       0.00000000 NULL
P        0.22573122       4.55842316       0.29943057       0.00000000 NULL
P        0.79551613       0.73873707       1.20917940       0.00000000 NULL
P        3.09266853       2.39437861      11.55261957       0.00000000 NULL
P        1.69369050       3.37565200       2.85991600       0.00000000 NULL
P        4.43216246       4.17950812       4.39475500       0.00000000 NULL
P        2.17066113       4.84542480      11.26614437       0.00000000 NULL
P        4.72421935       6.84352495      10.43746552       0.00000000 NULL
16
Lattice="5.398477529004033 0.000827916164929845 -0.0002532880631905348 0.09729307412956327 5.484840085128839 0.0024487586173998375 0.9039361789181793 1.5982631576515984 12.1228405259848" Properties=species:S:1:pos:R:3:initial_magmoms:R:1:castep_labels:S:1 n_minim_iter=2 pbc="T T T"
P        1.60553362       0.59133638       3.90927886       0.00000000 NULL
P        4.73224154       2.71720640       0.38079598       0.00000000 NULL
P        3.13564228       4.90605768       3.01301556       0.00000000 NULL
P        1.49432732       6.21188011       7.04654113       0.00000000 NULL
P        5.40767603       3.86259187       6.34833240       0.00000000 NULL
P        2.85347001       5.76958018       5.59367314       0.00000000 NULL
P        5.10112904       3.87384656       9.59572073       0.00000000 NULL
P        2.00031121       2.67633137       7.63621158       0.00000000 NULL
P        1.55094717       1.42330269      10.63228065       0.00000000 NULL
P        0.22637572       4.56264202       0.30231659       0.00000000 NULL
P        0.79637377       0.74039536       1.21166173       0.00000000 NULL
P        3.09562360       2.40239152      11.57277307       0.00000000 NULL
P        1.69562488       3.38016989       2.86609313       0.00000000 NULL
P        4.43693123       4.18579087       4.40385595       0.00000000 NULL
P        2.17302688       4.85488934      11.28667588       0.00000000 NULL
P        4.72923942       6.85512147      10.45738850       0.00000000 NULL
16
Lattice="5.505135669066691 0.01935854727134379 -0.005733143101051423 0.11802655252852105 5.587043746936453 0.05691178149504065 0.9149728971628995 1.7514446597070141 12.57228861220643" Properties=species:S:1:pos:R:3:initial_magmoms:R:1:castep_labels:S:1 n_minim_iter=3 pbc="T T T"
P        1.63111389       0.64967655       4.05337108       0.00000000 NULL
P        4.83248558       2.78160976       0.41524733       0.00000000 NULL
P        3.21127292       5.03771093       3.15832064       0.00000000 NULL
P        1.53376463       6.40152059       7.36234382       0.00000000 NULL
P        5.52304364       4.01602565       6.61131385       0.00000000 NULL
P        2.92963804       5.94159424       5.84951571       0.00000000 NULL
P        5.20545871       4.05542761       9.97539049       0.00000000 NULL
P        2.03990608       2.80991307       7.93370314       0.00000000 NULL
P        1.57404213       1.56194826      11.01525449       0.00000000 NULL
P        0.24062218       4.65058724       0.36629319       0.00000000 NULL
P        0.81461914       0.77633272       1.26594670       0.00000000 NULL
P        3.15824275       2.57754142      12.01124527       0.00000000 NULL
P        1.73695147       3.47631439       3.00107266       0.00000000 NULL
P        4.53819589       4.32024162       4.60267329       0.00000000 NULL
P        2.22352873       5.05915636      11.73364401       0.00000000 NULL
P        4.83604022       7.10422184      10.89159153       0.00000000 NULL
16
Lattice="5.496945655791677 0.03990430877007762 -0.00634674844773499 0.138755550874612 5.548614669681362 0.09919882851375647 0.9182860541658056 1.8370336140531573 12.757611850342867" Properties=species:S:1:pos:R:3:initial_magmoms:R:1:castep_labels:S:1 n_minim_iter=4 pbc="T T T"
P        1.62863070       0.68346326       4.11417887       0.00000000 NULL
P        4.83500192       2.77814864       0.43925398       0.00000000 NULL
P        3.22330748       5.03743802       3.23154313       0.00000000 NULL
P        1.55171810       6.41757216       7.51256221       0.00000000 NULL
P        5.53100355       4.05838953       6.73329591       0.00000000 NULL
P        2.95006238       5.95446563       5.97388025       0.00000000 NULL
P        5.21095542       4.11750092      10.14450924       0.00000000 NULL
P        2.04418534       2.85737715       8.06120735       0.00000000 NULL
P        1.57481144       1.64008588      11.17049064       0.00000000 NULL
P        0.25384264       4.62116308       0.41127541       0.00000000 NULL
P        0.81707036       0.78951408       1.29165352       0.00000000 NULL
P        3.16504018       2.66520213      12.19749751       0.00000000 NULL
P        1.74730416       3.48085878       3.06859450       0.00000000 NULL
P        4.54934373       4.34030129       4.70151149       0.00000000 NULL
P        2.23772782       5.11684631      11.93021474       0.00000000 NULL
P        4.85409215       7.15736640      11.08936291       0.00000000 NULL
16
Lattice="5.455733740704646 0.08149989089401152 -0.0021317802155728545 0.18028203319889197 5.455781785384087 0.16659252281465 0.9331132724744393 1.9654976481792665 12.998430721782878" Properties=species:S:1:pos:R:3:initial_magmoms:R:1:castep_labels:S:1 n_minim_iter=5 pbc="T T T"
P        1.62145870       0.73663587       4.19567345       0.00000000 NULL
P        4.81903945       2.76353282       0.48015270       0.00000000 NULL
P        3.23698235       5.01354071       3.33654248       0.00000000 NULL
P        1.58996012       6.40923015       7.72052768       0.00000000 NULL
P        5.52836822       4.11250716       6.90432959       0.00000000 NULL
P        2.98209643       5.94638526       6.14883890       0.00000000 NULL
P        5.20821191       4.20142283      10.37541861       0.00000000 NULL
P        2.05187163       2.92046849       8.23042062       0.00000000 NULL
P        1.58055735       1.75916813      11.37123172       0.00000000 NULL
P        0.28231558       4.54925514       0.48152726       0.00000000 NULL
P        0.81934287       0.80754571       1.32770674       0.00000000 NULL
P        3.17443042       2.79574346      12.44511118       0.00000000 NULL
P        1.76322548       3.47096451       3.16493624       0.00000000 NULL
P        4.55483873       4.35576697       4.84404801       0.00000000 NULL
P        2.26746702       5.18411026      12.19420964       0.00000000 NULL
P        4.87959332       7.21062208      11.36017064       0.00000000 NULL
16
Lattice="5.3278042340572265 0.2300571426440384 0.023475660397281814 0.3289365611766505 5.2049560103851045 0.3532059719946773 1.012975386550908 2.327891925172783 13.62098181890491" Properties=species:S:1:pos:R:3:initial_magmoms:R:1:castep_labels:S:1 n_minim_iter=6 pbc="T T T"
P        1.61093078       0.89722896       4.41568500       0.00000000 NULL
P        4.77697246       2.74873747       0.60274925       0.00000000 NULL
P        3.30644372       4.97049990       3.61709805       0.00000000 NULL
P        1.74902806       6.39899944       8.27058076       0.00000000 NULL
P        5.54919935       4.30103248       7.37163074       0.00000000 NULL
P        3.11364773       5.94824790       6.61617433       0.00000000 NULL
P        5.23378676       4.46601805      10.99220375       0.00000000 NULL
P        2.10265356       3.10936960       8.67027610       0.00000000 NULL
P        1.62865277       2.10428711      11.88925922       0.00000000 NULL
P        0.39295993       4.36153065       0.67785924       0.00000000 NULL
P        0.83287219       0.86357498       1.42688043       0.00000000 NULL
P        3.23676207       3.17844920      13.09884212       0.00000000 NULL
P        1.82926727       3.45473598       3.42534289       0.00000000 NULL
P        4.59644368       4.43212061       5.23823689       0.00000000 NULL
P        2.40356934       5.38527982      12.88679207       0.00000000 NULL
P        5.00828429       7.39461730      12.07503281       0.00000000 NULL
16
Lattice="5.351691100901789 0.32727222187219934 0.07786150970916726 0.42813779065973195 5.25822947619781 0.3932294376843075 1.1676943709664291 2.4453852514608534 13.822340945750263" Properties=species:S:1:pos:R:3:initial_magmoms:R:1:castep_labels:S:1 n_minim_iter=7 pbc="T T T"
P        1.66047777       0.97708277       4.51128120       0.00000000 NULL
P        4.83677313       2.83082141       0.66678635       0.00000000 NULL
P        3.44128410       5.09203426       3.69803290       0.00000000 NULL
P        1.93058265       6.52912563       8.43207297       0.00000000 NULL
P        5.71821408       4.48337323       7.56816029       0.00000000 NULL
P        3.29862829       6.09407045       6.75867958       0.00000000 NULL
P        5.41488749       4.64070150      11.22378603       0.00000000 NULL
P        2.22584450       3.22270184       8.80643819       0.00000000 NULL
P        1.76596488       2.24915409      12.05388662       0.00000000 NULL
P        0.47888211       4.42327245       0.73955234       0.00000000 NULL
P        0.86903724       0.90873364       1.46766879       0.00000000 NULL
P        3.41910037       3.34859218      13.33864889       0.00000000 NULL
P        1.91997435       3.52714166       3.51105742       0.00000000 NULL
P        4.74533279       4.58132452       5.40150516       0.00000000 NULL
P        2.61709806       5.52492890      13.10980600       0.00000000 NULL
P        5.25927729       7.63125133      12.29690099       0.00000000 NULL
16
Lattice="5.265498322710052 0.31865427050036343 0.08418024540024911 0.41784164035370747 5.137564099451696 0.3883808918975474 1.1648926640309905 2.3979899964759213 13.63239956583427" Properties=species:S:1:pos:R:3:initial_magmoms:R:1:castep_labels:S:1 n_minim_iter=8 pbc="T T T"
P        1.63781781       0.96217112       4.45561765       0.00000000 NULL
P        4.75651449       2.76030028       0.66207771       0.00000000 NULL
P        3.38635314       4.97492201       3.64581227       0.00000000 NULL
P        1.90440323       6.38467147       8.31799581       0.00000000 NULL
P        5.63648402       4.38493881       7.47689437       0.00000000 NULL
P        3.25249606       5.95726961       6.66483040       0.00000000 NULL
P        5.33666091       4.53332920      11.07826115       0.00000000 NULL
P        2.19472577       3.15161912       8.68082119       0.00000000 NULL
P        1.75062844       2.21165690      11.88733826       0.00000000 NULL
P        0.46814116       4.32322416       0.73445778       0.00000000 NULL
P        0.85788410       0.89156740       1.44972097       0.00000000 NULL
P        3.38030765       3.28074507      13.16342655       0.00000000 NULL
P        1.89083837       3.44644684       3.46669804       0.00000000 NULL
P        4.67401714       4.47839668       5.33809994       0.00000000 NULL
P        2.58767663       5.40150021      12.93164587       0.00000000 NULL
P        5.18588111       7.46714718      12.12511224       0.00000000 NULL
16
Lattice="5.284423147738913 0.3183065916483194 0.09478391549457005 0.41782650488204054 5.163521912130515 0.3981739454432265 1.1917534106225307 2.4266804312116985 13.719069340535695" Properties=species:S:1:pos:R:3:initial_magmoms:R:1:castep_labels:S:1 n_minim_iter=9 pbc="T T T"
P        1.64922145       0.97588414       4.48956616       0.00000000 NULL
P        4.77104159       2.76918549       0.67674881       0.00000000 NULL
P        3.40368447       5.00211761       3.67516533       0.00000000 NULL
P        1.92106727       6.42542563       8.37952499       0.00000000 NULL
P        5.67018804       4.41457020       7.54173162       0.00000000 NULL
P        3.27601367       5.99434881       6.71582730       0.00000000 NULL
P        5.37165278       4.56379057      11.16169276       0.00000000 NULL
P        2.21446510       3.17716368       8.73775747       0.00000000 NULL
P        1.77663583       2.24217699      11.96158352       0.00000000 NULL
P        0.46864263       4.34678958       0.74952474       0.00000000 NULL
P        0.86445913       0.89955670       1.46360395       0.00000000 NULL
P        3.41566818       3.31362415      13.25600701       0.00000000 NULL
P        1.90075487       3.46527121       3.49588210       0.00000000 NULL
P        4.69991984       4.50500278       5.38773760       0.00000000 NULL
P        2.61779059       5.43997939      13.01985037       0.00000000 NULL
P        5.22256793       7.51961016      12.21008902       0.00000000 NULL
16
Lattice="5.274988876892228 0.3192161262299573 0.10324294499936759 0.41858207146316206 5.154398579639265 0.4018340536587365 1.2094225428730447 2.4319282056273157 13.720003604580604" Properties=species:S:1:pos:R:3:initial_magmoms:R:1:castep_labels:S:1 n_minim_iter=10 pbc="T T T"
P        1.65156364       0.98117565       4.49477843       0.00000000 NULL
P        4.76190952       2.76235359       0.68422718       0.00000000 NULL
P        3.40417327       4.99556938       3.67881264       0.00000000 NULL
P        1.92903922       6.41926188       8.38477627       0.00000000 NULL
P        5.67371995       4.41365723       7.55592648       0.00000000 NULL
P        3.28303215       5.98887425       6.72055813       0.00000000 NULL
P        5.37704921       4.56040285      11.17243822       0.00000000 NULL
P        2.22124980       3.17731294       8.73821769       0.00000000 NULL
P        1.79053117       2.25137435      11.96158292       0.00000000 NULL
P        0.46915744       4.34039688       0.75622511       0.00000000 NULL
P        0.86631759       0.90103120       1.46724816       0.00000000 NULL
P        3.43040070       3.31852124      13.26428117       0.00000000 NULL
P        1.90179751       3.46002897       3.50102125       0.00000000 NULL
P        4.70106937       4.50121781       5.39983080       0.00000000 NULL
P        2.63273756       5.43649815      13.02436755       0.00000000 NULL
P        5.23194827       7.51767299      12.21436157       0.00000000 NULL
16
Lattice="5.2337560028867625 0.3273977032765537 0.15164641537673076 0.4261581978743697 5.129386049424599 0.42279148533230987 1.3135414153569547 2.470366634086674 13.743803024244283" Properties=species:S:1:pos:R:3:initial_magmoms:R:1:castep_labels:S:1 n_minim_iter=11 pbc="T T T"
P        1.66985500       1.01435027       4.52926599       0.00000000 NULL
P        4.72251779       2.74040923       0.72783418       0.00000000 NULL
P        3.41704820       4.98459280       3.70648332       0.00000000 NULL
P        1.98165423       6.41519082       8.42528500       0.00000000 NULL
P        5.70836245       4.43046587       7.64596383       0.00000000 NULL
P        3.33238205       5.98790428       6.75703873       0.00000000 NULL
P        5.42260615       4.56431792      11.24781559       0.00000000 NULL
P        2.26706692       3.19300515       8.75370504       0.00000000 NULL
P        1.87458017       2.31010482      11.97875819       0.00000000 NULL
P        0.47549823       4.32602235       0.79389325       0.00000000 NULL
P        0.87895610       0.91308063       1.49012964       0.00000000 NULL
P        3.52352307       3.36004094      13.32826083       0.00000000 NULL
P        1.91350516       3.44777330       3.53448746       0.00000000 NULL
P        4.71998698       4.50270993       5.47426873       0.00000000 NULL
P        2.72586568       5.44337872      13.06717100       0.00000000 NULL
P        5.29993829       7.54204496      12.25629063       0.00000000 NULL
16
Lattice="5.111296327976098 0.3589284897737878 0.28880990803549644 0.4560068277261757 5.187043112073254 0.45590866805678054 1.6101104197024345 2.559952956740048 13.681693896688833" Properties=species:S:1:pos:R:3:initial_magmoms:R:1:castep_labels:S:1 n_minim_iter=12 pbc="T T T"
P        1.72876927       1.10377195       4.57432431       0.00000000 NULL
P        4.61178925       2.75630096       0.83631374       0.00000000 NULL
P        3.45790425       5.06255218       3.75436731       0.00000000 NULL
P        2.13739148       6.51373816       8.43742005       0.00000000 NULL
P        5.80654601       4.54630471       7.81578434       0.00000000 NULL
P        3.47371883       6.10177404       6.77910294       0.00000000 NULL
P        5.55549038       4.63375799      11.34219576       0.00000000 NULL
P        2.40254445       3.26886629       8.71363512       0.00000000 NULL
P        2.11322581       2.45171497      11.92479872       0.00000000 NULL
P        0.50268615       4.38465023       0.86663395       0.00000000 NULL
P        0.91276302       0.95622941       1.54300884       0.00000000 NULL
P        3.79275838       3.48157448      13.37468468       0.00000000 NULL
P        1.94819723       3.47861197       3.58389013       0.00000000 NULL
P        4.77112234       4.58838288       5.60648471       0.00000000 NULL
P        2.99248566       5.54005431      13.04863456       0.00000000 NULL
P        5.49220471       7.72153208      12.24302027       0.00000000 NULL
16
Lattice="4.963583380330241 0.19993458183387142 0.30988703141056806 0.29182346984071617 4.935324436244581 0.4269418322181246 1.5857527281253305 2.3962471744101532 13.433211276844409" Properties=species:S:1:pos:R:3:initial_magmoms:R:1:castep_labels:S:1 n_minim_iter=13 pbc="T T T"
P        1.67631652       1.03985933       4.50866991       0.00000000 NULL
P        4.39684378       2.49234281       0.82587511       0.00000000 NULL
P        3.24250608       4.72289827       3.67490598       0.00000000 NULL
P        1.92348485       6.14765288       8.27439625       0.00000000 NULL
P        5.59324426       4.18307430       7.72599286       0.00000000 NULL
P        3.26786960       5.73810912       6.62266145       0.00000000 NULL
P        5.33625074       4.23967982      11.16161373       0.00000000 NULL
P        2.28022462       3.03856222       8.52221700       0.00000000 NULL
P        2.05823920       2.30421878      11.70678225       0.00000000 NULL
P        0.35886495       4.16285598       0.86107199       0.00000000 NULL
P        0.87085102       0.89645885       1.54983484       0.00000000 NULL
P        3.71210598       3.22511894      13.15984757       0.00000000 NULL
P        1.80335768       3.24719367       3.53197987       0.00000000 NULL
P        4.55482030       4.22857999       5.50962093       0.00000000 NULL
P        2.83978124       5.19709830      12.78589159       0.00000000 NULL
P        5.19152637       7.20994458      11.95032292       0.00000000 NULL
16
Lattice="5.08745310631837 0.2712866137412331 0.34367642593208575 0.3665331399117211 5.196316158256982 0.4665887241483395 1.7033724610425074 2.569841679893366 13.722797727411939" Properties=species:S:1:pos:R:3:initial_magmoms:R:1:castep_labels:S:1 n_minim_iter=14 pbc="T T T"
P        1.74582895       1.12716372       4.61354518       0.00000000 NULL
P        4.53587826       2.67369104       0.87999164       0.00000000 NULL
P        3.40046657       5.01753419       3.79376517       0.00000000 NULL
P        2.07756255       6.50343109       8.48272725       0.00000000 NULL
P        5.81287480       4.48639353       7.93701549       0.00000000 NULL
P        3.44969836       6.09297106       6.80596488       0.00000000 NULL
P        5.56168900       4.55289213      11.43725696       0.00000000 NULL
P        2.40769220       3.24664760       8.72390081       0.00000000 NULL
P        2.18012973       2.47677082      11.96229228       0.00000000 NULL
P        0.42615061       4.38603047       0.90782930       0.00000000 NULL
P        0.90950396       0.95918963       1.59596668       0.00000000 NULL
P        3.89531762       3.46817112      13.46149388       0.00000000 NULL
P        1.89860241       3.44112149       3.63072758       0.00000000 NULL
P        4.74237211       4.51452790       5.66804513       0.00000000 NULL
P        3.02412267       5.53030039      13.08375096       0.00000000 NULL
P        5.45287934       7.66851675      12.25294285       0.00000000 NULL
16
Lattice="5.043388372538695 0.2870832370055612 0.3469836856353814 0.3817958660556228 5.162413177713607 0.46402698609127147 1.7080732564754402 2.556772834272979 13.620975286349413" Properties=species:S:1:pos:R:3:initial_magmoms:R:1:castep_labels:S:1 n_minim_iter=15 pbc="T T T"
P        1.73857458       1.12670329       4.58116588       0.00000000 NULL
P        4.50540313       2.67032161       0.87874845       0.00000000 NULL
P        3.39102984       4.99511005       3.77061396       0.00000000 NULL
P        2.08712520       6.46425907       8.42056753       0.00000000 NULL
P        5.78487809       4.47619543       7.88656967       0.00000000 NULL
P        3.44680900       6.06412386       6.75750858       0.00000000 NULL
P        5.53678479       4.53914425      11.35847223       0.00000000 NULL
P        2.40341630       3.23160580       8.65886012       0.00000000 NULL
P        2.17801502       2.46739696      11.87471860       0.00000000 NULL
P        0.43829271       4.35729747       0.90261623       0.00000000 NULL
P        0.90559000       0.95667919       1.58658392       0.00000000 NULL
P        3.88560533       3.45758516      13.36507503       0.00000000 NULL
P        1.89554091       3.42272220       3.60703619       0.00000000 NULL
P        4.72047491       4.49911441       5.63014163       0.00000000 NULL
P        3.02684140       5.50203308      12.98766174       0.00000000 NULL
P        5.44028921       7.63337437      12.16361035       0.00000000 NULL
16
Lattice="5.036462364998564 0.2993393297911539 0.3550231072077185 0.39412480885305645 5.1668807065351565 0.46437212170115155 1.7285686921724088 2.5605044800351116 13.601240585822046" Properties=species:S:1:pos:R:3:initial_magmoms:R:1:castep_labels:S:1 n_minim_iter=16 pbc="T T T"
P        1.74446954       1.13306500       4.57698873       0.00000000 NULL
P        4.50488691       2.68187302       0.88505124       0.00000000 NULL
P        3.40284341       5.00607173       3.77111251       0.00000000 NULL
P        2.10800066       6.47075882       8.40981473       0.00000000 NULL
P        5.79788171       4.49298847       7.88617036       0.00000000 NULL
P        3.46592478       6.07718286       6.75141000       0.00000000 NULL
P        5.55268534       4.55327472      11.35025663       0.00000000 NULL
P        2.41747483       3.23800499       8.64722332       0.00000000 NULL
P        2.19460208       2.47389297      11.85859080       0.00000000 NULL
P        0.44898008       4.36086371       0.90358592       0.00000000 NULL
P        0.90800674       0.96026885       1.58783916       0.00000000 NULL
P        3.90711936       3.46821965      13.35041682       0.00000000 NULL
P        1.90377779       3.42747254       3.60577201       0.00000000 NULL
P        4.73127048       4.51162144       5.62811709       0.00000000 NULL
P        3.05176396       5.51117869      12.97010894       0.00000000 NULL
P        5.46428896       7.64836561      12.14889721       0.00000000 NULL
16
Lattice="5.026869490158556 0.31614183678933855 0.37202242454570766 0.4110254449133251 5.173333280794182 0.4647881056642345 1.7700637357514941 2.5653534329565804 13.579501640154646" Properties=species:S:1:pos:R:3:initial_magmoms:R:1:castep_labels:S:1 n_minim_iter=17 pbc="T T T"
P        1.75698825       1.14395125       4.57495346       0.00000000 NULL
P        4.50362063       2.69726446       0.89886743       0.00000000 NULL
P        3.42252552       5.02081004       3.77631277       0.00000000 NULL
P        2.14268346       6.47851122       8.39869512       0.00000000 NULL
P        5.82422773       4.51711774       7.89622816       0.00000000 NULL
P        3.49977736       6.09699939       6.74714400       0.00000000 NULL
P        5.58469818       4.57193608      11.34885854       0.00000000 NULL
P        2.44434854       3.24613874       8.63466240       0.00000000 NULL
P        2.22818822       2.48389325      11.84167654       0.00000000 NULL
P        0.46393775       4.36559333       0.90656604       0.00000000 NULL
P        0.91232193       0.96594868       1.59305060       0.00000000 NULL
P        3.95204804       3.48356868      13.33880828       0.00000000 NULL
P        1.91701643       3.43274013       3.60816272       0.00000000 NULL
P        4.75157940       4.52758257       5.63067683       0.00000000 NULL
P        3.09870860       5.52366578      12.95091517       0.00000000 NULL
P        5.50763110       7.66764352      12.13334070       0.00000000 NULL
16
Lattice="5.018316974685251 0.3169528870843913 0.38695610859065455 0.4116967013524893 5.170147069171524 0.4647849524026674 1.8023798562622888 2.5639636452648418 13.57798805417736" Properties=species:S:1:pos:R:3:initial_magmoms:R:1:castep_labels:S:1 n_minim_iter=18 pbc="T T T"
P        1.76595545       1.14988982       4.57964002       0.00000000 NULL
P        4.49527995       2.69483555       0.91155974       0.00000000 NULL
P        3.42729138       5.01687680       3.78447777       0.00000000 NULL
P        2.15603143       6.47101396       8.39910215       0.00000000 NULL
P        5.83811594       4.51841608       7.91566207       0.00000000 NULL
P        3.51560038       6.09870594       6.75026739       0.00000000 NULL
P        5.60287836       4.56826888      11.36207312       0.00000000 NULL
P        2.46052691       3.24287171       8.63351784       0.00000000 NULL
P        2.25279013       2.48634218      11.84181120       0.00000000 NULL
P        0.46506520       4.36175415       0.91062489       0.00000000 NULL
P        0.91341574       0.96764886       1.60082598       0.00000000 NULL
P        3.98689678       3.48473509      13.34602259       0.00000000 NULL
P        1.91944754       3.42713735       3.61556849       0.00000000 NULL
P        4.75914994       4.52192486       5.63799333       0.00000000 NULL
P        3.12804832       5.52068633      12.94891964       0.00000000 NULL
P        5.52734384       7.65988087      12.13126453       0.00000000 NULL
16
Lattice="4.980113186724035 0.3176854494590083 0.43280355940331156 0.41175844654330396 5.1691679995839745 0.46911829253141224 1.8990729348861048 2.5715592138832917 13.561734178038765" Properties=species:S:1:pos:R:3:initial_magmoms:R:1:castep_labels:S:1 n_minim_iter=19 pbc="T T T"
P        1.79067035       1.17627266       4.59234899       0.00000000 NULL
P        4.45729936       2.68975096       0.95317717       0.00000000 NULL
P        3.43447704       5.01252565       3.81149019       0.00000000 NULL
P        2.18867007       6.46019396       8.39694032       0.00000000 NULL
P        5.86974603       4.53447271       7.97512198       0.00000000 NULL
P        3.55792601       6.12049051       6.75648662       0.00000000 NULL
P        5.64587422       4.56854580      11.39671263       0.00000000 NULL
P        2.50416914       3.24126277       8.62241271       0.00000000 NULL
P        2.32244423       2.50611160      11.83177370       0.00000000 NULL
P        0.46650184       4.35708843       0.92808933       0.00000000 NULL
P        0.91350192       0.97617977       1.62692997       0.00000000 NULL
P        4.09047128       3.50207602      13.35908575       0.00000000 NULL
P        1.92016235       3.41485553       3.64089670       0.00000000 NULL
P        4.77154647       4.51042401       5.65491633       0.00000000 NULL
P        3.21241039       5.52731911      12.93167777       0.00000000 NULL
P        5.57398849       7.65047418      12.11337584       0.00000000 NULL
16
Lattice="4.904006633525503 0.32683458837411206 0.4948283779459439 0.4196945845171127 5.13148939230606 0.4555856180286606 2.0282005115828836 2.5297693370746597 13.482858301720718" Properties=species:S:1:pos:R:3:initial_magmoms:R:1:castep_labels:S:1 n_minim_iter=20 pbc="T T T"
P        1.82026654       1.19099024       4.58946175       0.00000000 NULL
P        4.39069903       2.67531846       1.00312173       0.00000000 NULL
P        3.43737136       4.96855031       3.82139975       0.00000000 NULL
P        2.23855606       6.38262310       8.34222624       0.00000000 NULL
P        5.88933279       4.51695256       8.00795339       0.00000000 NULL
P        3.60752230       6.09659936       6.72420989       0.00000000 NULL
P        5.68803210       4.51994443      11.38757417       0.00000000 NULL
P        2.56167910       3.19653522       8.57113568       0.00000000 NULL
P        2.41094205       2.48361653      11.76786652       0.00000000 NULL
P        0.47564608       4.31980306       0.92848677       0.00000000 NULL
P        0.90963388       0.97618180       1.64626522       0.00000000 NULL
P        4.21544157       3.47089643      13.31603403       0.00000000 NULL
P        1.92090274       3.37221083       3.65148483       0.00000000 NULL
P        4.77127332       4.45833261       5.63939069       0.00000000 NULL
P        3.32422213       5.46798540      12.84605684       0.00000000 NULL
P        5.62830624       7.56432214      12.03385306       0.00000000 NULL
16