12
Lattice="3.086 0.0 0.0 0.0 8.021059999999999 0.0 0.0 0.0 10.18408" Properties=species:S:1:pos:R:3:initial_magmoms:R:1:castep_labels:S:1 n_minim_iter=1 pbc="T T T"
P        1.14292108       0.72489848       4.22365776       0.00000000 NULL
P        1.94307892       7.29616152       9.31569776       0.00000000 NULL
P        1.94307892       4.73542848       4.22365776       0.00000000 NULL
P        1.14292108       3.28563152       9.31569776       0.00000000 NULL
P        2.59890576       1.75243477       3.29255380       0.00000000 NULL
P        0.48709424       6.26862523       8.38459380       0.00000000 NULL
P        0.48709424       5.76296477       3.29255380       0.00000000 NULL
P        2.59890576       2.25809523       8.38459380       0.00000000 NULL
P        1.04707764       1.09213389       8.97153798       0.00000000 NULL
P        2.03892236       6.92892611       3.87949798       0.00000000 NULL
P        2.03892236       5.10266389       8.97153798       0.00000000 NULL
P        1.04707764       2.91839611       3.87949798       0.00000000 NULL
12
Lattice="3.100460506495436 0.0 0.0 0.0 8.066400964934973 0.0 0.0 0.0 10.192366305574291" Properties=species:S:1:pos:R:3:initial_magmoms:R:1:castep_labels:S:1 n_minim_iter=2 pbc="T T T"
P        1.14805636       0.72890925       4.22737517       0.00000000 NULL
P        1.95240415       7.33749172       9.32355832       0.00000000 NULL
P        1.95240415       4.76210973       4.22737517       0.00000000 NULL
P        1.14805636       3.30429123       9.32355832       0.00000000 NULL
P        2.61116178       1.76223214       3.29481548       0.00000000 NULL
P        0.48929873       6.30416883       8.39099864       0.00000000 NULL
P        0.48929873       5.79543262       3.29481548       0.00000000 NULL
P        2.61116178       2.27096835       8.39099864       0.00000000 NULL
P        1.05189133       1.09812023       8.97897419       0.00000000 NULL
P        2.04856917       6.96828074       3.88279104       0.00000000 NULL
P        2.04856917       5.13132071       8.97897419       0.00000000 NULL
P        1.05189133       2.93508026       3.88279104       0.00000000 NULL
12
Lattice="3.296329279137136 0.0 0.0 0.0 8.699844221866519 0.0 0.0 0.0 10.299746217982385" Properties=species:S:1:pos:R:3:initial_magmoms:R:1:castep_labels:S:1 n_minim_iter=3 pbc="T T T"
P        1.21747378       0.78493173       4.27576646       0.00000000 NULL
P        2.07885550       7.91491250       9.42563957       0.00000000 NULL
P        2.07885550       5.13485384       4.27576646       0.00000000 NULL
P        1.21747378       3.56499038       9.42563957       0.00000000 NULL
P        2.77711113       1.89905840       3.32382051       0.00000000 NULL
P        0.51921815       6.80078582       8.47369362       0.00000000 NULL
P        0.51921815       6.24898051       3.32382051       0.00000000 NULL
P        2.77711113       2.45086371       8.47369362       0.00000000 NULL
P        1.11707969       1.18170370       9.07542304       0.00000000 NULL
P        2.17924959       7.51814052       3.92554993       0.00000000 NULL
P        2.17924959       5.53162581       9.07542304       0.00000000 NULL
P        1.11707969       3.16821841       3.92554993       0.00000000 NULL
12
Lattice="3.416123180403998 0.0 0.0 0.0 9.253447444586493 0.0 0.0 0.0 10.36640366343546" Properties=species:S:1:pos:R:3:initial_magmoms:R:1:castep_labels:S:1 n_minim_iter=4 pbc="T T T"
P        1.26002459       0.83440279       4.30705514       0.00000000 NULL
P        2.15609859       8.41904466       9.49025697       0.00000000 NULL
P        2.15609859       5.46112651       4.30705514       0.00000000 NULL
P        1.26002459       3.79232093       9.49025697       0.00000000 NULL
P        2.87676277       2.01872921       3.34017874       0.00000000 NULL
P        0.53936041       7.23471824       8.52338057       0.00000000 NULL
P        0.53936041       6.64545293       3.34017874       0.00000000 NULL
P        2.87676277       2.60799452       8.52338057       0.00000000 NULL
P        1.15753677       1.25512053       9.13569274       0.00000000 NULL
P        2.25858641       7.99832691       3.95249090       0.00000000 NULL
P        2.25858641       5.88184426       9.13569274       0.00000000 NULL
P        1.15753677       3.37160319       3.95249090       0.00000000 NULL
12
Lattice="3.4524666814709573 0.0 0.0 0.0 9.653336990505375 0.0 0.0 0.0 10.429765570455887" Properties=species:S:1:pos:R:3:initial_magmoms:R:1:castep_labels:S:1 n_minim_iter=5 pbc="T T T"
P        1.27282116       0.87072338       4.33647858       0.00000000 NULL
P        2.17964553       8.78261361       9.55136137       0.00000000 NULL
P        2.17964553       5.69739187       4.33647858       0.00000000 NULL
P        1.27282116       3.95594512       9.55136137       0.00000000 NULL
P        2.90427112       2.10516466       3.35621588       0.00000000 NULL
P        0.54819556       7.54817233       8.57109866       0.00000000 NULL
P        0.54819556       6.93183316       3.35621588       0.00000000 NULL
P        2.90427112       2.72150383       8.57109866       0.00000000 NULL
P        1.17114020       1.30863905       9.19281336       0.00000000 NULL
P        2.28132648       8.34469794       3.97793058       0.00000000 NULL
P        2.28132648       6.13530755       9.19281336       0.00000000 NULL
P        1.17114020       3.51802944       3.97793058       0.00000000 NULL
12
Lattice="3.4181265597255717 0.0 0.0 0.0 9.723185828658243 0.0 0.0 0.0 10.488482897535423" Properties=species:S:1:pos:R:3:initial_magmoms:R:1:castep_labels:S:1 n_minim_iter=6 pbc="T T T"
P        1.26017387       0.87786923       4.36249548       0.00000000 NULL
P        2.15795269       8.84531660       9.60673693       0.00000000 NULL
P        2.15795269       5.73946215       4.36249548       0.00000000 NULL
P        1.26017387       3.98372368       9.60673693       0.00000000 NULL
P        2.87217614       2.12031201       3.37281377       0.00000000 NULL
P        0.54595042       7.60287381       8.61705522       0.00000000 NULL
P        0.54595042       6.98190493       3.37281377       0.00000000 NULL
P        2.87217614       2.74128090       8.61705522       0.00000000 NULL
P        1.16129455       1.31879411       9.24526033       0.00000000 NULL
P        2.25683201       8.40439172       4.00101888       0.00000000 NULL
P        2.25683201       6.18038703       9.24526033       0.00000000 NULL
P        1.16129455       3.54279880       4.00101888       0.00000000 NULL
12
Lattice="3.3591189824301595 0.0 0.0 0.0 9.89299215029084 0.0 0.0 0.0 10.680801634175278" Properties=species:S:1:pos:R:3:initial_magmoms:R:1:castep_labels:S:1 n_minim_iter=7 pbc="T T T"
P        1.23806707       0.89537274       4.44677301       0.00000000 NULL
P        2.12105191       8.99761941       9.78717383       0.00000000 NULL
P        2.12105191       5.84186881       4.44677301       0.00000000 NULL
P        1.23806707       4.05112334       9.78717383       0.00000000 NULL
P        2.81487142       2.15714439       3.42844998       0.00000000 NULL
P        0.54424756       7.73584776       8.76885080       0.00000000 NULL
P        0.54424756       7.10364046       3.42844998       0.00000000 NULL
P        2.81487142       2.78935169       8.76885080       0.00000000 NULL
P        1.14547852       1.34364289       9.41670541       0.00000000 NULL
P        2.21364047       8.54934926       4.07630460       0.00000000 NULL
P        2.21364047       6.29013896       9.41670541       0.00000000 NULL
P        1.14547852       3.60285319       4.07630460       0.00000000 NULL
12
Lattice="3.3322381265560486 0.0 0.0 0.0 9.836096039732636 0.0 0.0 0.0 10.873149181777876" Properties=species:S:1:pos:R:3:initial_magmoms:R:1:castep_labels:S:1 n_minim_iter=8 pbc="T T T"
P        1.22721837       0.89319233       4.53063573       0.00000000 NULL
P        2.10501976       8.94290371       9.96721032       0.00000000 NULL
P        2.10501976       5.81124035       4.53063573       0.00000000 NULL
P        1.22721837       4.02485569       9.96721032       0.00000000 NULL
P        2.78603316       2.14473605       3.48476809       0.00000000 NULL
P        0.54620497       7.69135999       8.92134268       0.00000000 NULL
P        0.54620497       7.06278407       3.48476809       0.00000000 NULL
P        2.78603316       2.77331197       8.92134268       0.00000000 NULL
P        1.13970267       1.33884385       9.58793005       0.00000000 NULL
P        2.19253546       8.49725219       4.15135546       0.00000000 NULL
P        2.19253546       6.25689187       9.58793005       0.00000000 NULL
P        1.13970267       3.57920417       4.15135546       0.00000000 NULL
12
Lattice="3.3419988312889686 0.0 0.0 0.0 9.849976241088225 0.0 0.0 0.0 10.944989489781102" Properties=species:S:1:pos:R:3:initial_magmoms:R:1:castep_labels:S:1 n_minim_iter=9 pbc="T T T"
P        1.23042193       0.89546269       4.56195236       0.00000000 NULL
P        2.11157690       8.95451356      10.03444711       0.00000000 NULL
P        2.11157690       5.82045081       4.56195236       0.00000000 NULL
P        1.23042193       4.02952544      10.03444711       0.00000000 NULL
P        2.79249376       2.14749875       3.50574488       0.00000000 NULL
P        0.54950507       7.70247749       8.97823963       0.00000000 NULL
P        0.54950507       7.07248687       3.50574488       0.00000000 NULL
P        2.79249376       2.77748937       8.97823963       0.00000000 NULL
P        1.14381474       1.34147925       9.65194414       0.00000000 NULL
P        2.19818409       8.50849699       4.17944939       0.00000000 NULL
P        2.19818409       6.26646737       9.65194414       0.00000000 NULL
P        1.14381474       3.58350887       4.17944939       0.00000000 NULL
12
Lattice="3.341335588071244 0.0 0.0 0.0 9.832511422681554 0.0 0.0 0.0 11.002811272470725" Properties=species:S:1:pos:R:3:initial_magmoms:R:1:castep_labels:S:1 n_minim_iter=10 pbc="T T T"
P        1.22989843       0.89497076       4.58715034       0.00000000 NULL
P        2.11143716       8.93754066      10.08855598       0.00000000 NULL
P        2.11143716       5.81122647       4.58715034       0.00000000 NULL
P        1.22989843       4.02128495      10.08855598       0.00000000 NULL
P        2.79038643       2.14347948       3.52261836       0.00000000 NULL
P        0.55094916       7.68903194       9.02402400       0.00000000 NULL
P        0.55094916       7.05973520       3.52261836       0.00000000 NULL
P        2.79038643       2.77277623       9.02402400       0.00000000 NULL
P        1.14429600       1.33998492       9.70348458       0.00000000 NULL
P        2.19703958       8.49252650       4.20207894       0.00000000 NULL
P        2.19703958       6.25624064       9.70348458       0.00000000 NULL
P        1.14429600       3.57627079       4.20207894       0.00000000 NULL
12
Lattice="3.340743221819192 0.0 0.0 0.0 9.783052846489962 0.0 0.0 0.0 11.184888312929905" Properties=species:S:1:pos:R:3:initial_magmoms:R:1:castep_labels:S:1 n_minim_iter=11 pbc="T T T"
P        1.22884699       0.89400863       4.66649302       0.00000000 NULL
P        2.11189623       8.88904422      10.25893717       0.00000000 NULL
P        2.11189623       5.78553505       4.66649302       0.00000000 NULL
P        1.22884699       3.99751780      10.25893717       0.00000000 NULL
P        2.78522035       2.13191773       3.57569173       0.00000000 NULL
P        0.55552288       7.65113511       9.16813589       0.00000000 NULL
P        0.55552288       7.02344415       3.57569173       0.00000000 NULL
P        2.78522035       2.75960869       9.16813589       0.00000000 NULL
P        1.14612815       1.33600450       9.86584633       0.00000000 NULL
P        2.19461507       8.44704835       4.27340218       0.00000000 NULL
P        2.19461507       6.22753092       9.86584633       0.00000000 NULL
P        1.14612815       3.55552193       4.27340218       0.00000000 NULL
12
Lattice="3.3394940173717322 0.0 0.0 0.0 9.729254620047927 0.0 0.0 0.0 11.37665115511732" Properties=species:S:1:pos:R:3:initial_magmoms:R:1:castep_labels:S:1 n_minim_iter=12 pbc="T T T"
P        1.22763743       0.89335725       4.74998132       0.00000000 NULL
P        2.11185659       8.83589737      10.43830690       0.00000000 NULL
P        2.11185659       5.75798456       4.74998132       0.00000000 NULL
P        1.22763743       3.97127006      10.43830690       0.00000000 NULL
P        2.77968889       2.11904109       3.63148498       0.00000000 NULL
P        0.55980513       7.61021353       9.31981056       0.00000000 NULL
P        0.55980513       6.98366840       3.63148498       0.00000000 NULL
P        2.77968889       2.74558622       9.31981056       0.00000000 NULL
P        1.14737242       1.33176956      10.03702363       0.00000000 NULL
P        2.19212160       8.39748506       4.34869805       0.00000000 NULL
P        2.19212160       6.19639687      10.03702363       0.00000000 NULL
P        1.14737242       3.53285775       4.34869805       0.00000000 NULL
12
Lattice="3.3376481215117786 0.0 0.0 0.0 9.651736883264688 0.0 0.0 0.0 11.578770712718189" Properties=species:S:1:pos:R:3:initial_magmoms:R:1:castep_labels:S:1 n_minim_iter=13 pbc="T T T"
P        1.22625547       0.89129727       4.83789888       0.00000000 NULL
P        2.11139265       8.76043961      10.62728423       0.00000000 NULL
P        2.11139265       5.71716572       4.83789888       0.00000000 NULL
P        1.22625547       3.93457117      10.62728423       0.00000000 NULL
P        2.77386703       2.10065059       3.69018052       0.00000000 NULL
P        0.56378109       7.55108630       9.47956588       0.00000000 NULL
P        0.56378109       6.92651903       3.69018052       0.00000000 NULL
P        2.77386703       2.72521785       9.47956588       0.00000000 NULL
P        1.14808844       1.32470947      10.21763662       0.00000000 NULL
P        2.18955968       8.32702741       4.42825126       0.00000000 NULL
P        2.18955968       6.15057791      10.21763662       0.00000000 NULL
P        1.14808844       3.50115897       4.42825126       0.00000000 NULL
12
Lattice="3.340573516311651 0.0 0.0 0.0 9.581420772200733 0.0 0.0 0.0 11.800910746867412" Properties=species:S:1:pos:R:3:initial_magmoms:R:1:castep_labels:S:1 n_minim_iter=14 pbc="T T T"
P        1.22660443       0.89068098       4.93446199       0.00000000 NULL
P        2.11396908       8.69073979      10.83491737       0.00000000 NULL
P        2.11396908       5.68139137       4.93446199       0.00000000 NULL
P        1.22660443       3.90002940      10.83491737       0.00000000 NULL
P        2.77222699       2.08341934       3.75457679       0.00000000 NULL
P        0.56834653       7.49800143       9.65503216       0.00000000 NULL
P        0.56834653       6.87412972       3.75457679       0.00000000 NULL
P        2.77222699       2.70729105       9.65503216       0.00000000 NULL
P        1.15006795       1.31900832      10.41631593       0.00000000 NULL
P        2.19050557       8.26241245       4.51586056       0.00000000 NULL
P        2.19050557       6.10971870      10.41631593       0.00000000 NULL
P        1.15006795       3.47170207       4.51586056       0.00000000 NULL
12
Lattice="3.3340437415721853 0.0 0.0 0.0 9.51041570942442 0.0 0.0 0.0 12.027869396897529" Properties=species:S:1:pos:R:3:initial_magmoms:R:1:castep_labels:S:1 n_minim_iter=15 pbc="T T T"
P        1.22350734       0.89102762       5.03304039       0.00000000 NULL
P        2.11053640       8.61938809      11.04697509       0.00000000 NULL
P        2.11053640       5.64623547       5.03304039       0.00000000 NULL
P        1.22350734       3.86418024      11.04697509       0.00000000 NULL
P        2.76284226       2.06576499       3.82024665       0.00000000 NULL
P        0.57120148       7.44465072       9.83418134       0.00000000 NULL
P        0.57120148       6.82097284       3.82024665       0.00000000 NULL
P        2.76284226       2.68944287       9.83418134       0.00000000 NULL
P        1.14843850       1.31396599      10.61950758       0.00000000 NULL
P        2.18560525       8.19644972       4.60557288       0.00000000 NULL
P        2.18560525       6.06917385      10.61950758       0.00000000 NULL
P        1.14843850       3.44124186       4.60557288       0.00000000 NULL
12
Lattice="3.3340464088080446 0.0 0.0 0.0 9.478329510136371 0.0 0.0 0.0 12.268861968553368" Properties=species:S:1:pos:R:3:initial_magmoms:R:1:castep_labels:S:1 n_minim_iter=16 pbc="T T T"
P        1.22266113       0.89603183       5.13765586       0.00000000 NULL
P        2.11138528       8.58229768      11.27208685       0.00000000 NULL
P        2.11138528       5.63519659       5.13765586       0.00000000 NULL
P        1.22266113       3.84313292      11.27208685       0.00000000 NULL
P        2.75916969       2.05622602       3.88985785       0.00000000 NULL
P        0.57487672       7.42210349      10.02428883       0.00000000 NULL
P        0.57487672       6.79539077       3.88985785       0.00000000 NULL
P        2.75916969       2.68293874      10.02428883       0.00000000 NULL
P        1.14854035       1.31497380      10.83544135       0.00000000 NULL
P        2.18550606       8.16335571       4.70101037       0.00000000 NULL
P        2.18550606       6.05413856      10.83544135       0.00000000 NULL
P        1.14854035       3.42419095       4.70101037       0.00000000 NULL
12
Lattice="3.3150344100819544 0.0 0.0 0.0 9.399595798186823 0.0 0.0 0.0 12.48534687290609" Properties=species:S:1:pos:R:3:initial_magmoms:R:1:castep_labels:S:1 n_minim_iter=17 pbc="T T T"
P        1.21481838       0.89796402       5.23145240       0.00000000 NULL
P        2.10021603       8.50163178      11.47412584       0.00000000 NULL
P        2.10021603       5.59776192       5.23145240       0.00000000 NULL
P        1.21481838       3.80183388      11.47412584       0.00000000 NULL
P        2.73997102       2.03651137       3.95222421       0.00000000 NULL
P        0.57506339       7.36308443      10.19489764       0.00000000 NULL
P        0.57506339       6.73630927       3.95222421       0.00000000 NULL
P        2.73997102       2.66328653      10.19489764       0.00000000 NULL
P        1.14172084       1.31079178      11.02976165       0.00000000 NULL
P        2.17331357       8.08880401       4.78708821       0.00000000 NULL
P        2.17331357       6.01058968      11.02976165       0.00000000 NULL
P        1.14172084       3.38900611       4.78708821       0.00000000 NULL
12
Lattice="3.318244466066237 0.0 0.0 0.0 9.407901772798274 0.0 0.0 0.0 12.54049321353896" Properties=species:S:1:pos:R:3:initial_magmoms:R:1:castep_labels:S:1 n_minim_iter=18 pbc="T T T"
P        1.21570825       0.90102706       5.25534774       0.00000000 NULL
P        2.10253622       8.50687471      11.52559435       0.00000000 NULL
P        2.10253622       5.60497795       5.25534774       0.00000000 NULL
P        1.21570825       3.80292383      11.52559435       0.00000000 NULL
P        2.74198645       2.03762306       3.96810817       0.00000000 NULL
P        0.57625801       7.37027871      10.23835478       0.00000000 NULL
P        0.57625801       6.74157395       3.96810817       0.00000000 NULL
P        2.74198645       2.66632783      10.23835478       0.00000000 NULL
P        1.14260145       1.31353174      11.07926277       0.00000000 NULL
P        2.17564301       8.09437003       4.80901617       0.00000000 NULL
P        2.17564301       6.01748263      11.07926277       0.00000000 NULL
P        1.14260145       3.39041915       4.80901617       0.00000000 NULL
12
Lattice="3.3180467416300274 0.0 0.0 0.0 9.404862824385622 0.0 0.0 0.0 12.605552181552921" Properties=species:S:1:pos:R:3:initial_magmoms:R:1:castep_labels:S:1 n_minim_iter=19 pbc="T T T"
P        1.21527765       0.90380035       5.28350598       0.00000000 NULL
P        2.10276909       8.50106247      11.58628207       0.00000000 NULL
P        2.10276909       5.60623177       5.28350598       0.00000000 NULL
P        1.21527765       3.79863106      11.58628207       0.00000000 NULL
P        2.74099836       2.03610230       3.98682413       0.00000000 NULL
P        0.57704838       7.36876053      10.28960022       0.00000000 NULL
P        0.57704838       6.73853371       3.98682413       0.00000000 NULL
P        2.74099836       2.66632911      10.28960022       0.00000000 NULL
P        1.14223941       1.31530922      11.13771728       0.00000000 NULL
P        2.17580734       8.08955361       4.83494119       0.00000000 NULL
P        2.17580734       6.01774063      11.13771728       0.00000000 NULL
P        1.14223941       3.38712219       4.83494119       0.00000000 NULL
12
Lattice="3.310866637501115 0.0 0.0 0.0 9.37526911939454 0.0 0.0 0.0 12.824763685606616" Properties=species:S:1:pos:R:3:initial_magmoms:R:1:castep_labels:S:1 n_minim_iter=20 pbc="T T T"
P        1.21135151       0.91218872       5.37831127       0.00000000 NULL
P        2.09951513       8.46308040      11.79069311       0.00000000 NULL
P        2.09951513       5.59982328       5.37831127       0.00000000 NULL
P        1.21135151       3.77544584      11.79069311       0.00000000 NULL
P        2.73224344       2.02666854       4.04978072       0.00000000 NULL
P        0.57862319       7.34860058      10.46216256       0.00000000 NULL
P        0.57862319       6.71430310       4.04978072       0.00000000 NULL
P        2.73224344       2.66096602      10.46216256       0.00000000 NULL
P        1.13862597       1.31937583      11.33485287       0.00000000 NULL
P        2.17224067       8.05589328       4.92247103       0.00000000 NULL
P        2.17224067       6.00701039      11.33485287       0.00000000 NULL
P        1.13862597       3.36825872       4.92247103       0.00000000 NULL
12
Lattice="3.3001036581257717 0.0 0.0 0.0 9.345631154481234 0.0 0.0 0.0 13.02488245376642" Properties=species:S:1:pos:R:3:initial_magmoms:R:1:castep_labels:S:1 n_minim_iter=21 pbc="T T T"
P        1.20585682       0.92190229       5.46463525       0.00000000 NULL
P        2.09424683       8.42372886      11.97707648       0.00000000 NULL
P        2.09424683       5.59471787       5.46463525       0.00000000 NULL
P        1.20585682       3.75091329      11.97707648       0.00000000 NULL
P        2.72093139       2.01710626       4.10708382       0.00000000 NULL
P        0.57917227       7.32852489      10.61952504       0.00000000 NULL
P        0.57917227       6.68992184       4.10708382       0.00000000 NULL
P        2.72093139       2.65570932      10.61952504       0.00000000 NULL
P        1.13327825       1.32464676      11.51521266       0.00000000 NULL
P        2.16682541       8.02098439       5.00277143       0.00000000 NULL
P        2.16682541       5.99746234      11.51521266       0.00000000 NULL
P        1.13327825       3.34816881       5.00277143       0.00000000 NULL
12
Lattice="3.296011758665572 0.0 0.0 0.0 9.348467983855544 0.0 0.0 0.0 13.216805478862538" Properties=species:S:1:pos:R:3:initial_magmoms:R:1:castep_labels:S:1 n_minim_iter=22 pbc="T T T"
P        1.20243819       0.93605811       5.54723170       0.00000000 NULL
P        2.09357357       8.41240987      12.15563444       0.00000000 NULL
P        2.09357357       5.61029210       5.54723170       0.00000000 NULL
P        1.20243819       3.73817588      12.15563444       0.00000000 NULL
P        2.71560033       2.01436093       4.16189523       0.00000000 NULL
P        0.58041143       7.33410705      10.77029797       0.00000000 NULL
P        0.58041143       6.68859493       4.16189523       0.00000000 NULL
P        2.71560033       2.65987306      10.77029797       0.00000000 NULL
P        1.12966717       1.33556722      11.68852298       0.00000000 NULL
P        2.16634459       8.01290076       5.08012024       0.00000000 NULL
P        2.16634459       6.00980121      11.68852298       0.00000000 NULL
P        1.12966717       3.33866677       5.08012024       0.00000000 NULL
12
Lattice="3.2768859954998093 0.0 0.0 0.0 9.314830226052912 0.0 0.0 0.0 13.365041593939022" Properties=species:S:1:pos:R:3:initial_magmoms:R:1:castep_labels:S:1 n_minim_iter=23 pbc="T T T"
P        1.19327214       0.94805532       5.61054215       0.00000000 NULL
P        2.08361386       8.36677491      12.29306295       0.00000000 NULL
P        2.08361386       5.60547043       5.61054215       0.00000000 NULL
P        1.19327214       3.70935979      12.29306295       0.00000000 NULL
P        2.69828952       2.00375966       4.20395868       0.00000000 NULL
P        0.57859647       7.31107057      10.88647948       0.00000000 NULL
P        0.57859647       6.66117477       4.20395868       0.00000000 NULL
P        2.69828952       2.65365545      10.88647948       0.00000000 NULL
P        1.12051395       1.34277373      11.82313932       0.00000000 NULL
P        2.15637205       7.97205649       5.14061853       0.00000000 NULL
P        2.15637205       6.00018884      11.82313932       0.00000000 NULL
P        1.12051395       3.31464138       5.14061853       0.00000000 NULL
12
Lattice="3.2777747904440084 0.0 0.0 0.0 9.320044428912183 0.0 0.0 0.0 13.375232336950814" Properties=species:S:1:pos:R:3:initial_magmoms:R:1:castep_labels:S:1 n_minim_iter=24 pbc="T T T"
P        1.19344198       0.94948332       5.61490506       0.00000000 NULL
P        2.08433281       8.37056111      12.30252122       0.00000000 NULL
P        2.08433281       5.60950553       5.61490506       0.00000000 NULL
P        1.19344198       3.71053890      12.30252122       0.00000000 NULL
P        2.69896907       2.00467117       4.20685613       0.00000000 NULL
P        0.57880572       7.31537326      10.89447230       0.00000000 NULL
P        0.57880572       6.66469338       4.20685613       0.00000000 NULL
P        2.69896907       2.65535104      10.89447230       0.00000000 NULL
P        1.12063708       1.34421254      11.83237751       0.00000000 NULL
P        2.15713771       7.97583189       5.14476134       0.00000000 NULL
P        2.15713771       6.00423476      11.83237751       0.00000000 NULL
P        1.12063708       3.31580967       5.14476134       0.00000000 NULL
12
Lattice="3.2804660253179656 0.0 0.0 0.0 9.33885810100218 0.0 0.0 0.0 13.416827827297695" Properties=species:S:1:pos:R:3:initial_magmoms:R:1:castep_labels:S:1 n_minim_iter=25 pbc="T T T"
P        1.19376480       0.95527473       5.63269103       0.00000000 NULL
P        2.08670123       8.38358337      12.34110494       0.00000000 NULL
P        2.08670123       5.62470378       5.63269103       0.00000000 NULL
P        1.19376480       3.71415432      12.34110494       0.00000000 NULL
P        2.70096384       2.00782573       4.21866946       0.00000000 NULL
P        0.57950218       7.33103237      10.92708338       0.00000000 NULL
P        0.57950218       6.67725478       4.21866946       0.00000000 NULL
P        2.70096384       2.66160332      10.92708338       0.00000000 NULL
P        1.12078480       1.34990864      11.87012018       0.00000000 NULL
P        2.15968123       7.98894946       5.16170627       0.00000000 NULL
P        2.15968123       6.01933769      11.87012018       0.00000000 NULL
P        1.12078480       3.31952041       5.16170627       0.00000000 NULL
12
Lattice="3.2794683891545606 0.0 0.0 0.0 9.345030572781356 0.0 0.0 0.0 13.447202277671726" Properties=species:S:1:pos:R:3:initial_magmoms:R:1:castep_labels:S:1 n_minim_iter=26 pbc="T T T"
P        1.19282030       0.95944131       5.64560254       0.00000000 NULL
P        2.08664809       8.38558926      12.36920368       0.00000000 NULL
P        2.08664809       5.63195659       5.64560254       0.00000000 NULL
P        1.19282030       3.71307398      12.36920368       0.00000000 NULL
P        2.69995972       2.00838657       4.22725702       0.00000000 NULL
P        0.57950867       7.33664400      10.95085816       0.00000000 NULL
P        0.57950867       6.68090186       4.22725702       0.00000000 NULL
P        2.69995972       2.66412871      10.95085816       0.00000000 NULL
P        1.11976093       1.35356984      11.89779652       0.00000000 NULL
P        2.15970746       7.99146074       5.17419538       0.00000000 NULL
P        2.15970746       6.02608512      11.89779652       0.00000000 NULL
P        1.11976093       3.31894545       5.17419538       0.00000000 NULL
12
Lattice="3.272060577815179 0.0 0.0 0.0 9.36794928554851 0.0 0.0 0.0 13.583993842295792" Properties=species:S:1:pos:R:3:initial_magmoms:R:1:castep_labels:S:1 n_minim_iter=27 pbc="T T T"
P        1.18730247       0.97891584       5.70359921       0.00000000 NULL
P        2.08475811       8.38903345      12.49559613       0.00000000 NULL
P        2.08475811       5.66289048       5.70359921       0.00000000 NULL
P        1.18730247       3.70505880      12.49559613       0.00000000 NULL
P        2.69309036       2.00966057       4.26583484       0.00000000 NULL
P        0.57897021       7.35828871      11.05783176       0.00000000 NULL
P        0.57897021       6.69363522       4.26583484       0.00000000 NULL
P        2.69309036       2.67431407      11.05783176       0.00000000 NULL
P        1.11392959       1.37035939      12.02268387       0.00000000 NULL
P        2.15813099       7.99758989       5.23068695       0.00000000 NULL
P        2.15813099       6.05433404      12.02268387       0.00000000 NULL
P        1.11392959       3.31361525       5.23068695       0.00000000 NULL
12
Lattice="3.2611044715050648 0.0 0.0 0.0 9.396191168909839 0.0 0.0 0.0 13.69631714765524" Properties=species:S:1:pos:R:3:initial_magmoms:R:1:castep_labels:S:1 n_minim_iter=28 pbc="T T T"
P        1.18017454       1.00009916       5.75065440       0.00000000 NULL