12
Lattice="4.903279999999983 9.447960536708097e-15 3.798762947551568e-07 -0.4001263756164839 6.441795216213871 -3.798762947551572e-07 -2.25157745825124 -3.2208971564773816 8.339058313307348" Properties=species:S:1:pos:R:3:initial_magmoms:R:1:castep_labels:S:1 n_minim_iter=1 pbc="T T T"
P       -1.91085887       2.84750096       7.35962644       0.00000000 NULL
P        3.19248481      -0.37339700       0.97943184       0.00000000 NULL
P        1.05824450       3.31339475       6.82240282       0.00000000 NULL
P        1.25830810       0.09249685       1.51665548       0.00000000 NULL
P       -0.27533096       1.40233907       3.65557288       0.00000000 NULL
P       -0.47539423       4.62323674       4.68348504       0.00000000 NULL
P        0.79705360      -0.00936676       4.64355465       0.00000000 NULL
P        0.59699048       3.21153080       3.69550359       0.00000000 NULL
P        1.74924837       2.98858718       0.63695392       0.00000000 NULL
P        1.94931101      -0.23231004       7.70210452       0.00000000 NULL
P        0.54370392       2.03046877       1.92832211       0.00000000 NULL
P        0.74376676      -1.19042859       6.41073625       0.00000000 NULL
12
Lattice="4.9087759201560095 0.0013937080097679217 3.802266042877434e-07 -0.3987438482108772 6.454296680180366 -3.804462434959859e-07 -2.2550166829948566 -3.22784474179246 8.35148572390269" Properties=species:S:1:pos:R:3:initial_magmoms:R:1:castep_labels:S:1 n_minim_iter=2 pbc="T T T"
P       -1.91206500       2.85256168       7.37067589       0.00000000 NULL
P        3.19608334      -0.37319330       0.98080979       0.00000000 NULL
P        1.06028172       3.31998267       6.83275011       0.00000000 NULL
P        1.25965405       0.09283404       1.51873560       0.00000000 NULL
P       -0.27577232       1.40489014       3.66125102       0.00000000 NULL
P       -0.47514433       4.63203853       4.69023432       0.00000000 NULL
P        0.79833187      -0.00898412       4.65039194       0.00000000 NULL
P        0.59896002       3.21816417       3.70109371       0.00000000 NULL
P        1.75219408       2.99507687       0.63773905       0.00000000 NULL
P        1.95156545      -0.23207108       7.71374680       0.00000000 NULL
P        0.54486314       2.03457644       1.93092811       0.00000000 NULL
P        0.74423471      -1.19257166       6.42055767       0.00000000 NULL
12
Lattice="5.032597758032563 0.034783743182022056 3.880112179240982e-07 -0.36498126772799344 6.739999721555113 -3.933037267625359e-07 -2.333808913999745 -3.3873912648090188 8.633195647625607" Properties=species:S:1:pos:R:3:initial_magmoms:R:1:castep_labels:S:1 n_minim_iter=3 pbc="T T T"
P       -1.93798546       2.96781523       7.62127959       0.00000000 NULL
P        3.27710344      -0.36740125       1.01191602       0.00000000 NULL
P        1.10738886       3.47068895       7.06757785       0.00000000 NULL
P        1.28987992       0.10068879       1.56561778       0.00000000 NULL
P       -0.28568634       1.46302539       3.79021549       0.00000000 NULL
P       -0.46817705       4.83302531       4.84297975       0.00000000 NULL
P        0.82755196       0.00016798       4.80529904       0.00000000 NULL
P        0.64506140       3.37016779       3.82789653       0.00000000 NULL
P        1.81990178       3.14413591       0.65535703       0.00000000 NULL
P        2.00239185      -0.22586355       7.97783875       0.00000000 NULL
P        0.57182857       2.12857699       1.98970557       0.00000000 NULL
P        0.75431885      -1.24142262       6.64349013       0.00000000 NULL
12
Lattice="5.056016349242597 0.07266566242519668 3.8777392595909957e-07 -0.3171240843448741 6.816864722637741 -3.9375892435333467e-07 -2.3694468051981383 -3.444764722244345 8.68355862129006" Properties=species:S:1:pos:R:3:initial_magmoms:R:1:castep_labels:S:1 n_minim_iter=4 pbc="T T T"
P       -1.92353710       2.99112128       7.66855934       0.00000000 NULL
P        3.29104181      -0.34464578       1.01499924       0.00000000 NULL
P        1.13600544       3.51558796       7.11438974       0.00000000 NULL
P        1.29456792       0.10715530       1.56916886       0.00000000 NULL
P       -0.28665777       1.47812498       3.81708016       0.00000000 NULL
P       -0.44521989       4.88655740       4.86647805       0.00000000 NULL
P        0.83918315       0.00757564       4.83178081       0.00000000 NULL
P        0.68062119       3.41600795       3.85177774       0.00000000 NULL
P        1.85359118       3.19680918       0.65570278       0.00000000 NULL
P        2.01215265      -0.21162278       8.02785598       0.00000000 NULL
P        0.59092176       2.15640656       1.99523078       0.00000000 NULL
P        0.74948344      -1.25202554       6.68832789       0.00000000 NULL
12
Lattice="5.054039213740698 0.11678051823635625 3.852315621510158e-07 -0.25900585100091733 6.841502169171261 -3.9059060055701867e-07 -2.397517352986994 -3.4791408742081336 8.668945020169096" Properties=species:S:1:pos:R:3:initial_magmoms:R:1:castep_labels:S:1 n_minim_iter=5 pbc="T T T"
P       -1.89498526       2.99085714       7.65984700       0.00000000 NULL
P        3.28855740      -0.31311379       1.00909798       0.00000000 NULL
P        1.16231926       3.53358322       7.11062434       0.00000000 NULL
P        1.29182261       0.11283183       1.55832067       0.00000000 NULL
P       -0.28732103       1.48299471       3.81674540       0.00000000 NULL
P       -0.41682404       4.90374585       4.85219921       0.00000000 NULL
P        0.84895242       0.01500915       4.82164514       0.00000000 NULL
P        0.71944957       3.43576018       3.84729981       0.00000000 NULL
P        1.88250676       3.22806035       0.64992095       0.00000000 NULL
P        2.01200911      -0.19269033       8.01902421       0.00000000 NULL
P        0.61036208       2.16788670       1.98379732       0.00000000 NULL
P        0.73986464      -1.25286413       6.68514775       0.00000000 NULL
12
Lattice="5.043600572366864 0.16421143000980673 3.8185406027545353e-07 -0.1958405827922575 6.828800438988959 -3.850090353592079e-07 -2.4238806599992277 -3.4965054694812645 8.58626971647578" Properties=species:S:1:pos:R:3:initial_magmoms:R:1:castep_labels:S:1 n_minim_iter=6 pbc="T T T"
P       -1.85848219       2.97653594       7.59440277       0.00000000 NULL
P        3.28303919      -0.27365320       0.99186691       0.00000000 NULL
P        1.18575220       3.52839106       7.05773555       0.00000000 NULL
P        1.28367292       0.11399054       1.52853416       0.00000000 NULL
P       -0.29573292       1.48258570       3.79038243       0.00000000 NULL
P       -0.39365328       4.89698597       4.79588689       0.00000000 NULL
P        0.86446497       0.02115550       4.77215540       0.00000000 NULL
P        0.76654475       3.43555566       3.81411425       0.00000000 NULL
P        1.91231172       3.24485362       0.63550946       0.00000000 NULL
P        2.01023144      -0.16954620       7.95076039       0.00000000 NULL
P        0.63096510       2.16661259       1.95152131       0.00000000 NULL
P        0.72888503      -1.24778738       6.63474845       0.00000000 NULL
12
Lattice="5.069272307497235 0.17987954941070436 3.8299439070678484e-07 -0.17735114750194952 6.815197026148149 -3.8283984823028617e-07 -2.445961234396285 -3.4975378303203617 8.44669651188395" Properties=species:S:1:pos:R:3:initial_magmoms:R:1:castep_labels:S:1 n_minim_iter=7 pbc="T T T"
P       -1.84928089       2.97674702       7.48242104       0.00000000 NULL
P        3.30866750      -0.25097229       0.96427543       0.00000000 NULL
P        1.19032990       3.50794800       6.96604889       0.00000000 NULL
P        1.27900590       0.10034919       1.48064761       0.00000000 NULL
P       -0.32613135       1.48844498       3.74312946       0.00000000 NULL
P       -0.41480700       4.89604355       4.70356664       0.00000000 NULL
P        0.89450868       0.01853943       4.68865529       0.00000000 NULL
P        0.80583318       3.42613789       3.75804116       0.00000000 NULL
P        1.93843557       3.25101711       0.61271381       0.00000000 NULL
P        2.02711058      -0.15658101       7.83398284       0.00000000 NULL
P        0.64186560       2.15965219       1.90170371       0.00000000 NULL
P        0.73054081      -1.24794608       6.54499286       0.00000000 NULL
12
Lattice="5.074740069082594 0.20259675392999207 3.8218767347876593e-07 -0.14795209548529606 6.688130647625502 -3.736804845470892e-07 -2.4633946053633156 -3.4453632683685154 7.984166948685456" Properties=species:S:1:pos:R:3:initial_magmoms:R:1:castep_labels:S:1 n_minim_iter=8 pbc="T T T"
P       -1.81474076       2.93938918       7.09748651       0.00000000 NULL
P        3.33397584      -0.20207973       0.88668041       0.00000000 NULL
P        1.18045790       3.40687369       6.63891763       0.00000000 NULL
P        1.25443436       0.06280808       1.34524932       0.00000000 NULL
P       -0.39027999       1.48228763       3.57195398       0.00000000 NULL
P       -0.46425611       4.82635300       4.41221256       0.00000000 NULL
P        0.94997073       0.01020329       4.41321563       0.00000000 NULL
P        0.87599475       3.35426857       3.57095128       0.00000000 NULL
P        1.97373070       3.21709368       0.55113597       0.00000000 NULL
P        2.04770621      -0.12697127       7.43303113       0.00000000 NULL
P        0.65102812       2.11120500       1.76073646       0.00000000 NULL
P        0.72500382      -1.23286008       6.22343055       0.00000000 NULL
12
Lattice="5.215892602007578 0.23589962523115077 3.9131968448666845e-07 -0.11571827942224672 6.925354654715464 -3.8403086321221975e-07 -2.5500877988280277 -3.580626694302562 8.22903253196824" Properties=species:S:1:pos:R:3:initial_magmoms:R:1:castep_labels:S:1 n_minim_iter=9 pbc="T T T"
P       -1.83949611       3.04251094       7.31770603       0.00000000 NULL
P        3.43425613      -0.18426711       0.91132647       0.00000000 NULL
P        1.22234491       3.51443545       6.85926051       0.00000000 NULL
P        1.28020448       0.05175783       1.36977202       0.00000000 NULL
P       -0.41694002       1.54172678       3.69773486       0.00000000 NULL
P       -0.47479923       5.00440416       4.53129725       0.00000000 NULL
P        0.99397142       0.01275209       4.53660835       0.00000000 NULL
P        0.93611235       3.47542937       3.69242415       0.00000000 NULL
P        2.05851804       3.35346524       0.55581390       0.00000000 NULL
P        2.11637663      -0.10921170       7.67321878       0.00000000 NULL
P        0.67364576       2.18379990       1.80000047       0.00000000 NULL
P        0.73150454      -1.27887717       6.42903212       0.00000000 NULL
12
Lattice="5.0721119342341465 0.22779810759723113 3.806191980210034e-07 -0.11462878016019447 6.729289236518163 -3.7332787796594276e-07 -2.4787421994719905 -3.4785432369428895 8.034123729348595" Properties=species:S:1:pos:R:3:initial_magmoms:R:1:castep_labels:S:1 n_minim_iter=10 pbc="T T T"
P       -1.78951349       2.95983812       7.14601812       0.00000000 NULL
P        3.33991332      -0.17700873       0.88810558       0.00000000 NULL
P        1.18683306       3.41172961       6.70245160       0.00000000 NULL
P        1.24414787       0.04708470       1.33167213       0.00000000 NULL
P       -0.40778157       1.50114516       3.61327290       0.00000000 NULL
P       -0.46509603       4.86578982       4.42085042       0.00000000 NULL
P        0.96791405       0.00967191       4.42641654       0.00000000 NULL
P        0.91059972       3.37431648       3.60770716       0.00000000 NULL
P        2.00219041       3.25821942       0.54009382       0.00000000 NULL
P        2.05950426      -0.10642482       7.49403006       0.00000000 NULL
P        0.65409353       2.12087876       1.75416489       0.00000000 NULL
P        0.71140757      -1.24376562       6.27995889       0.00000000 NULL
12
Lattice="5.0713007669554155 0.2270710200242159 3.805957315723289e-07 -0.11551781358809365 6.719655697692081 -3.728750183880998e-07 -2.477892098585565 -3.4733629241160138 8.027242564618552" Properties=species:S:1:pos:R:3:initial_magmoms:R:1:castep_labels:S:1 n_minim_iter=11 pbc="T T T"
P       -1.78734310       2.95793415       7.14035646       0.00000000 NULL
P        3.34171706      -0.17482301       0.88688607       0.00000000 NULL
P        1.18381178       3.40232166       6.70092800       0.00000000 NULL
P        1.24157111       0.04249352       1.32631457       0.00000000 NULL
P       -0.41249950       1.50170447       3.61400011       0.00000000 NULL
P       -0.47025847       4.86153236       4.41324204       0.00000000 NULL
P        0.97120444       0.00805318       4.41965179       0.00000000 NULL
P        0.91344560       3.36788098       3.60759073       0.00000000 NULL
P        2.00428332       3.25558616       0.53650108       0.00000000 NULL
P        2.06204169      -0.10424131       7.49074163       0.00000000 NULL
P        0.65209005       2.11667413       1.74922137       0.00000000 NULL
P        0.70984861      -1.24315348       6.27802125       0.00000000 NULL
12
Lattice="5.029470510174517 0.2277497714612733 3.7731821776511574e-07 -0.11121257978600983 6.60436620190094 -3.662975872931744e-07 -2.4591295807457345 -3.416057556378251 7.945274036919093" Properties=species:S:1:pos:R:3:initial_magmoms:R:1:castep_labels:S:1 n_minim_iter=12 pbc="T T T"
P       -1.74481345       2.93115367       7.07112167       0.00000000 NULL
P        3.34026383      -0.14328000       0.87415234       0.00000000 NULL
P        1.14841119       3.29325478       6.68113613       0.00000000 NULL
P        1.20401790      -0.00892862       1.26413792       0.00000000 NULL
P       -0.46065426       1.50666667       3.62220650       0.00000000 NULL
P       -0.51626061       4.80884981       4.32306712       0.00000000 NULL
P        1.00252776      -0.00913410       4.33906038       0.00000000 NULL
P        0.94692153       3.29304896       3.60621364       0.00000000 NULL
P        2.02316015       3.22706181       0.49375741       0.00000000 NULL
P        2.07876590      -0.07512092       7.45151678       0.00000000 NULL
P        0.62791758       2.06863168       1.69079213       0.00000000 NULL
P        0.68352352      -1.23355117       6.25448197       0.00000000 NULL
12
Lattice="4.933516823675915 0.344172223515484 3.6357906323401526e-07 0.049570242224653234 6.70749641382483 -3.5942647376169215e-07 -2.4915441830686373 -3.52583386420324 8.391448371111178" Properties=species:S:1:pos:R:3:initial_magmoms:R:1:castep_labels:S:1 n_minim_iter=13 pbc="T T T"
P       -1.62150131       2.95815388       7.43921248       0.00000000 NULL
P        3.28723089      -0.05142245       0.95223586       0.00000000 NULL
P        1.18555153       3.32436736       7.07705591       0.00000000 NULL
P        1.16076686      -0.02938116       1.31439246       0.00000000 NULL
P       -0.44122049       1.54539655       3.86898336       0.00000000 NULL
P       -0.41643542       4.89914479       4.52246460       0.00000000 NULL
P        1.00089719      -0.00395919       4.54574835       0.00000000 NULL
P        1.02568236       3.34978898       3.84569999       0.00000000 NULL
P        2.09497940       3.34613917       0.47916483       0.00000000 NULL
P        2.07019371      -0.00760863       7.91228368       0.00000000 NULL
P        0.63797522       2.11395323       1.74650744       0.00000000 NULL
P        0.61318972      -1.23979471       6.64494098       0.00000000 NULL
12
Lattice="4.840629270336582 0.28966524514456243 3.5933470832203394e-07 -0.014459556698219486 6.463015845963653 -3.511464509992231e-07 -2.413085473852238 -3.376340114215553 7.9643975714580595" Properties=species:S:1:pos:R:3:initial_magmoms:R:1:castep_labels:S:1 n_minim_iter=14 pbc="T T T"
P       -1.61665353       2.86645526       7.06218455       0.00000000 NULL
P        3.23120600      -0.07538775       0.90221300       0.00000000 NULL
P        1.12949116       3.19210045       6.72240828       0.00000000 NULL
P        1.13672136      -0.03940776       1.24198930       0.00000000 NULL
P       -0.44575779       1.49718611       3.67334735       0.00000000 NULL
P       -0.45298762       4.72869407       4.29104981       0.00000000 NULL
P        0.98149083      -0.01679627       4.31256424       0.00000000 NULL
P        0.97426111       3.21471161       3.65183331       0.00000000 NULL
P        2.02584007       3.20448767       0.45133820       0.00000000 NULL
P        2.03306930      -0.02701987       7.51305952       0.00000000 NULL
P        0.60533562       2.03295454       1.65533207       0.00000000 NULL
P        0.61256504      -1.19855313       6.30906555       0.00000000 NULL
12
Lattice="4.939476939735052 0.2927366600979479 3.6682648150591563e-07 -0.018490763062288872 6.551592397405754 -3.5625592338160234e-07 -2.460493708876827 -3.422164094961447 8.00966942996276" Properties=species:S:1:pos:R:3:initial_magmoms:R:1:castep_labels:S:1 n_minim_iter=15 pbc="T T T"
P       -1.64792296       2.90670180       7.10014805       0.00000000 NULL
P        3.30079985      -0.07635808       0.90952135       0.00000000 NULL
P        1.14772096       3.23253542       6.76075131       0.00000000 NULL
P        1.15696677      -0.04326108       1.24891813       0.00000000 NULL
P       -0.45803813       1.51931499       3.69626979       0.00000000 NULL
P       -0.46728355       4.79511122       4.31339922       0.00000000 NULL
P        1.00363579      -0.01847515       4.33548199       0.00000000 NULL
P        0.99439046       3.25732101       3.67418742       0.00000000 NULL
P        2.06741892       3.24937742       0.45113826       0.00000000 NULL
P        2.07666375      -0.02641839       7.55853132       0.00000000 NULL
P        0.61436165       2.06153284       1.66293785       0.00000000 NULL
P        0.62360667      -1.21426310       6.34673163       0.00000000 NULL
12
Lattice="4.93814508258452 0.2885709630293183 3.669489045575903e-07 -0.023854857357211434 6.542666705737075 -3.561881001177742e-07 -2.457145730229864 -3.415618402636987 7.971924648675739" Properties=species:S:1:pos:R:3:initial_magmoms:R:1:castep_labels:S:1 n_minim_iter=16 pbc="T T T"
P       -1.64848467       2.90479330       7.06511331       0.00000000 NULL
P        3.30158832      -0.07796942       0.90681132       0.00000000 NULL
P        1.14347980       3.22543929       6.72984038       0.00000000 NULL
P        1.15540766      -0.04589436       1.24208428       0.00000000 NULL
P       -0.45983390       1.51913700       3.68058812       0.00000000 NULL
P       -0.47176137       4.79047039       4.29133611       0.00000000 NULL
P        1.00393122      -0.02065762       4.31347255       0.00000000 NULL
P        0.99200384       3.25067569       3.65845208       0.00000000 NULL
P        2.06572067       3.24361600       0.44670477       0.00000000 NULL
P        2.07764755      -0.02771697       7.52522003       0.00000000 NULL
P        0.61114856       2.05890803       1.65318639       0.00000000 NULL
P        0.62307563      -1.21242507       6.31873831       0.00000000 NULL
