26
Lattice="5.489229999999849 -1.2872808424144961e-06 1.5907345271862235e-30 2.744616378303019 5.8773669382664995 2.737962033227957e-15 2.744615339209084 1.4464569099403823 17.52580878231286" Properties=species:S:1:pos:R:3:initial_magmoms:R:1:castep_labels:S:1 n_minim_iter=1 pbc="T T T"
P        7.22500296       6.75224505      14.96791524       0.00000000 NULL
P        9.24268966       6.75224457      14.96791524       0.00000000 NULL
P        1.22031847       1.45057602       4.39673821       0.00000000 NULL
P        4.26891166       1.45057531       4.39673821       0.00000000 NULL
P        3.77099327       2.86453156       9.68250461       0.00000000 NULL
P        7.20746753       2.86453075       9.68250461       0.00000000 NULL
P        6.50064908       1.96900059       2.46252160       0.00000000 NULL
P        4.47781130       1.96900106       2.46252160       0.00000000 NULL
P        7.15139522       3.66573455       6.98406109       0.00000000 NULL
P        3.82706595       3.66573533       6.98406109       0.00000000 NULL
P        3.75746092       3.94061323      11.82491030       0.00000000 NULL
P        7.22100038       3.94061242      11.82491030       0.00000000 NULL
P        6.50070312       4.15524869       1.51950164       0.00000000 NULL
P        4.47775828       4.15524916       1.51950164       0.00000000 NULL
P        6.49171831       5.17838150      13.21993138       0.00000000 NULL
P        4.48674357       5.17838197      13.21993138       0.00000000 NULL
P        1.73707126       2.48971054       0.66267887       0.00000000 NULL
P        3.75215937       2.48971007       0.66267887       0.00000000 NULL
P        1.61183264       1.65088843       6.53844987       0.00000000 NULL
P        3.87739759       1.65088790       6.53844987       0.00000000 NULL
P        7.23210057       2.23743632      13.49520751       0.00000000 NULL
P        3.74635993       2.23743714      13.49520751       0.00000000 NULL
P        4.36049514       2.90780160      15.33786578       0.00000000 NULL
P        6.61796568       2.90780107      15.33786578       0.00000000 NULL
P        4.47683740       6.24796951      10.10721279       0.00000000 NULL
P        6.50162498       6.24796904      10.10721279       0.00000000 NULL
26
Lattice="5.5182316664419435 -1.2940820312099468e-06 7.879113596253426e-18 2.759117216622004 5.899105591673678 0.004999459147401734 2.759116177180836 1.4667148889983173 17.604468653090986" Properties=species:S:1:pos:R:3:initial_magmoms:R:1:castep_labels:S:1 n_minim_iter=2 pbc="T T T"
P        7.26288849       6.78959308      15.03991775       0.00000000 NULL
P        9.29180915       6.78959261      15.03991775       0.00000000 NULL
P        1.22669346       1.45958159       4.41760538       0.00000000 NULL
P        4.29153834       1.45958087       4.41760538       0.00000000 NULL
P        3.79115579       2.88326866       9.72765478       0.00000000 NULL
P        7.24530835       2.88326785       9.72765478       0.00000000 NULL
P        6.53517027       1.97832246       2.47509536       0.00000000 NULL
P        4.50129344       1.97832293       2.47509536       0.00000000 NULL
P        7.18909715       3.68543151       7.01811378       0.00000000 NULL
P        3.84736736       3.68543230       7.01811378       0.00000000 NULL
P        3.77751430       3.96508406      11.88029573       0.00000000 NULL
P        7.25895034       3.96508325      11.88029573       0.00000000 NULL
P        6.53529448       4.17222716       1.52986804       0.00000000 NULL
P        4.50117026       4.17222764       1.52986804       0.00000000 NULL
P        6.52613808       5.20896952      13.28294321       0.00000000 NULL
P        4.51032715       5.20896999      13.28294321       0.00000000 NULL
P        1.74612973       2.49932333       0.66732763       0.00000000 NULL
P        3.77210256       2.49932285       0.66732763       0.00000000 NULL
P        1.62033332       1.66235551       6.56878924       0.00000000 NULL
P        3.89789858       1.66235497       6.56878924       0.00000000 NULL
P        7.27005255       2.25721365      13.55636392       0.00000000 NULL
P        3.76641130       2.25721447      13.55636392       0.00000000 NULL
P        4.38348700       2.93191355      15.40834550       0.00000000 NULL
P        6.65297716       2.93191302      15.40834550       0.00000000 NULL
P        4.50034429       6.27977163      10.15717305       0.00000000 NULL
P        6.53612144       6.27977115      10.15717305       0.00000000 NULL
26
Lattice="5.774325796061061 -1.3541387362366604e-06 3.1471548522129924e-17 2.8871643271522465 6.094067952043606 0.0529589645023331 2.887163286780131 1.6577074975546562 18.324555253277776" Properties=species:S:1:pos:R:3:initial_magmoms:R:1:castep_labels:S:1 n_minim_iter=3 pbc="T T T"
P        7.59721813       7.13231952      15.70116892       0.00000000 NULL
P        9.72576203       7.13231902      15.70116892       0.00000000 NULL
P        1.28280065       1.54265464       4.60917643       0.00000000 NULL
P        4.49152530       1.54265389       4.60917643       0.00000000 NULL
P        3.96927822       3.05630113      10.14171457       0.00000000 NULL
P        7.57937424       3.05630028      10.14171457       0.00000000 NULL
P        6.84005707       2.06321697       2.59084014       0.00000000 NULL
P        4.70859491       2.06321747       2.59084014       0.00000000 NULL
P        7.52205253       3.86584317       7.33107043       0.00000000 NULL
P        4.02660031       3.86584399       7.33107043       0.00000000 NULL
P        3.95471776       4.19071973      12.38831023       0.00000000 NULL
P        7.59393523       4.19071888      12.38831023       0.00000000 NULL
P        6.84094261       4.32545012       1.62635990       0.00000000 NULL
P        4.70771043       4.32545062       1.62635990       0.00000000 NULL
P        6.83010833       5.49041268      13.86138651       0.00000000 NULL
P        4.71854526       5.49041317      13.86138651       0.00000000 NULL
P        1.82600174       2.58579209       0.71058394       0.00000000 NULL
P        3.94832470       2.58579159       0.71058394       0.00000000 NULL
P        1.69547098       1.76860417       6.84695310       0.00000000 NULL
P        4.07885508       1.76860361       6.84695310       0.00000000 NULL
P        7.60497306       2.44176908      14.11648375       0.00000000 NULL
P        3.94367910       2.44176994      14.11648375       0.00000000 NULL
P        4.58649492       3.15648641      16.05423980       0.00000000 NULL
P        6.96215758       3.15648585      16.05423980       0.00000000 NULL
P        4.70793217       6.57052676      10.61655747       0.00000000 NULL
P        6.84072193       6.57052626      10.61655747       0.00000000 NULL
26
Lattice="5.79830850573782 -1.3597629280809218e-06 5.499201295712766e-17 2.899155692099231 6.13717311830967 0.08078568073088857 2.899154663565237 1.751292845226014 18.63411773302075" Properties=species:S:1:pos:R:3:initial_magmoms:R:1:castep_labels:S:1 n_minim_iter=4 pbc="T T T"
P        7.62704519       7.25063701      15.99268135       0.00000000 NULL
P        9.76788315       7.25063651      15.99268135       0.00000000 NULL
P        1.28633250       1.57358711       4.69395793       0.00000000 NULL
P        4.51197617       1.57358635       4.69395793       0.00000000 NULL
P        3.98605414       3.12153808      10.32222559       0.00000000 NULL
P        7.61056376       3.12153723      10.32222559       0.00000000 NULL
P        6.86892208       2.08910659       2.64257952       0.00000000 NULL
P        4.72769534       2.08910710       2.64257952       0.00000000 NULL
P        7.55398544       3.92628965       7.46971193       0.00000000 NULL
P        4.04263284       3.92629048       7.46971193       0.00000000 NULL
P        3.97218779       4.27444594      12.60973975       0.00000000 NULL
P        7.62443065       4.27444508      12.60973975       0.00000000 NULL
P        6.87093369       4.36476548       1.67321649       0.00000000 NULL
P        4.72568480       4.36476598       1.67321649       0.00000000 NULL
P        6.85865078       5.59197410      14.11537949       0.00000000 NULL
P        4.73796828       5.59197460      14.11537949       0.00000000 NULL
P        1.83254603       2.60639631       0.73091941       0.00000000 NULL
P        3.96576313       2.60639581       0.73091941       0.00000000 NULL
P        1.70341523       1.81089935       6.96809380       0.00000000 NULL
P        4.09489355       1.81089879       6.96809380       0.00000000 NULL
P        7.63484513       2.52245688      14.35775464       0.00000000 NULL
P        3.96177249       2.52245774      14.35775464       0.00000000 NULL
P        4.60548711       3.25218243      16.33410847       0.00000000 NULL
P        6.99113085       3.25218187      16.33410847       0.00000000 NULL
P        4.72792701       6.66607329      10.82063800       0.00000000 NULL
P        6.86869255       6.66607279      10.82063800       0.00000000 NULL
26
Lattice="5.778156929804873 -1.3550371764492404e-06 8.776080010788448e-17 2.88907990452942 6.138864570648293 0.10680613709074904 2.8890788938922203 1.8292999054759511 18.89633704762754" Properties=species:S:1:pos:R:3:initial_magmoms:R:1:castep_labels:S:1 n_minim_iter=5 pbc="T T T"
P        7.59816703       7.31656639      16.24238352       0.00000000 NULL
P        9.73630662       7.31656589      16.24238352       0.00000000 NULL
P        1.27898517       1.59300527       4.76729126       0.00000000 NULL
P        4.49917194       1.59300451       4.76729126       0.00000000 NULL
P        3.97216957       3.16279969      10.47608783       0.00000000 NULL
P        7.58414520       3.16279884      10.47608783       0.00000000 NULL
P        6.84572052       2.10042065       2.68706290       0.00000000 NULL
P        4.71059375       2.10042115       2.68706290       0.00000000 NULL
P        7.52902068       3.95844348       7.58864144       0.00000000 NULL
P        4.02729446       3.95844430       7.58864144       0.00000000 NULL
P        3.95997179       4.32656193      12.79801103       0.00000000 NULL
P        7.59634353       4.32656108      12.79801103       0.00000000 NULL
P        6.84925761       4.37438999       1.71500117       0.00000000 NULL
P        4.70705773       4.37439050       1.71500117       0.00000000 NULL
P        6.83517130       5.65298149      14.33241242       0.00000000 NULL
P        4.72114464       5.65298199      14.33241242       0.00000000 NULL
P        1.82443888       2.60920509       0.74793680       0.00000000 NULL
P        3.95371870       2.60920459       0.74793680       0.00000000 NULL
P        1.69899839       1.83967105       7.07134751       0.00000000 NULL
P        4.07915883       1.83967049       7.07134751       0.00000000 NULL
P        7.60584922       2.58345581      14.56181721       0.00000000 NULL
P        3.95046528       2.58345666      14.56181721       0.00000000 NULL
P        4.58947130       3.32277002      16.57188945       0.00000000 NULL
P        6.96684354       3.32276946      16.57188945       0.00000000 NULL
P        4.71235434       6.71548454      10.99573151       0.00000000 NULL
P        6.84396209       6.71548404      10.99573151       0.00000000 NULL
26
Lattice="5.740429385138078 -1.3461896795207229e-06 5.244334435566934e-17 2.870216122806103 6.098824031749039 0.1367754656465171 2.870215140205145 1.9088116587823323 19.160729526869396" Properties=species:S:1:pos:R:3:initial_magmoms:R:1:castep_labels:S:1 n_minim_iter=6 pbc="T T T"
P        7.54439360       7.34355804      16.49847340       0.00000000 NULL
P        9.67689743       7.34355754      16.49847340       0.00000000 NULL
P        1.26555385       1.60513303       4.84367037       0.00000000 NULL
P        4.47487572       1.60513228       4.84367037       0.00000000 NULL
P        3.94623356       3.18855282      10.63276714       0.00000000 NULL
P        7.53462614       3.18855198      10.63276714       0.00000000 NULL
P        6.80267126       2.09935126       2.73287049       0.00000000 NULL
P        4.67818792       2.09935175       2.73287049       0.00000000 NULL
P        7.48190151       3.96917464       7.71079154       0.00000000 NULL
P        3.99895856       3.96917545       7.71079154       0.00000000 NULL
P        3.93728367       4.35809524      12.98887234       0.00000000 NULL
P        7.54357657       4.35809439      12.98887234       0.00000000 NULL
P        6.80847943       4.35621919       1.76045864       0.00000000 NULL
P        4.67238081       4.35621969       1.76045864       0.00000000 NULL
P        6.79170729       5.68628710      14.55403873       0.00000000 NULL
P        4.68915358       5.68628759      14.55403873       0.00000000 NULL
P        1.80911360       2.59436595       0.76453865       0.00000000 NULL
P        3.93131643       2.59436545       0.76453865       0.00000000 NULL
P        1.69037622       1.86083785       7.17642412       0.00000000 NULL
P        4.05005347       1.86083729       7.17642412       0.00000000 NULL
P        7.55177497       2.63815148      14.76707822       0.00000000 NULL
P        3.92908447       2.63815233      14.76707822       0.00000000 NULL
P        4.55941199       3.38369366      16.81273806       0.00000000 NULL
P        6.92144780       3.38369310      16.81273806       0.00000000 NULL
P        4.68265461       6.72930797      11.17569956       0.00000000 NULL
P        6.79820675       6.72930748      11.17569956       0.00000000 NULL
26
Lattice="5.732410229038599 -1.344309104978349e-06 5.127306603466578e-17 2.8662065277443647 6.026281372306855 0.17138831179169825 2.866205582173049 1.9941710041729346 19.401173123084337" Properties=species:S:1:pos:R:3:initial_magmoms:R:1:castep_labels:S:1 n_minim_iter=7 pbc="T T T"
P        7.52699201       7.34332456      16.73961467       0.00000000 NULL
P        9.67024155       7.34332406      16.73961467       0.00000000 NULL
P        1.25570338       1.61302710       4.91719118       0.00000000 NULL
P        4.47670704       1.61302635       4.91719118       0.00000000 NULL
P        3.94140616       3.20404911      10.77826462       0.00000000 NULL
P        7.52341523       3.20404827      10.77826462       0.00000000 NULL
P        6.79682784       2.08910397       2.77652806       0.00000000 NULL
P        4.66799303       2.08910447       2.77652806       0.00000000 NULL
P        7.47388485       3.96569153       7.82617362       0.00000000 NULL
P        3.99093690       3.96569235       7.82617362       0.00000000 NULL
P        3.93755207       4.37671386      13.16482932       0.00000000 NULL
P        7.52726987       4.37671302      13.16482932       0.00000000 NULL
P        6.80561637       4.31734233       1.80820418       0.00000000 NULL
P        4.65920555       4.31734283       1.80820418       0.00000000 NULL
P        6.78508146       5.70142660      14.76079792       0.00000000 NULL
P        4.67974111       5.70142710      14.76079792       0.00000000 NULL
P        1.80064674       2.56549056       0.77922268       0.00000000 NULL
P        3.93176412       2.56549006       0.77922268       0.00000000 NULL
P        1.69141700       1.87705780       7.27358733       0.00000000 NULL
P        4.04099354       1.87705724       7.27358733       0.00000000 NULL
P        7.53405650       2.69182192      14.95340349       0.00000000 NULL
P        3.93076465       2.69182277      14.95340349       0.00000000 NULL
P        4.55267094       3.44186229      17.03395495       0.00000000 NULL
P        6.91215056       3.44186173      17.03395495       0.00000000 NULL
P        4.67649169       6.71897116      11.34620834       0.00000000 NULL
P        6.78833135       6.71897066      11.34620834       0.00000000 NULL
26
Lattice="5.671557789452615 -1.3300385825568259e-06 9.132248809316524e-17 2.835780283730298 5.922997740129526 0.23234653355999002 2.83577939904655 2.150524468084457 19.635563600027602" Properties=species:S:1:pos:R:3:initial_magmoms:R:1:castep_labels:S:1 n_minim_iter=8 pbc="T T T"
P        7.43459083       7.36962659      17.00348280       0.00000000 NULL
P        9.58008543       7.36962608      17.00348280       0.00000000 NULL
P        1.22579467       1.63394339       5.00033101       0.00000000 NULL
P        4.44576333       1.63394263       5.00033101       0.00000000 NULL
P        3.90131734       3.24252811      10.93042900       0.00000000 NULL
P        7.44179919       3.24252728      10.93042900       0.00000000 NULL
P        6.73243122       2.07897679       2.82677416       0.00000000 NULL
P        4.61068477       2.07897729       2.82677416       0.00000000 NULL
P        7.39866859       3.97654684       7.95434620       0.00000000 NULL
P        3.94444829       3.97654765       7.95434620       0.00000000 NULL
P        3.90693994       4.42640711      13.34689640       0.00000000 NULL
P        7.43617715       4.42640628      13.34689640       0.00000000 NULL
P        6.74600386       4.26669775       1.87708239       0.00000000 NULL
P        4.59711316       4.26669825       1.87708239       0.00000000 NULL
P        6.71899532       5.74897139      14.98120682       0.00000000 NULL
P        4.62412239       5.74897188      14.98120682       0.00000000 NULL
P        1.77028496       2.52409127       0.79630393       0.00000000 NULL
P        3.90127345       2.52409077       0.79630393       0.00000000 NULL
P        1.67964975       1.91058303       7.37340473       0.00000000 NULL
P        3.99190837       1.91058249       7.37340473       0.00000000 NULL
P        7.44147940       2.79598467      15.13628473       0.00000000 NULL
P        3.90163693       2.79598550      15.13628473       0.00000000 NULL
P        4.50371081       3.55744527      17.25759660       0.00000000 NULL
P        6.83940588       3.55744472      17.25759660       0.00000000 NULL
P        4.62591722       6.72765225      11.53785526       0.00000000 NULL
P        6.71720095       6.72765176      11.53785526       0.00000000 NULL
26
Lattice="5.740334091724286 -1.346167332193604e-06 4.626504870610455e-17 2.870168439654838 5.94341775294793 0.24976135937170774 2.870167563538923 2.207479482134708 19.75375413588629" Properties=species:S:1:pos:R:3:initial_magmoms:R:1:castep_labels:S:1 n_minim_iter=9 pbc="T T T"
P        7.51935231       7.43228192      17.12398012       0.00000000 NULL
P        9.70165288       7.43228140      17.12398012       0.00000000 NULL
P        1.23354958       1.65274211       5.03901373       0.00000000 NULL
P        4.50678472       1.65274134       5.03901373       0.00000000 NULL
P        3.95084427       3.27666774      11.00224538       0.00000000 NULL
P        7.52982488       3.27666690      11.00224538       0.00000000 NULL
P        6.81843304       2.09234549       2.84829900       0.00000000 NULL
P        4.66223556       2.09234600       2.84829900       0.00000000 NULL
P        7.48891244       4.01216521       8.01198092       0.00000000 NULL
P        3.99175705       4.01216603       8.01198092       0.00000000 NULL
P        3.95972036       4.47397185      13.43252785       0.00000000 NULL
P        7.52094935       4.47397102      13.43252785       0.00000000 NULL
P        6.83370732       4.28869831       1.90233985       0.00000000 NULL
P        4.64696230       4.28869882       1.90233985       0.00000000 NULL
P        6.80406900       5.80648122      15.08239412       0.00000000 NULL
P        4.67660134       5.80648172      15.08239412       0.00000000 NULL
P        1.78664648       2.53259586       0.80028792       0.00000000 NULL
P        3.95368823       2.53259535       0.80028792       0.00000000 NULL
P        1.70182337       1.93237927       7.42073807       0.00000000 NULL
P        4.03851106       1.93237872       7.42073807       0.00000000 NULL
P        7.52652219       2.84529715      15.22688258       0.00000000 NULL
P        3.95414676       2.84529799      15.22688258       0.00000000 NULL
P        4.55767331       3.61673102      17.36650745       0.00000000 NULL
P        6.92299600       3.61673046      17.36650745       0.00000000 NULL
P        4.67952745       6.78470287      11.62235853       0.00000000 NULL
P        6.80114335       6.78470237      11.62235853       0.00000000 NULL
26
Lattice="5.683326230500304 -1.3327984029185546e-06 7.222635413137337e-17 2.841664501461356 5.911088723430864 0.24844931319701785 2.8416636301435787 2.195610697559726 19.699634010764925" Properties=species:S:1:pos:R:3:initial_magmoms:R:1:castep_labels:S:1 n_minim_iter=10 pbc="T T T"
P        7.44324628       7.39054419      17.07755829       0.00000000 NULL
P        9.60673531       7.39054369      17.07755829       0.00000000 NULL
P        1.21850878       1.64408285       5.02707272       0.00000000 NULL
P        4.46481766       1.64408209       5.02707272       0.00000000 NULL
P        3.91177961       3.25720714      10.97210203       0.00000000 NULL
P        7.45487381       3.25720631      10.97210203       0.00000000 NULL
P        6.75176670       2.08084793       2.84009591       0.00000000 NULL
P        4.61488617       2.08084843       2.84009591       0.00000000 NULL
P        7.41517892       3.99082602       7.99003829       0.00000000 NULL
P        3.95147485       3.99082684       7.99003829       0.00000000 NULL
P        3.92184609       4.44944388      13.39466613       0.00000000 NULL
P        7.44480789       4.44944306      13.39466613       0.00000000 NULL
P        6.76747305       4.26601173       1.89760471       0.00000000 NULL
P        4.59918085       4.26601224       1.89760471       0.00000000 NULL
P        6.73723437       5.77497964      15.04040704       0.00000000 NULL
P        4.62942023       5.77498014      15.04040704       0.00000000 NULL
P        1.76740644       2.51837607       0.79555089       0.00000000 NULL
P        3.91592041       2.51837557       0.79555089       0.00000000 NULL
P        1.68588079       1.92106496       7.40032587       0.00000000 NULL
P        3.99744578       1.92106442       7.40032587       0.00000000 NULL
P        7.45042535       2.83050222      15.18406066       0.00000000 NULL
P        3.91622788       2.83050305      15.18406066       0.00000000 NULL
P        4.51252006       3.59809804      17.31856785       0.00000000 NULL
P        6.85413353       3.59809749      17.31856785       0.00000000 NULL
P        4.63276275       6.74991857      11.59000761       0.00000000 NULL
P        6.73389232       6.74991808      11.59000761       0.00000000 NULL
26
Lattice="5.679845556457958 -1.3319821490857761e-06 7.353301382081147e-17 2.839924163559199 5.907332026123231 0.25092187150021517 2.839923294634624 2.2020591087077634 19.71134868545791" Properties=species:S:1:pos:R:3:initial_magmoms:R:1:castep_labels:S:1 n_minim_iter=11 pbc="T T T"
P        7.43703732       7.39090996      17.09102448       0.00000000 NULL
P        9.60250226       7.39090945      17.09102448       0.00000000 NULL
P        1.21520930       1.64530121       5.03249719       0.00000000 NULL
P        4.46463646       1.64530045       5.03249719       0.00000000 NULL
P        3.91003206       3.25794262      10.97958761       0.00000000 NULL
P        7.44966002       3.25794179      10.97958761       0.00000000 NULL
P        6.74897693       2.08040361       2.84232354       0.00000000 NULL
P        4.61071460       2.08040411       2.84232354       0.00000000 NULL
P        7.41088294       3.99207896       7.99643924       0.00000000 NULL
P        3.94880948       3.99207977       7.99643924       0.00000000 NULL
P        3.92111313       4.45157412      13.40289068       0.00000000 NULL
P        7.43857951       4.45157329      13.40289068       0.00000000 NULL
P        6.76518166       4.26484095       1.90131206       0.00000000 NULL
P        4.59451089       4.26484145       1.90131206       0.00000000 NULL
P        6.73417954       5.77728802      15.05084662       0.00000000 NULL
P        4.62551372       5.77728852      15.05084662       0.00000000 NULL
P        1.76468678       2.51647519       0.79449075       0.00000000 NULL
P        3.91515940       2.51647469       0.79449075       0.00000000 NULL
P        1.68551363       1.92169814       7.40515511       0.00000000 NULL
P        3.99433226       1.92169759       7.40515511       0.00000000 NULL
P        7.44429586       2.83527384      15.19240887       0.00000000 NULL
P        3.91539602       2.83527466      15.19240887       0.00000000 NULL
P        4.50962734       3.60380836      17.32955523       0.00000000 NULL
P        6.85006490       3.60380781      17.32955523       0.00000000 NULL
P        4.62916247       6.75199979      11.59913982       0.00000000 NULL
P        6.73053124       6.75199929      11.59913982       0.00000000 NULL
26
Lattice="5.62397464313481 -1.3188798457161325e-06 6.309040534705878e-17 2.8119886936694947 5.850924568940417 0.27565606078886085 2.811987852013885 2.261932122171944 19.82373191500424" Properties=species:S:1:pos:R:3:initial_magmoms:R:1:castep_labels:S:1 n_minim_iter=12 pbc="T T T"
P        7.34351070       7.36929039      17.22467891       0.00000000 NULL
P        9.52841613       7.36928988      17.22467891       0.00000000 NULL
P        1.17145694       1.65378136       5.09106525       0.00000000 NULL
P        4.45251792       1.65378059       5.09106525       0.00000000 NULL
P        3.87988478       3.25263244      11.05212287       0.00000000 NULL
P        7.36806548       3.25263162      11.05212287       0.00000000 NULL
P        6.69935597       2.06916438       2.86337400       0.00000000 NULL
P        4.54859373       2.06916489       2.86337400       0.00000000 NULL
P        7.34075801       3.99440292       8.05963833       0.00000000 NULL
P        3.90719259       3.99440372       8.05963833       0.00000000 NULL
P        3.90314347       4.45950669      13.47949121       0.00000000 NULL
P        7.34480735       4.45950588      13.47949121       0.00000000 NULL
P        6.72154973       4.24158333       1.94054651       0.00000000 NULL
P        4.52640099       4.24158384       1.94054651       0.00000000 NULL
P        6.68128650       5.78386827      15.15121675       0.00000000 NULL
P        4.56666494       5.78386876      15.15121675       0.00000000 NULL
P        1.72697960       2.48815993       0.77717908       0.00000000 NULL
P        3.89699565       2.48815942       0.77717908       0.00000000 NULL
P        1.67698590       1.92018401       7.45160365       0.00000000 NULL
P        3.94698909       1.92018347       7.45160365       0.00000000 NULL
P        7.35175631       2.87702111      15.26949658       0.00000000 NULL
P        3.89619377       2.87702192      15.26949658       0.00000000 NULL
P        4.46365282       3.65408132      17.43513925       0.00000000 NULL
P        6.78429762       3.65408078      17.43513925       0.00000000 NULL
P        4.57384308       6.75710913      11.68808017       0.00000000 NULL
P        6.67410881       6.75710864      11.68808017       0.00000000 NULL
26
Lattice="5.654306569177662 -1.3259929940915241e-06 4.6268625269436366e-17 2.8271546484448984 5.815761832900883 0.1794118461877014 2.8271537457033302 1.9662863082601787 19.612827415124833" Properties=species:S:1:pos:R:3:initial_magmoms:R:1:castep_labels:S:1 n_minim_iter=13 pbc="T T T"
P        7.34423567       7.04415959      16.98862047       0.00000000 NULL
P        9.61868678       7.04415905      16.98862047       0.00000000 NULL
P        1.11880137       1.58279819       5.07684527       0.00000000 NULL
P        4.53550538       1.58279739       5.07684527       0.00000000 NULL
P        3.92828992       3.04520792      10.90568494       0.00000000 NULL
P        7.38032409       3.04520711      10.90568494       0.00000000 NULL
P        6.77261891       2.01248632       2.79761465       0.00000000 NULL
P        4.53599461       2.01248684       2.79761465       0.00000000 NULL
P        7.37440920       3.87446972       7.93452912       0.00000000 NULL
P        3.93420520       3.87447053       7.93452912       0.00000000 NULL
P        3.96323835       4.23551697      13.26314358       0.00000000 NULL
P        7.34537622       4.23551618      13.26314358       0.00000000 NULL
P        6.80223770       4.20597855       1.87901859       0.00000000 NULL
P        4.50637685       4.20597909       1.87901859       0.00000000 NULL
P        6.74756048       5.53788932      14.91991490       0.00000000 NULL
P        4.56105470       5.53788983      14.91991490       0.00000000 NULL
P        1.69457130       2.45393215       0.66785120       0.00000000 NULL
P        3.95973586       2.45393162       0.66785120       0.00000000 NULL
P        1.69285344       1.77381407       7.35466779       0.00000000 NULL
P        3.96145340       1.77381354       7.35466779       0.00000000 NULL
P        7.35495385       2.65544088      15.06483543       0.00000000 NULL
P        3.95365997       2.65544168      15.06483543       0.00000000 NULL
P        4.48194075       3.41072463      17.21805730       0.00000000 NULL
P        6.82667343       3.41072408      17.21805730       0.00000000 NULL
P        4.56754984       6.59515604      11.47972197       0.00000000 NULL
P        6.74106583       6.59515553      11.47972197       0.00000000 NULL
26
Lattice="5.341362745593402 -1.2526044515782368e-06 -2.0723650664658272e-17 2.670682724601719 5.764373720979015 0.20872244318077948 2.670681851441957 2.041041094651982 19.53500697253597" Properties=species:S:1:pos:R:3:initial_magmoms:R:1:castep_labels:S:1 n_minim_iter=14 pbc="T T T"
P        6.93694039       7.05883503      16.95148510       0.00000000 NULL
P        9.08715063       7.05883453      16.95148510       0.00000000 NULL
P        1.05400642       1.59348376       5.06744009       0.00000000 NULL
P        4.28735655       1.59348300       5.06744009       0.00000000 NULL