15
Lattice="6.689059142936926 0.1824772206527277 0.14865214685046346 -2.6843843234200713 5.507970484341981 -0.27089380285059667 -2.768226577706437 -2.7723774184818377 7.753292993797371" Properties=species:S:1:pos:R:3:initial_magmoms:R:1:castep_labels:S:1:forces:R:3 n_minim_iter=1 energy=-79.627467446203 stress="-0.0016540625122198319 0.0028702900549569033 0.0010578262342726575 0.0028702900549569033 -0.00593332890666397 -0.0005142398979242667 0.0010578262342726575 -0.0005142398979242667 -0.0016388857150703142" free_energy=-79.627467446203 pbc="T T T"
P       -0.92895868       1.24369010       2.10625612       0.00000000 NULL      -0.20185300      -0.07998000      -0.11087900
P       -0.89316211       1.72024798       7.96656201       0.00000000 NULL      -0.16141100       0.03382400       0.01356500
P       -2.71706116       0.55136484       7.37309298       0.00000000 NULL       0.17356900       0.12762200       0.01032300
P       -0.00896335      -0.43959641       3.18808991       0.00000000 NULL       0.09810000      -0.13727300      -0.01250000
P        4.35047459      -2.11796900       5.71537173       0.00000000 NULL      -0.00307700      -0.21937300      -0.08701700
P       -1.18403304      -0.43079771       5.09354264       0.00000000 NULL       0.19497100      -0.02531200      -0.00526900
P       -4.43852759       1.55940982       8.38035726       0.00000000 NULL      -0.09612100       0.06779500       0.16661200
P       -2.75874332       1.06159980       5.21662757       0.00000000 NULL      -0.13668500       0.19906600      -0.01689400
P        0.15896888       3.00956014       2.75868520       0.00000000 NULL       0.08859600       0.19575100      -0.07276400
P        2.19504338       2.42078119       3.34663175       0.00000000 NULL      -0.02084100       0.06804000      -0.08304800
P        0.30046966       1.02380824       0.17591910       0.00000000 NULL       0.07957600      -0.11361900       0.10162700
P        3.46762513       2.94323975       0.33248446       0.00000000 NULL       0.03402500      -0.00321200      -0.09429000
P        1.93128353       0.33876526       4.38841613       0.00000000 NULL       0.01662200      -0.11879100      -0.00816100
P        0.36341113       0.95828192       6.03553931       0.00000000 NULL      -0.01105800       0.00410200       0.06730000
P       -0.49254719       3.59610896       4.78954889       0.00000000 NULL      -0.05441400       0.00136100       0.13139600
15
Lattice="6.699600977523026 0.16415687628421774 0.14182001126395133 -2.704656544773272 5.548833966187636 -0.26557962033450594 -2.773110251650512 -2.776949140061075 7.767679548656453" Properties=species:S:1:pos:R:3:initial_magmoms:R:1:castep_labels:S:1:forces:R:3 n_minim_iter=2 energy=-79.637306268647 stress="0.002320366631021792 0.0008661591893317308 0.00036547004485110206 0.0008661591893317308 0.00010817527970362127 -0.0005316897573982377 0.00036547004485110206 -0.0005316897573982377 0.002449598930820393" free_energy=-79.637306268647 pbc="T T T"
P       -0.93711202       1.25471233       2.11101039       0.00000000 NULL      -0.10120000      -0.12402600      -0.08690800
P       -0.90878929       1.73750792       7.98169273       0.00000000 NULL      -0.07324100      -0.06789400      -0.02448400
P       -2.73052984       0.56691685       7.38857021       0.00000000 NULL       0.13097400       0.10449100       0.01431600
P       -0.01076983      -0.44103497       3.19311649       0.00000000 NULL       0.03818600      -0.04777200      -0.02250700
P        4.35781565      -2.14119101       5.71877649       0.00000000 NULL      -0.00661700      -0.19965800      -0.11442300
P       -1.18954251      -0.42736550       5.10302224       0.00000000 NULL       0.07506200       0.06383900      -0.00827400
P       -4.45985480       1.58637137       8.40043158       0.00000000 NULL      -0.07333500       0.08259700       0.12602400
P       -2.77254867       1.07947328       5.22874281       0.00000000 NULL      -0.05226000       0.08620000       0.00291700
P        0.14781465       3.02936237       2.76441390       0.00000000 NULL       0.10567500       0.11590500      -0.02344100
P        2.18801023       2.43095939       3.35080817       0.00000000 NULL      -0.10470600       0.05876400      -0.01747000
P        0.29808214       1.02878995       0.17678212       0.00000000 NULL       0.06206000      -0.09273100       0.13312500
P        3.46463289       2.95102499       0.33052661       0.00000000 NULL      -0.03359100       0.11257500      -0.12217800
P        1.92889223       0.33705498       4.39377730       0.00000000 NULL      -0.00334800      -0.10329100       0.00774800
P        0.35471548       0.96617116       6.04590645       0.00000000 NULL       0.02022400      -0.00723200       0.07916300
P       -0.50918547       3.62172215       4.80037312       0.00000000 NULL       0.01611700       0.01823300       0.05639300
15
Lattice="6.679141512027694 0.14828450868714588 0.13503312485858676 -2.7099355953255153 5.56684340587425 -0.25642650307648035 -2.7656214690952825 -2.768049820424099 7.742809933420504" Properties=species:S:1:pos:R:3:initial_magmoms:R:1:castep_labels:S:1:forces:R:3 n_minim_iter=3 energy=-79.641443770764 stress="-0.0004260712316361199 -0.0004121141427217444 -0.00039753520331118394 -0.0004121141427217444 0.00011138033331669913 -0.00040976492973615646 -0.00039753520331118394 -0.00040976492973615646 -0.00046918619937161624" free_energy=-79.641443770764 pbc="T T T"
P       -0.94025072       1.26103102       2.10587559       0.00000000 NULL      -0.13478900      -0.15022900      -0.08964600
P       -0.91870274       1.75125325       7.95884319       0.00000000 NULL      -0.02157800      -0.05388500       0.00157600
P       -2.73005593       0.58309108       7.36837917       0.00000000 NULL       0.07705000       0.05425000       0.05307000
P       -0.01242485      -0.43910651       3.18237546       0.00000000 NULL       0.00710000      -0.04775400      -0.05801400
P        4.34451142      -2.15185236       5.69342443       0.00000000 NULL       0.02784100      -0.18510300      -0.07581800
P       -1.18926308      -0.41981558       5.08744839       0.00000000 NULL       0.01311200       0.07782800       0.00370200
P       -4.45917102       1.60976627       8.38055284       0.00000000 NULL      -0.03190100       0.11893300       0.12243000
P       -2.77249692       1.09461909       5.21589704       0.00000000 NULL       0.00870000       0.07248700      -0.04039300
P        0.13795188       3.03909797       2.75835365       0.00000000 NULL       0.06140100       0.11901400      -0.06884600
P        2.17170640       2.43458328       3.34030986       0.00000000 NULL      -0.04050900       0.05873900      -0.02448000
P        0.29494686       1.02975057       0.17782922       0.00000000 NULL       0.08073400      -0.08198000       0.13425900
P        3.44665084       2.94971872       0.32835570       0.00000000 NULL      -0.06301000       0.08436400      -0.06822700
P        1.91806979       0.33684090       4.37829768       0.00000000 NULL       0.01617800      -0.09272500       0.00672800
P        0.34551077       0.97350723       6.02782559       0.00000000 NULL       0.03622500       0.00357900       0.04263800
P       -0.52118955       3.63561330       4.78977723       0.00000000 NULL      -0.03655400       0.02248000       0.06102100
15
Lattice="6.67668507328224 0.15304934514417223 0.14858246107569417 -2.70602189711805 5.568985209344207 -0.23894687733830383 -2.7512025525941977 -2.7404057826316564 7.723628475842802" Properties=species:S:1:pos:R:3:initial_magmoms:R:1:castep_labels:S:1:forces:R:3 n_minim_iter=4 energy=-79.646160183388 stress="-2.8118567805157517e-05 0.0008306376921901938 0.00034032448404964604 0.0008306376921901938 0.0010809067631341327 0.0015787850404999008 0.00034032448404964604 0.0015787850404999008 -0.0006011639256918382" free_energy=-79.646160183388 pbc="T T T"
P       -0.93923715       1.26550718       2.10557027       0.00000000 NULL      -0.05549600      -0.00473700      -0.04115600
P       -0.90313179       1.78309735       7.96148074       0.00000000 NULL      -0.04296900      -0.03127400      -0.01432300
P       -2.71151080       0.61429543       7.36447546       0.00000000 NULL       0.05819300       0.07547000       0.05351100
P       -0.00602645      -0.42813323       3.17790243       0.00000000 NULL       0.03557000      -0.03909700      -0.01314500
P        4.35308907      -2.13396648       5.68851635       0.00000000 NULL       0.01928000      -0.14854700      -0.08181800
P       -1.17826031      -0.39769721       5.08181506       0.00000000 NULL      -0.01225000       0.04839700       0.06350600
P       -4.44163508       1.64647598       8.37974004       0.00000000 NULL      -0.04539400       0.06318100       0.09703700
P       -2.76092971       1.11786329       5.21225674       0.00000000 NULL       0.00324400       0.03885300      -0.06013200
P        0.14722498       3.05708244       2.76816513       0.00000000 NULL      -0.04703800       0.01446700      -0.07359900
P        2.17695765       2.45367803       3.35255881       0.00000000 NULL      -0.02653600       0.07433500      -0.03590200
P        0.29827855       1.02876712       0.18680124       0.00000000 NULL       0.07853900      -0.09484700       0.10777900
P        3.44579529       2.95859046       0.34443172       0.00000000 NULL      -0.00434400       0.06835900       0.02278500
P        1.92631282       0.35311317       4.38215200       0.00000000 NULL       0.02470500      -0.06915000       0.00400000
P        0.35854221       0.99933375       6.03210973       0.00000000 NULL       0.02719300       0.01149900      -0.06168700
P       -0.51052096       3.65881281       4.80402362       0.00000000 NULL      -0.01269700      -0.00690700       0.03314400
15
Lattice="6.674350884396503 0.13035940764148823 0.15791652237259676 -2.7233568997969257 5.552498239103914 -0.254249923705931 -2.7307269315760854 -2.733777924404166 7.747605748124601" Properties=species:S:1:pos:R:3:initial_magmoms:R:1:castep_labels:S:1:forces:R:3 n_minim_iter=5 energy=-79.653754545599 stress="-0.0007802195853148654 -0.0007940309258002529 0.0002736999228520249 -0.0007940309258002529 -0.001209167282795869 0.0007589314289276144 0.0002736999228520249 0.0007589314289276144 0.0013041159217718526" free_energy=-79.653754545599 pbc="T T T"
P       -0.94766697       1.25114961       2.10250450       0.00000000 NULL       0.01691900       0.00884000       0.00394700
P       -0.89992501       1.75900044       7.97943299       0.00000000 NULL       0.01213300       0.09120000       0.02628300
P       -2.69668502       0.61075056       7.38422570       0.00000000 NULL      -0.08190000       0.04407200      -0.07594100
P        0.00130444      -0.43568783       3.18511180       0.00000000 NULL      -0.00664500      -0.03179200      -0.00231600
P        4.36815114      -2.16192419       5.70934052       0.00000000 NULL      -0.00683700      -0.08187600      -0.05414900
P       -1.16823294      -0.39723315       5.09697766       0.00000000 NULL      -0.05528000       0.03691600       0.01212900
P       -4.43680700       1.64407522       8.40294382       0.00000000 NULL       0.04044100       0.08079500       0.09543700
P       -2.75668264       1.11636675       5.21867573       0.00000000 NULL       0.03177300       0.02982100       0.02273300
P        0.14393558       3.04359485       2.76598048       0.00000000 NULL      -0.08917800      -0.00601900      -0.00227200
P        2.16996269       2.43324485       3.35857586       0.00000000 NULL      -0.00513200       0.06232300      -0.02770800
P        0.30063701       1.01647795       0.19452812       0.00000000 NULL       0.05816500      -0.11723200       0.08892300
P        3.43279217       2.93885919       0.34080788       0.00000000 NULL      -0.01892200      -0.01979100       0.01691000
P        1.93193059       0.33045700       4.39720329       0.00000000 NULL       0.02772400      -0.03772800      -0.00207900
P        0.36583675       0.98212543       6.04959287       0.00000000 NULL       0.06446100       0.00173800      -0.06464000
P       -0.51698957       3.63525198       4.81393502       0.00000000 NULL       0.01227700      -0.06126900      -0.03725800
15
Lattice="6.685827369244018 0.13703616300422336 0.1563240553328991 -2.7221562720177133 5.555366527305285 -0.2687468725873927 -2.7390794438010198 -2.7609003173795883 7.735448557006609" Properties=species:S:1:pos:R:3:initial_magmoms:R:1:castep_labels:S:1:forces:R:3 n_minim_iter=6 energy=-79.656707937821 stress="-0.00010457229911937953 4.8495793136792695e-05 0.000855893633904594 4.8495793136792695e-05 2.88690160428873e-05 -0.0005285037613223061 0.000855893633904594 -0.0005285037613223061 -0.0005661650196612287" free_energy=-79.656707937821 pbc="T T T"
P       -0.95100767       1.24251661       2.09161415       0.00000000 NULL       0.04685600       0.04456100       0.04621300
P       -0.90135945       1.73671198       7.95399032       0.00000000 NULL       0.00982500       0.12325800       0.06107000
P       -2.70002361       0.58997656       7.36426853       0.00000000 NULL      -0.08830100       0.01949600      -0.06933500
P        0.00100947      -0.44663001       3.17692341       0.00000000 NULL       0.00163600       0.01001500      -0.03392600
P        4.37325988      -2.18104816       5.69723337       0.00000000 NULL      -0.01806200       0.00399400      -0.04419400
P       -1.17125782      -0.41095327       5.08559430       0.00000000 NULL      -0.07689400      -0.02563200       0.03833700
P       -4.44437178       1.62076936       8.38115169       0.00000000 NULL       0.01301100       0.08377900       0.06759200
P       -2.76059116       1.10192832       5.20149427       0.00000000 NULL       0.02141200       0.01658500       0.01297200
P        0.14728066       3.04118994       2.74853270       0.00000000 NULL      -0.10858300      -0.07708100      -0.04387300
P        2.17451474       2.43060619       3.34181096       0.00000000 NULL      -0.01211100      -0.00430800      -0.05641200
P        0.30488528       1.01363832       0.19540766       0.00000000 NULL       0.08440300      -0.13065500       0.09516800
P        3.44032290       2.94628091       0.33004991       0.00000000 NULL       0.02164400      -0.01883400       0.03926700
P        1.93580043       0.31761337       4.38476034       0.00000000 NULL       0.03655000      -0.03983600      -0.02187900
P        0.36826078       0.96649051       6.03105944       0.00000000 NULL       0.04412900       0.01834800      -0.08465300
P       -0.51510780       3.62427159       4.79247652       0.00000000 NULL       0.02448400      -0.02369100      -0.00634700
15
Lattice="6.692437950999986 0.1442080148772914 0.1322980903266234 -2.7179415333625245 5.5479379357260274 -0.259137835202531 -2.7727666164216545 -2.7618266390665758 7.74245490169608" Properties=species:S:1:pos:R:3:initial_magmoms:R:1:castep_labels:S:1:forces:R:3 n_minim_iter=7 energy=-79.659043845226 stress="4.0678809524927736e-05 0.0005034132504697653 -0.0009258497047873553 0.0005034132504697653 -0.0004972162233166061 -7.277179372033882e-05 -0.0009258497047873553 -7.277179372033882e-05 -0.00013578067315469497" free_energy=-79.659043845226 pbc="T T T"
P       -0.95961702       1.23880049       2.09325220       0.00000000 NULL       0.05988700       0.07890500      -0.01701100
P       -0.92945311       1.73554529       7.95506806       0.00000000 NULL       0.01351700       0.12953800       0.05222300
P       -2.72887831       0.58849581       7.37058258       0.00000000 NULL      -0.09443500       0.03915900      -0.06277700
P       -0.01050832      -0.44738202       3.17432159       0.00000000 NULL      -0.02033900      -0.02019300       0.01334600
P        4.35518318      -2.17909558       5.67661991       0.00000000 NULL       0.01184000       0.04129700      -0.00176500
P       -1.19249580      -0.41055570       5.08893491       0.00000000 NULL      -0.04322200      -0.06406800      -0.00483300
P       -4.47781080       1.61849514       8.39803512       0.00000000 NULL       0.02834400       0.06013300       0.07945100
P       -2.78041247       1.09976414       5.20888194       0.00000000 NULL       0.01195700       0.01960400       0.02024800
P        0.13949063       3.03960853       2.74480849       0.00000000 NULL      -0.16068400      -0.06866600      -0.03375100
P        2.16619684       2.43273701       3.33107415       0.00000000 NULL      -0.00749000      -0.01362300      -0.04670500
P        0.30901531       1.00839734       0.19899784       0.00000000 NULL       0.05998500      -0.14674700       0.09661200
P        3.44519476       2.94914277       0.31704945       0.00000000 NULL       0.04900500      -0.02330900       0.06065300
P        1.92354672       0.31656009       4.37593783       0.00000000 NULL       0.00487200      -0.02351200      -0.00606700
P        0.34987719       0.96633458       6.02611406       0.00000000 NULL       0.04401300       0.02856000      -0.09836800
P       -0.52886967       3.62020410       4.79308255       0.00000000 NULL       0.04275200      -0.03707900      -0.05125600
15
Lattice="6.696171273785684 0.13324670248989948 0.13768879988017957 -2.72867619903993 5.5452122733054985 -0.25614011981324225 -2.76347164889834 -2.747294606458749 7.7224323841304185" Properties=species:S:1:pos:R:3:initial_magmoms:R:1:castep_labels:S:1:forces:R:3 n_minim_iter=8 energy=-79.671168918611 stress="0.0007300424844357738 7.188997124561302e-05 -0.00015610294577089417 7.188997124561302e-05 -0.001687834897090991 0.00039582875041705714 -0.00015610294577089417 0.00039582875041705714 -0.0011218792760439244" free_energy=-79.671168918611 pbc="T T T"
P       -0.96277710       1.23822282       2.08485649       0.00000000 NULL       0.01302600      -0.01083100      -0.00735800
P       -0.92722904       1.75389498       7.94646361       0.00000000 NULL       0.00955200       0.02936100      -0.00215400
P       -2.73149862       0.60887200       7.34875752       0.00000000 NULL      -0.01328500       0.10100200      -0.00390600
P       -0.00692563      -0.44907739       3.16264841       0.00000000 NULL      -0.03714200      -0.00249800       0.08181900
P        4.36732137      -2.19405382       5.65545765       0.00000000 NULL      -0.00321700       0.08202600       0.03264400
P       -1.19622194      -0.40118081       5.08147822       0.00000000 NULL      -0.00720100      -0.07445100      -0.00080800
P       -4.47631727       1.65038152       8.39994081       0.00000000 NULL       0.01667100      -0.02509300       0.04089100
P       -2.77635712       1.11534382       5.19633717       0.00000000 NULL      -0.01547500       0.01978400      -0.04635900
P        0.12257806       3.03701338       2.73230787       0.00000000 NULL      -0.02316500      -0.02648500       0.03205100
P        2.16058995       2.43534414       3.31974583       0.00000000 NULL      -0.04685800      -0.03072000      -0.07361700
P        0.32466550       0.97987451       0.22411044       0.00000000 NULL       0.06038300      -0.14787200       0.00531800
P        3.44194710       2.94511709       0.32339229       0.00000000 NULL       0.00965300       0.09327500       0.03785600
P        1.93247366       0.30428261       4.36798216       0.00000000 NULL      -0.01005200       0.04359200      -0.02174000
P        0.36328738       0.97253241       6.00476061       0.00000000 NULL       0.03645200      -0.00803100      -0.03059700
P       -0.52848747       3.61666142       4.78616999       0.00000000 NULL       0.01065800      -0.04305900      -0.04404000
15
Lattice="6.6659545120856 0.1422577319482945 0.13876689921104046 -2.709269137432848 5.553400922862491 -0.2618944236393872 -2.753461741991642 -2.763397281647713 7.742648710596434" Properties=species:S:1:pos:R:3:initial_magmoms:R:1:castep_labels:S:1:forces:R:3 n_minim_iter=9 energy=-79.674117718835 stress="-0.0016903189248778715 0.001008102054685938 -0.0001332077823483003 0.001008102054685938 -0.0010371946065774876 1.4094959508316373e-05 -0.0001332077823483003 1.4094959508316373e-05 1.2949310090152726e-05" free_energy=-79.674117718835 pbc="T T T"
P       -0.95733261       1.23619018       2.08709946       0.00000000 NULL       0.00031900      -0.00606900       0.01111400
P       -0.91986488       1.75298680       7.96535601       0.00000000 NULL      -0.02682700       0.04020500      -0.01753900
P       -2.71925135       0.60470286       7.36373242       0.00000000 NULL      -0.00582800       0.11050800      -0.02992500
P       -0.00756935      -0.45413567       3.16983224       0.00000000 NULL      -0.05491100       0.01920200       0.09310900
P        4.34575412      -2.20183880       5.66786398       0.00000000 NULL       0.04150200       0.09181000       0.02997700
P       -1.19340472      -0.40772062       5.09495700       0.00000000 NULL       0.03856600      -0.12086100      -0.00034700
P       -4.45280120       1.64645042       8.42470223       0.00000000 NULL       0.02111500      -0.04064100       0.01346500
P       -2.76075090       1.11209025       5.20622634       0.00000000 NULL      -0.06223500       0.03380300      -0.00694400
P        0.12208160       3.04068890       2.73356474       0.00000000 NULL      -0.07277900      -0.03207800       0.03750700
P        2.15166746       2.44206261       3.32223279       0.00000000 NULL       0.03278700      -0.08085100      -0.03750400
P        0.33056568       0.97197424       0.23155372       0.00000000 NULL       0.06045500      -0.16086100      -0.00512900
P        3.42956292       2.95887393       0.32274274       0.00000000 NULL       0.02511200       0.10866700      -0.00193200
P        1.92595590       0.30032087       4.37764663       0.00000000 NULL       0.01727700       0.05811500      -0.02996200
P        0.36716313       0.97049743       6.01478504       0.00000000 NULL       0.05030200      -0.02208300       0.00906500
P       -0.52003863       3.61772020       4.79379138       0.00000000 NULL      -0.06485500       0.00113200      -0.06495500
15
Lattice="6.663484858732788 0.14358385626038633 0.13124006746582995 -2.70704136530845 5.559823189289858 -0.26257313859863557 -2.7615587452553907 -2.7724475701331395 7.746786668440355" Properties=species:S:1:pos:R:3:initial_magmoms:R:1:castep_labels:S:1:forces:R:3 n_minim_iter=10 energy=-79.689137055551 stress="-0.0018332387857692785 0.0017404077864369052 -0.0002689531905171482 0.0017404077864369052 -0.004572689901717772 0.0009212678808930613 -0.0002689531905171482 0.0009212678808930613 -0.000963173653386898" free_energy=-79.689137055551 pbc="T T T"
P       -0.96358454       1.21995614       2.08275287       0.00000000 NULL      -0.02871700       0.04557900      -0.02799300
P       -0.92869287       1.76172878       7.96722980       0.00000000 NULL      -0.13946600       0.18198200      -0.04502800
P       -2.73216896       0.63542463       7.35946263       0.00000000 NULL      -0.00431700       0.12533300      -0.07335200
P       -0.02267748      -0.45661432       3.17888688       0.00000000 NULL      -0.04006600      -0.04205400       0.14146600
P        4.34343046      -2.21386989       5.65235561       0.00000000 NULL      -0.02922900       0.01057100       0.00398800
P       -1.20878156      -0.42181494       5.10232717       0.00000000 NULL       0.06122600       0.04101200       0.05974900
P       -4.45776255       1.66172301       8.45820675       0.00000000 NULL       0.13338700      -0.17632900       0.00075700
P       -2.76667049       1.12243023       5.19932555       0.00000000 NULL      -0.00051900      -0.03032700       0.02580000
P        0.10100294       3.03760774       2.72717180       0.00000000 NULL      -0.02822200      -0.09116100      -0.01189400
P        2.13552142       2.43974266       3.29812718       0.00000000 NULL       0.05553400      -0.06125300       0.02312200
P        0.36580870       0.90825672       0.26255227       0.00000000 NULL       0.00235000      -0.02068800      -0.09590300
P        3.42365642       3.00112274       0.31676264       0.00000000 NULL       0.08401700      -0.07992700       0.04121900
P        1.92770304       0.29252946       4.36810121       0.00000000 NULL      -0.00864100       0.06026400      -0.01413400
P        0.38326881       0.96602226       6.00387944       0.00000000 NULL      -0.02576900      -0.01539800      -0.05309100
P       -0.52883134       3.61321794       4.78141639       0.00000000 NULL      -0.03156900       0.05239600       0.02529100
15
Lattice="6.657489596504867 0.1376708023734036 0.1355630555627804 -2.7100807345687823 5.575794794050207 -0.26412267783403254 -2.7515324273645922 -2.7762118505951148 7.747641797116497" Properties=species:S:1:pos:R:3:initial_magmoms:R:1:castep_labels:S:1:forces:R:3 n_minim_iter=11 energy=-79.699048346574 stress="-0.0018568082144302938 0.0018954152550279477 -0.00025078995071641777 0.0018954152550279477 -0.005844725069851072 0.0013636768492358688 -0.00025078995071641777 0.0013636768492358688 -0.0011481352997108514" free_energy=-79.699048346574 pbc="T T T"
P       -0.96730923       1.21087802       2.07994885       0.00000000 NULL      -0.01361700       0.05737300      -0.05174700
P       -0.93260631       1.78281769       7.96680630       0.00000000 NULL      -0.05738900       0.18357400      -0.04366700
P       -2.72923352       0.66516888       7.35376487       0.00000000 NULL       0.00291700       0.06312100      -0.03841000
P       -0.03152406      -0.45561359       3.18978163       0.00000000 NULL      -0.03288600      -0.07491500       0.17025400
P        4.34523105      -2.23071147       5.64661163       0.00000000 NULL      -0.05581700       0.03075400      -0.00042600
P       -1.21286012      -0.41308538       5.11431362       0.00000000 NULL       0.15712800      -0.10191200       0.03249700
P       -4.43715986       1.67068791       8.47341042       0.00000000 NULL       0.08314700      -0.19680500      -0.01209200
P       -2.75583379       1.12656049       5.19633156       0.00000000 NULL      -0.10252200       0.09072500      -0.01359800
P        0.09358824       3.03233129       2.72263899       0.00000000 NULL      -0.04559700      -0.06289800       0.05776600
P        2.12751800       2.43686190       3.29572946       0.00000000 NULL       0.07731400      -0.02676300       0.02288300
P        0.38525723       0.87793569       0.27614225       0.00000000 NULL      -0.01897100       0.04345400      -0.10446600
P        3.41631840       3.02407701       0.31900374       0.00000000 NULL       0.04044700      -0.07093000       0.04435600
P        1.93244623       0.29075159       4.36657879       0.00000000 NULL      -0.02426100       0.04288700      -0.00672500
P        0.39647443       0.96593277       5.99928185       0.00000000 NULL      -0.02011800       0.02545700      -0.02730900
P       -0.53249627       3.62912998       4.78231029       0.00000000 NULL       0.01022700      -0.00312200      -0.02931700
15
Lattice="6.645650453352626 0.1336521164671799 0.1393817113049385 -2.7092523138959708 5.597001342193663 -0.2695010737051532 -2.7404624313363724 -2.7888868567220286 7.759662769459515" Properties=species:S:1:pos:R:3:initial_magmoms:R:1:castep_labels:S:1:forces:R:3 n_minim_iter=12 energy=-79.711379868648 stress="-0.0015880951851226744 0.0018543423871142486 -0.00016529139879928036 0.0018543423871142486 -0.006106117610310522 0.001427083622082657 -0.00016529139879928036 0.001427083622082657 -0.0013593655756336722" free_energy=-79.711379868648 pbc="T T T"
P       -0.96939019       1.19306614       2.07419091       0.00000000 NULL      -0.00969300       0.07371100      -0.04603800
P       -0.92711171       1.81547611       7.97113455       0.00000000 NULL      -0.12797000       0.13305200      -0.08672300
P       -2.72704154       0.68727516       7.35795261       0.00000000 NULL       0.11505200       0.07543100      -0.09484800
P       -0.04954316      -0.45785931       3.21335427       0.00000000 NULL       0.00669100      -0.13503300       0.17325500
P        4.33419142      -2.25653516       5.63652898       0.00000000 NULL      -0.00029800       0.05222000       0.08419700
P       -1.20749598      -0.42029529       5.14038560       0.00000000 NULL       0.07376500       0.00270400       0.02019000
P       -4.40724117       1.66475904       8.49813264       0.00000000 NULL      -0.01433400      -0.14324900      -0.02648000
P       -2.75236299       1.14259295       5.19257443       0.00000000 NULL       0.00819800      -0.04086100       0.05968300
P        0.08215890       3.01580627       2.72467503       0.00000000 NULL      -0.01919100      -0.00245800       0.04314300
P        2.12205847       2.43251022       3.30175147       0.00000000 NULL       0.06119700      -0.00234000      -0.06552500
P        0.41027965       0.85489559       0.29308804       0.00000000 NULL      -0.01787800       0.02998000      -0.06663500
P        3.39623448       3.05880782       0.31827230       0.00000000 NULL       0.06726700      -0.09321200       0.06351300
P        1.93536925       0.28193413       4.36905075       0.00000000 NULL      -0.02001600       0.06613700      -0.00453000
P        0.41323537       0.97060071       6.00177058       0.00000000 NULL      -0.04118500       0.04670100      -0.00795100
P       -0.52920368       3.64971414       4.78022488       0.00000000 NULL      -0.08160600      -0.06278200      -0.04525100
15