12
Lattice="4.627087091205513 2.1014631693613013 2.446667897853881e-07 2.176767861267467 6.564309941978021 -1.868694067134409e-07 -3.401928071728136 -4.3328861393896805 7.686350309150629" Properties=species:S:1:pos:R:3:initial_magmoms:R:1:castep_labels:S:1:forces:R:3 n_minim_iter=4 energy=-66.262026979104 stress="4.452805250801366e-05 -7.604564346781948e-05 -0.0 -7.604564346781948e-05 -5.748808591068582e-05 0.0 -0.0 0.0 4.0342516428551453e-05" free_energy=-66.262026979104 pbc="T T T"
P       -0.10196922       2.47256889       6.54700939       0.00000000 NULL      -0.00157000       0.00133000      -0.00000200
P        3.43673436       1.29187680       1.13934100       0.00000000 NULL      -0.00157100       0.00132900       0.00000300
P        2.46313281       3.58013416       6.58039936       0.00000000 NULL      -0.00239800      -0.00390500       0.00092400
P        1.37474931       0.29797889       1.10595106       0.00000000 NULL      -0.00239800      -0.00390500      -0.00092400
P        0.42135368       2.20330052       3.72275641       0.00000000 NULL       0.00442500      -0.00169500       0.00105500
P        1.50973760       5.48545551       3.96359366       0.00000000 NULL       0.00442400      -0.00169500      -0.00105400
P        1.27061469       0.11777796       3.97989740       0.00000000 NULL      -0.00015600       0.00445800       0.00006700
P        2.35899865       3.39993292       3.70645303       0.00000000 NULL      -0.00015600       0.00445900      -0.00006600
P        2.42975063       3.32667649       1.44228873       0.00000000 NULL      -0.00742400       0.00431800       0.00043600
P        1.34136633       0.04452178       6.24406171       0.00000000 NULL      -0.00742400       0.00431700      -0.00043600
P        0.35417782       2.28719960       1.45286280       0.00000000 NULL       0.00712500      -0.00450600      -0.00314500
P       -0.73420648      -0.99495511       6.23348743       0.00000000 NULL       0.00712500      -0.00450400       0.00314300
