11
Lattice="4.480126310886781 0.826125204271617 -0.3795738608986802 0.5665074471464102 5.181257408472873 -1.097489707904039 -0.7425533276156028 -4.257760960880282 10.714602833798644" Properties=species:S:1:pos:R:3:initial_magmoms:R:1:castep_labels:S:1:forces:R:3 n_minim_iter=1 energy=-59.191125860362 stress="-2.018899725561093e-06 1.2337720545095566e-05 1.938143736538649e-05 1.2337720545095566e-05 4.544767604429749e-05 1.7138215448096386e-05 1.938143736538649e-05 1.7138215448096386e-05 2.736730739093926e-05" free_energy=-59.191125860362 pbc="T T T"
P        3.13060228       2.07748597       7.44554821       0.00000000 NULL      -0.00404400      -0.00194000      -0.00038300
P        2.45141010      -0.98993949       5.67108095       0.00000000 NULL       0.00252800      -0.00357600      -0.00034100
P        0.92508997      -1.94396317       9.63504814       0.00000000 NULL       0.00047600      -0.00091700       0.00101900
P        1.91110156      -0.08282639       8.82391857       0.00000000 NULL      -0.00030200       0.00084600      -0.00116500
P        2.04934237       1.27761702       5.64521948       0.00000000 NULL       0.00098800       0.00174200      -0.00230000
P        3.57677834      -1.23488361       7.75026958       0.00000000 NULL       0.00195200      -0.00000500       0.00001600
P        0.71339869       1.85763058       2.00149829       0.00000000 NULL      -0.00324300      -0.00627900      -0.00005700
P        3.90956850       1.05284793       0.92059508       0.00000000 NULL       0.00273200       0.00354800       0.00402800
P        3.96368103       1.58873684       3.07133690       0.00000000 NULL       0.00178300       0.00082200      -0.00261800
P        0.78553548      -0.11154398       6.86146565       0.00000000 NULL       0.00182000       0.00158400       0.00178200
P        1.19049469      -0.25081739       2.51847972       0.00000000 NULL      -0.00468900       0.00417500       0.00001800
