12
Lattice="6.501202049287773 -0.10116056224324661 -0.07714930186267689 2.2438537784388948 6.102538960629617 -0.07714930186262206 2.2438537784389316 1.5398661667047604 5.905569063978348" Properties=species:S:1:pos:R:3:initial_magmoms:R:1:castep_labels:S:1:forces:R:3 n_minim_iter=15 energy=-63.487740024109 stress="-0.00012161870549023753 -8.612374880989785e-05 -6.563616098727897e-05 -8.612374880989785e-05 -5.5181589423473455e-05 -4.506426210366167e-05 -6.563616098727897e-05 -4.506426210366167e-05 -3.052060408143223e-05" free_energy=-63.487740024109 pbc="T T T"
P        8.26113616       3.55173499       2.30976563       0.00000000 NULL       0.00620600       0.00160600      -0.00061300
P        6.28528921       3.92861352       5.59082684       0.00000000 NULL       0.00373600       0.00078200       0.00519000
P        5.92630784       6.56926093       2.81423092       0.00000000 NULL       0.00207500       0.00585200       0.00171700
P        4.45824496       5.11953486       6.10023337       0.00000000 NULL      -0.00403200      -0.00212100       0.00143500
P        6.38041414       6.49626256       0.62235090       0.00000000 NULL      -0.00343100       0.00059300      -0.00327200
P        8.35634814       1.55696032       3.32351513       0.00000000 NULL      -0.00068200      -0.00405400      -0.00242900
P        5.28442570       2.91991043       3.86168438       0.00000000 NULL      -0.00169700      -0.00223600      -0.00367000
P        4.62513102       4.75064397       2.72087912       0.00000000 NULL      -0.00269700      -0.00374500       0.00021900
P        6.09623148       3.31357119       1.79439291       0.00000000 NULL      -0.00446500      -0.00009800      -0.00118500
P        6.30178197       0.63199165       1.21459830       0.00000000 NULL       0.00227000      -0.00013800       0.00138300
P        2.85622086       2.66662744       5.13012855       0.00000000 NULL       0.00069000       0.00190600       0.00172200
P        3.51546061       5.39866669       0.28818929       0.00000000 NULL       0.00202600       0.00165300      -0.00049700
