30
Lattice="6.26979162555421 -1.1200664687028091e-13 4.774019458937432e-26 -3.134895812777008 5.429798824164932 9.54825479844291e-26 -1.2496176052276355e-25 -3.6074005531132305e-25 16.41141613223496" Properties=species:S:1:pos:R:3:initial_magmoms:R:1:castep_labels:S:1:forces:R:3 n_minim_iter=1 energy=-160.250221524857 stress="1.970626770096778e-05 -0.0 -0.0 -0.0 1.970626770096778e-05 -0.0 -0.0 -0.0 -2.7259442060466785e-05" free_energy=-160.250221524857 pbc="T T T"
P        4.06909782       0.60386687       1.56530259       0.00000000 NULL       0.00182900      -0.00129900      -0.00370400
P        1.62331095       1.60392330      12.50624668       0.00000000 NULL      -0.00203900      -0.00093400      -0.00370400
P        3.71227866       3.22200865       7.03577463       0.00000000 NULL       0.00021100       0.00223300      -0.00370400
P        2.25783367       1.46141702       0.52007475       0.00000000 NULL      -0.00356200       0.00196000       0.00060100
P        3.27160325       2.74374900      11.46101883       0.00000000 NULL       0.00347900       0.00210400       0.00060000
P        3.87525052       1.22463280       5.99054679       0.00000000 NULL       0.00008600      -0.00406400       0.00059900
P        3.93819263       2.54527641       2.87659689       0.00000000 NULL       0.00049500      -0.00367200       0.00087000
P        3.37007353       0.74658576      13.81754098       0.00000000 NULL      -0.00342600       0.00140900       0.00086900
P        2.09642128       2.13793666       8.34706894       0.00000000 NULL       0.00293400       0.00226200       0.00086900
P        1.15066548       3.19906286      15.70660682       0.00000000 NULL       0.00136800       0.00219200       0.00037300
P        5.33003278       2.83376186      10.23613478       0.00000000 NULL       0.00121400      -0.00228100       0.00037400
P        2.92398918      -0.60302590       4.76566274       0.00000000 NULL      -0.00258300       0.00008900       0.00037400
P       -2.60355455       5.29507195       9.42910058       0.00000000 NULL      -0.00040700      -0.00063100       0.00306900
P        2.75254828       5.03700723       3.95862853       0.00000000 NULL      -0.00034200       0.00066700       0.00307000
P       -0.14899374       0.52751847      14.89957262       0.00000000 NULL       0.00074900      -0.00003700       0.00306900
P       -0.97415614       3.36879672      16.28372727       0.00000000 NULL       0.00018200       0.00193300      -0.00008200
P        0.26964580       4.58904443      10.81325523       0.00000000 NULL       0.00158300      -0.00112500      -0.00008100
P        0.70451034       2.90175650       5.34278319       0.00000000 NULL      -0.00176600      -0.00080900      -0.00008100
P        5.30071525       1.71405102       4.38807725       0.00000000 NULL      -0.00117100       0.00130800       0.00028300
P        1.96894991      -0.01778075      15.32902134       0.00000000 NULL       0.00171600       0.00035800       0.00028300
P        2.13502227       3.73352855       9.85854929       0.00000000 NULL      -0.00054700      -0.00166500       0.00028300
P        0.07242164       2.70848937       7.48833344       0.00000000 NULL      -0.00173500      -0.00045800      -0.00284900
P       -0.82548603       4.01283516       2.01786139       0.00000000 NULL       0.00047000       0.00173200      -0.00284800
P        0.75306439       4.13827312      12.95880548       0.00000000 NULL       0.00126300      -0.00127300      -0.00284900
P        5.50623599      -0.61917896       0.31363070       0.00000000 NULL      -0.00304100       0.00099600       0.00140800
P       -0.15444690       0.97084806      11.25457479       0.00000000 NULL       0.00238200       0.00213500       0.00140700
P        4.05289834       5.07812973       5.78410274       0.00000000 NULL       0.00065700      -0.00313100       0.00140600
P        0.88681818       0.30856088       2.00046764       0.00000000 NULL       0.00068000       0.00168600       0.00003200
P        2.95870829       4.50751131      12.94141173       0.00000000 NULL       0.00112200      -0.00143200       0.00003100
P        5.55916097       0.61372663       7.47093968       0.00000000 NULL      -0.00180000      -0.00025500       0.00003200
