6
Lattice="3.293545082983661 -0.5766074169884585 0.0 -1.051238474584447 3.69006643701273 0.0 0.0 0.0 8.967006374004661" Properties=species:S:1:pos:R:3:initial_magmoms:R:1:castep_labels:S:1:forces:R:3 n_minim_iter=11 energy=-32.629107151069 stress="-0.00017103801056387205 -6.760395674461346e-06 -0.0 -6.760395674461346e-06 -1.371394551105016e-05 -0.0 -0.0 -0.0 -0.0002412495484972063" free_energy=-32.629107151069 pbc="T T T"
P        0.36208635       2.08188881       6.87512835       0.00000000 NULL       0.00425000       0.00266600       0.00102900
P        1.88022025       1.03157022       2.39162516       0.00000000 NULL      -0.00425000      -0.00266600       0.00103000
P        2.35307170       3.74457251       5.25464295       0.00000000 NULL      -0.00005200       0.00317900      -0.00290200
P       -0.11076510      -0.63111348       0.77113976       0.00000000 NULL       0.00005200      -0.00317700      -0.00290000
P        1.87544274       1.03033266       8.11868263       0.00000000 NULL       0.00030200       0.00239500       0.00187000
P        0.36686387       2.08312637       3.63517944       0.00000000 NULL      -0.00030300      -0.00239600       0.00187200
