48
Lattice="7.844027481422021 0.33367003885495655 0.303972258714755 3.2636686878085404 13.424090640172416 2.543850824795341 3.263668687808535 3.7805688640288158 13.129534858429379" Properties=species:S:1:pos:R:3:initial_magmoms:R:1:castep_labels:S:1:forces:R:3 n_minim_iter=12 energy=-254.069579114993 stress="1.6967423337595934e-05 1.461904485549054e-06 1.321934907145421e-06 1.461904485549054e-06 8.748098650227052e-06 1.6951871162217754e-06 1.321934907145421e-06 1.6951871162217754e-06 8.437055142663424e-06" free_energy=-254.069579114993 pbc="T T T"
P        8.96726654       8.37531557       6.97840410       0.00000000 NULL       0.00269100       0.00348500       0.00224800
P        9.32611206       9.97850838       8.43890723       0.00000000 NULL      -0.00269200      -0.00256300      -0.00326100
P        5.40409832       9.16301397       8.99895385       0.00000000 NULL      -0.00269100      -0.00348500      -0.00224800
P        5.04525280       7.55982117       7.53845072       0.00000000 NULL       0.00269200       0.00256200       0.00326100
P       10.34135082       9.23082941      13.01573423       0.00000000 NULL       0.00057000       0.00290300       0.00417600
P        7.95202778       3.88779602       8.14824918       0.00000000 NULL      -0.00057100      -0.00442900      -0.00250200
P        4.03001404       8.30750013       2.96162372       0.00000000 NULL      -0.00057000      -0.00290300      -0.00417600
P        6.41933708      13.65053352       7.82910877       0.00000000 NULL       0.00057100       0.00442900       0.00250200
P        8.62567046      15.01855795      10.82809399       0.00000000 NULL      -0.00217900      -0.00068400       0.00603200
P        1.82368066       5.19434347       1.87826836       0.00000000 NULL       0.00218200      -0.00594000       0.00124300
P        5.74569440       2.51977159       5.14926396       0.00000000 NULL       0.00217900       0.00068400      -0.00603200
P       12.54768420      12.34398607      14.09908958       0.00000000 NULL      -0.00218200       0.00594000      -0.00124200
P        8.10034519      14.42874525       6.39445990       0.00000000 NULL       0.00052800      -0.00115100      -0.00289600
P       10.19303341       9.99727600       2.35740664       0.00000000 NULL      -0.00052900       0.00299200       0.00087800
P        6.27101967       3.10958429       9.58289805       0.00000000 NULL      -0.00052800       0.00115100       0.00289600
P        4.17833145       7.54105355      13.61995131       0.00000000 NULL       0.00052900      -0.00299200      -0.00087800
P        7.60231211       6.91109903      13.12333841       0.00000000 NULL       0.00220400      -0.00522000      -0.00130300
P       10.69106649       3.99626986      10.46793906       0.00000000 NULL      -0.00220000       0.00178300       0.00507800
P        6.76905274      10.62723052       2.85401954       0.00000000 NULL      -0.00220400       0.00522000       0.00130300
P        3.68029837      13.54205968       5.50941889       0.00000000 NULL       0.00220000      -0.00178300      -0.00507800
P        5.86402456       7.98656553       4.54817338       0.00000000 NULL       0.00053600      -0.00346200      -0.00110600
P        4.58532656      12.10068189       8.29611924       0.00000000 NULL      -0.00053500       0.00142200       0.00334500
P        8.50734030       9.55176401      11.42918457       0.00000000 NULL      -0.00053600       0.00346200       0.00110600
P        9.78603830       5.43764765       7.68123870       0.00000000 NULL       0.00053500      -0.00142200      -0.00334500
P        5.63168952       3.22691941       1.82890237       0.00000000 NULL       0.00437300       0.00460500      -0.00234500
P       12.66168908      15.58424664      13.08638500       0.00000000 NULL      -0.00437600       0.00190800      -0.00480300
P        8.73967534      14.31141013      14.14845558       0.00000000 NULL      -0.00437300      -0.00460500       0.00234500
P        1.70967578       1.95408291       2.89097295       0.00000000 NULL       0.00437600      -0.00190800       0.00480300
P        4.26173514       3.15829356       3.59882803       0.00000000 NULL      -0.00097700      -0.00205100      -0.00012900
P        6.18761598      13.49469143      13.01525097       0.00000000 NULL       0.00098000       0.00031900       0.00202900
P       10.10962972      14.38003598      12.37852992       0.00000000 NULL       0.00097700       0.00205100       0.00012900
P        8.18374888       4.04363811       2.96210698       0.00000000 NULL      -0.00098000      -0.00031900      -0.00202900
P        5.45792734      12.24415890       6.25553795       0.00000000 NULL      -0.00369600       0.00075500       0.00461600
P        4.99142378      10.00497748       4.21565137       0.00000000 NULL       0.00369800      -0.00466600      -0.00032300
P        8.91343752       5.29417064       9.72182000       0.00000000 NULL       0.00369600      -0.00075500      -0.00461600
P        9.37994108       7.53335206      11.76170658       0.00000000 NULL      -0.00369800       0.00466600       0.00032300
P        7.22882310       8.38710972       2.74134031       0.00000000 NULL       0.00052300      -0.00408900       0.00303700
P       11.06455550      14.19613389       8.03334137       0.00000000 NULL      -0.00052700      -0.00264300       0.00435400
P        7.14254176       9.15121983      13.23601764       0.00000000 NULL      -0.00052300       0.00408900      -0.00303700
P        3.30680936       3.34219565       7.94401658       0.00000000 NULL       0.00052700       0.00264300      -0.00435400
P        5.60074891       5.49313450       1.60561680       0.00000000 NULL       0.00166400       0.00017000      -0.00090400
P       12.69262969      15.59592750      10.80922651       0.00000000 NULL      -0.00166700       0.00088500      -0.00025400
P        8.77061595      12.04519505      14.37174115       0.00000000 NULL      -0.00166400      -0.00017000       0.00090400
P        1.67873517       1.94240204       5.16813144       0.00000000 NULL       0.00166700      -0.00088500       0.00025400
P       10.23999313      10.09924732       6.43948625       0.00000000 NULL       0.00658300      -0.00230000       0.00309400
P        8.05338547      10.35485883       6.67234745       0.00000000 NULL      -0.00658300      -0.00286700       0.00257800
P        4.13137173       7.43908222       9.53787170       0.00000000 NULL      -0.00658300       0.00230000      -0.00309400
P        6.31797939       7.18347072       9.30501050       0.00000000 NULL       0.00658300       0.00286600      -0.00257800
