52
Lattice="5.916590527451752 0.0 0.0 0.0 12.31468096855081 0.0 0.0 0.0 17.51391184254651" Properties=species:S:1:pos:R:3:initial_magmoms:R:1:castep_labels:S:1:forces:R:3 n_minim_iter=1 energy=-276.709938730819 stress="5.7786348863193696e-05 -7.83649971022426e-09 -0.0 -7.83649971022426e-09 2.7012414501143026e-05 0.0 -0.0 0.0 6.1007150244095865e-05" free_energy=-276.709938730819 pbc="T T T"
P       -0.42106253       2.16266917      10.63209317       0.00000000 NULL      -0.00375500      -0.00497200      -0.00404500
P        6.33765306      10.15201180      10.63209317       0.00000000 NULL       0.00375500       0.00497200      -0.00404500
P        3.37935780       8.32000966       1.87513725       0.00000000 NULL       0.00375700      -0.00497100      -0.00404400
P        2.53723273       3.99467131       1.87513725       0.00000000 NULL      -0.00375700       0.00497100      -0.00404400
P        4.18633899       3.45021900      14.36374455       0.00000000 NULL       0.00386100       0.00199000       0.00060800
P        1.73025153       8.86446197      14.36374455       0.00000000 NULL      -0.00386100      -0.00199000       0.00060800
P        4.68854680       9.60755948       5.60678863       0.00000000 NULL      -0.00385900       0.00198900       0.00060900
P        1.22804373       2.70712149       5.60678863       0.00000000 NULL       0.00385900      -0.00198900       0.00060900
P        1.86022233      11.02255213       1.14640214       0.00000000 NULL       0.00036900       0.00245400      -0.00364100
P        4.05636819       1.29212884       1.14640214       0.00000000 NULL      -0.00036900      -0.00245400      -0.00364100
P        1.09807293       4.86521164       9.90335806       0.00000000 NULL      -0.00037100       0.00245400      -0.00364100
P        4.81851760       7.44946933       9.90335806       0.00000000 NULL       0.00037100      -0.00245400      -0.00364100
P        5.79798219       4.33717308       6.40120335       0.00000000 NULL       0.00747000      -0.00560000      -0.00185000
P        0.11860834       7.97750789       6.40120335       0.00000000 NULL      -0.00747000       0.00560000      -0.00185000
P        3.07690360      10.49451357      15.15815928       0.00000000 NULL      -0.00746300      -0.00559900      -0.00185100
P        2.83968693       1.82016740      15.15815928       0.00000000 NULL       0.00746300       0.00559900      -0.00185100
P        4.46112696       5.43040892       9.08433847       0.00000000 NULL      -0.00412600       0.00057100       0.00242200
P        1.45546357       6.88427205       9.08433847       0.00000000 NULL       0.00412600      -0.00057100       0.00242200
P        4.41375883      11.58774941       0.32738255       0.00000000 NULL       0.00412700       0.00057100       0.00242300
P        1.50283170       0.72693156       0.32738255       0.00000000 NULL      -0.00412700      -0.00057100       0.00242300
P        2.32953965       9.87214079       9.51630573       0.00000000 NULL       0.00286500       0.00132800       0.00176900
P        3.58705088       2.44254018       9.51630573       0.00000000 NULL      -0.00286500      -0.00132800       0.00176900
P        0.62875562       3.71480031       0.75934981       0.00000000 NULL      -0.00286700       0.00132800       0.00176900
P        5.28783491       8.59988066       0.75934981       0.00000000 NULL       0.00286700      -0.00132800       0.00176900
P        0.64320865       0.93511844       9.14250952       0.00000000 NULL      -0.00015500       0.00063200       0.00220900
P        5.27338188      11.37956253       9.14250952       0.00000000 NULL       0.00015500      -0.00063200       0.00220900
P        2.31508662       7.09245892       0.38555360       0.00000000 NULL       0.00015200       0.00063200       0.00220800
P        3.60150391       5.22222204       0.38555360       0.00000000 NULL      -0.00015200      -0.00063200       0.00220800
P        3.57876626      11.39036532      10.61636290       0.00000000 NULL      -0.00026100       0.00134700      -0.00082300
P        2.33782427       0.92431565      10.61636290       0.00000000 NULL       0.00026100      -0.00134700      -0.00082300
P       -0.62047099       5.23302483       1.85940698       0.00000000 NULL       0.00026500       0.00134700      -0.00082400
P        6.53706152       7.08165613       1.85940698       0.00000000 NULL      -0.00026500      -0.00134700      -0.00082400
P        1.88296840       5.35642665       6.72345771       0.00000000 NULL      -0.00145300      -0.00427200       0.00398400
P        4.03362213       6.95825432       6.72345771       0.00000000 NULL       0.00145300       0.00427200       0.00398400
P        1.07532687      11.51376713      15.48041363       0.00000000 NULL       0.00145000      -0.00427000       0.00398400
P        4.84126366       0.80091384      15.48041363       0.00000000 NULL      -0.00145000       0.00427000       0.00398400
P        4.28233311       2.61900475      16.64237010       0.00000000 NULL      -0.00090200      -0.00541100      -0.00419600
P        1.63425741       9.69567622      16.64237010       0.00000000 NULL       0.00090200       0.00541100      -0.00419600
P        4.59255268       8.77634523       7.88541418       0.00000000 NULL       0.00090400      -0.00541200      -0.00419800
P        1.32403785       3.53833573       7.88541418       0.00000000 NULL      -0.00090400       0.00541200      -0.00419800
P        5.66370229      10.53164296       1.86684461       0.00000000 NULL      -0.00496800      -0.00043400       0.00267500
P        0.25288824       1.78303801       1.86684461       0.00000000 NULL       0.00496700       0.00043400       0.00267500
P        3.21118350       4.37430248      10.62380053       0.00000000 NULL       0.00496900      -0.00043400       0.00267600
P        2.70540703       7.94037849      10.62380053       0.00000000 NULL      -0.00496900       0.00043400       0.00267600
P        0.88834877      11.60237416      12.27527501       0.00000000 NULL       0.00060000      -0.00472900      -0.00306200
P        5.02824175       0.71230681      12.27527501       0.00000000 NULL      -0.00060000       0.00472900      -0.00306200
P        2.06994649       5.44503368       3.51831909       0.00000000 NULL      -0.00060300      -0.00473100      -0.00306100
P        3.84664404       6.86964729       3.51831909       0.00000000 NULL       0.00060300       0.00473100      -0.00306100
P        2.94857619       4.13843407       5.15393369       0.00000000 NULL      -0.00325900       0.00318300       0.00395000
P        2.96801434       8.17624690       5.15393369       0.00000000 NULL       0.00325900      -0.00318300       0.00395000
P        0.00971908      10.29577456      13.91088961       0.00000000 NULL       0.00325800       0.00318300       0.00395000
P        5.90687145       2.01890641      13.91088961       0.00000000 NULL      -0.00325800      -0.00318300       0.00395000
