8
Lattice="5.100548518899576 -0.6755314463794918 0.0 -1.3915949607700893 4.542122285159149 0.0 0.0 0.0 6.858727156329895" Properties=species:S:1:pos:R:3:initial_magmoms:R:1:castep_labels:S:1:forces:R:3 n_minim_iter=14 energy=-42.196309608319 stress="0.0002705793795953925 -4.132485070184176e-05 -0.0 -4.132485070184176e-05 -0.00011675910198298149 0.0 -0.0 0.0 2.486050542221909e-05" free_energy=-42.196309608319 pbc="T T T"
P        2.90893386       1.62936912       4.32066999       0.00000000 NULL       0.00258400       0.00155300       0.00076900
P        0.80001970       2.23722173       4.32066999       0.00000000 NULL      -0.00258400      -0.00155300       0.00076900
P        2.91564117       2.38034389       1.09446173       0.00000000 NULL      -0.00260300       0.00099400       0.00142700
P        0.79331238       1.48624696       1.09446173       0.00000000 NULL       0.00260300      -0.00099400       0.00142700
P        1.06155060       0.44836819       3.03821100       0.00000000 NULL      -0.00532600       0.00026900      -0.00149800
P        2.64740296       3.41822266       3.03821100       0.00000000 NULL       0.00532600      -0.00026900      -0.00149800
P        1.05551274      -0.30095018      -0.18889275       0.00000000 NULL      -0.00552500      -0.00238100      -0.00069900
P        2.65344082       4.16754102      -0.18889275       0.00000000 NULL       0.00552500       0.00238100      -0.00069900
