2
Lattice="2.4551381242113237 0.21408997214779904 0.08849047376268193 -0.2228229733898925 2.4451167541505523 0.2373362492607358 -0.19296944977184274 -0.4939952702084528 5.228845416318527" Properties=species:S:1:pos:R:3:initial_magmoms:R:1:castep_labels:S:1:forces:R:3 n_minim_iter=13 energy=-10.978978606077 stress="-0.0009365542247481445 -0.00014576962883521553 -0.00040978157462260163 -0.00014576962883521553 -0.0006121698790354438 0.00027746279136660123 -0.00040978157462260163 0.00027746279136660123 -0.0008890070496774304" free_energy=-10.978978606077 pbc="T T T"
P       -0.01999353       0.44266123       4.24908502       0.00000000 NULL      -0.00556100       0.00201900       0.00275100
P        0.04335790       0.66454547       2.00587195       0.00000000 NULL       0.00556100      -0.00201900      -0.00275100
