8
Lattice="6.347757142333319 0.0 0.0 0.0 5.061739223416945 0.0 0.0 0.0 5.061739223416945" Properties=species:S:1:pos:R:3:initial_magmoms:R:1:castep_labels:S:1:forces:R:3 n_minim_iter=7 energy=-41.335725873103 stress="-4.740613942784353e-05 0.0 -0.0 0.0 1.3219610865092554e-05 -0.0 -0.0 -0.0 1.3219610865092554e-05" free_energy=-41.335725873103 pbc="T T T"
P        4.05149034       4.03605497       4.73153250       0.00000000 NULL       0.00306700      -0.00024900       0.00266800
P        4.05149034       1.02568425       0.33020672       0.00000000 NULL       0.00306700       0.00024900      -0.00266800
P        0.87761177       4.73153250       1.02568425       0.00000000 NULL       0.00306800       0.00266800       0.00024900
P        0.87761177       0.33020672       4.03605497       0.00000000 NULL       0.00306800      -0.00266800      -0.00024900
P        5.70124154       2.05099820       4.04513141       0.00000000 NULL      -0.00306700      -0.00225900      -0.00065800
P        5.70124154       3.01074103       1.01660781       0.00000000 NULL      -0.00306700       0.00225800       0.00065800
P        2.52736297       4.04513141       3.01074103       0.00000000 NULL      -0.00306700      -0.00065800       0.00225900
P        2.52736297       1.01660781       2.05099820       0.00000000 NULL      -0.00306700       0.00065800      -0.00225900
