10
Lattice="0.0 6.170364 0.0 3.209857 0.0 0.0 0.0 -1.9522030000000001 -8.484579" Properties=species:S:1:pos:R:3 mpid=mp-1627 energy=-7.805989200000001 pbc="T T T"
Mo       0.80246425       2.30755552      -8.40719115
Mo       2.40739275       1.91060548      -0.07738785
Mo       0.80246425       4.77795012      -3.16971993
Mo       2.40739275      -0.55978912      -5.31485907
S        0.80246425       2.66013666      -1.66693978
S        2.40739275       1.55802434      -6.81763922
S        0.80246425      -1.48207100      -7.14567001
S        2.40739275       5.70023200      -1.33890899
S        0.80246425       0.73717463      -4.12986883
S        2.40739275       3.48098637      -4.35471017
42
Lattice="4.644429181247492 -8.044387314076179 0.0 4.644429181247492 8.044387314076179 0.0 0.0 0.0 10.984104619219538" Properties=species:S:1:pos:R:3 mpid=mp-2164 energy=-7.976914530714287 pbc="T T T"
Mo       0.89744770       1.29657558       4.27644511
Mo       7.71726713       0.12892471       4.27644511
Mo       5.31857272       6.61888702       4.27644511
Mo       8.39141067      -1.29657558       6.70765951
Mo       1.57159124      -0.12892471       6.70765951
Mo       3.97028564      -6.61888702       6.70765951
Mo       5.54187688      -1.38488686       7.93781332
Mo       3.07283795      -2.55253772       7.93781332
Mo       5.31857272      -4.10696273       7.93781332
Mo       3.74698149      -3.97803802      10.36902771
Mo       6.21602042      -2.81038715      10.36902771
Mo       3.97028564      -1.25596215      10.36902771
Mo       5.54187688       3.97803802       0.61507691
Mo       3.07283795       2.81038715       0.61507691
Mo       5.31857272       1.25596215       0.61507691
Mo       3.74698149       1.38488686       3.04629130
Mo       6.21602042       2.55253772       3.04629130
Mo       3.97028564       4.10696273       3.04629130
S        3.45889219      -5.51247540       4.59172187
S        7.68892682      -2.29266111       4.59172187
S        2.78546853      -0.23925080       4.59172187
S        5.82996617       5.51247540       6.39238275
S        1.59993154       2.29266111       6.39238275
S        6.50338983       0.23925080       6.39238275
S        0.00000000       0.00000000       2.42793747
S        0.00000000       0.00000000       8.55616715
S        3.45889219      -0.14955052       8.25309007
S        3.04449764      -4.97412355       8.25309007
S        7.42989772      -2.92071324       8.25309007
S        5.82996617      -5.21337435      10.05375096
S        6.24436072      -0.38880133      10.05375096
S        1.85896065      -2.44221163      10.05375096
S        4.64442918      -2.68146244       6.08930568
S        4.64442918      -2.68146244       1.23343074
S        3.45889219       5.21337435       0.93035366
S        3.04449764       0.38880133       0.93035366
S        7.42989772       2.44221163       0.93035366
S        5.82996617       0.14955052       2.73101455
S        6.24436072       4.97412355       2.73101455
S        1.85896065       2.92071324       2.73101455
S        4.64442918       2.68146244       9.75067388
S        4.64442918       2.68146244       4.89479894
14
Lattice="6.37888 0.0 0.0 -1.5966890000000002 6.464796 0.0 -3.1725080000000005 -2.516546 5.55566" Properties=species:S:1:pos:R:3 mpid=mp-1104577 energy=-7.931284645714285 pbc="T T T"
Mo       1.38947302       5.20723663       2.75918521
Mo       0.22020998      -1.25898663       2.79647479
Mo       0.07158726       1.27801181       4.55783013
Mo       1.53809574       2.67023819       0.99782987
Mo      -3.23666303       1.28416130       4.49364559
Mo       4.84634603       2.66408870       1.06201441
S        1.56812683       4.94979618       0.29463332
S        0.04155617      -1.00154618       5.26102668
S        3.19222025       3.40645547       2.92884951
S       -1.58253725       0.54179453       2.62681049
S       -3.19681514      -1.02455419       5.19321985
S        4.80649814       4.97280419       0.36244015
S        1.59487488       0.67941662       2.60761569
S        0.01480812       3.26883338       2.94804431
68
Lattice="4.647453060234579 -8.049624826117752 0.0 4.647453060234579 8.049624826117752 0.0 0.0 0.0 19.204461" Properties=species:S:1:pos:R:3 mpid=mp-31257 energy=-8.021422273088236 pbc="T T T"
Mo       3.95732022       1.27426366      14.40334575
Mo       5.52256847      -3.98535315       4.80111525
Mo       3.08220481      -2.79000801       4.80111525
Mo       6.21270131       2.79000801      14.40334575
Mo       3.77233765       3.98535315      14.40334575
Mo       5.33758590      -1.27426366       4.80111525
Mo       6.22159653      -2.54492914       2.49364165
Mo       5.31477155       4.11559608      12.09587215
Mo       5.55427804       1.38909961      12.09587215
Mo       3.74062808      -1.38909961       2.49364165
Mo       3.98013457      -4.11559608       2.49364165
Mo       3.07330959       2.54492914      12.09587215
Mo       3.07330959       2.54492914      16.71081935
Mo       3.98013457      -4.11559608       7.10858885
Mo       3.74062808      -1.38909961       7.10858885
Mo       5.55427804       1.38909961      16.71081935
Mo       5.31477155       4.11559608      16.71081935
Mo       6.22159653      -2.54492914       7.10858885
Mo       3.98514917       6.62699048      17.99552098
Mo       0.90088554      -1.28488916       8.39329048
Mo       7.73171669      -0.13774518       8.39329048
Mo       1.56318943       0.13774518      17.99552098
Mo       8.39402058       1.28488916      17.99552098
Mo       5.30975695      -6.62699048       8.39329048
Mo       5.30975695      -6.62699048       1.20894002
Mo       8.39402058       1.28488916      10.81117052
Mo       1.56318943       0.13774518      10.81117052
Mo       7.73171669      -0.13774518       1.20894002
Mo       0.90088554      -1.28488916       1.20894002
Mo       3.98514917       6.62699048      10.81117052
S        4.64745306       2.68320828      18.54759162
S        4.64745306      -2.68320828       8.94536112
S        4.64745306      -2.68320828       0.65686938
S        4.64745306       2.68320828      10.25909988
S        0.00000000       0.00000000       3.04903466
S        0.00000000       0.00000000      12.65126516
S        0.00000000       0.00000000      16.15542634
S        0.00000000       0.00000000       6.55319584
S        1.82053284       2.46337034      14.40334575
S        3.42437819      -5.24131196       4.80111525
S        3.04360771      -0.34494252       4.80111525
S        6.25129841       0.34494252      14.40334575
S        5.87052793       5.24131196      14.40334575
S        7.47437328      -2.46337034       4.80111525
S        5.81634327      -0.12760265       2.74099511
S        3.01867878       4.97329971      12.34322561
S        7.69727442       2.30260323       0.91507336
S        7.44511756       2.94872247      12.34322561
S        6.27622734      -4.97329971       2.74099511
S        3.47856285       0.12760265      12.34322561
S        3.47856285       0.12760265      16.46346589
S        6.27622734      -4.97329971       6.86123539
S        1.84978856      -2.94872247       6.86123539
S        7.44511756       2.94872247      16.46346589
S        3.01867878       4.97329971      16.46346589
S        5.81634327      -0.12760265       6.86123539
S        3.45215602       5.51473357       0.91507336
S        1.59763170      -2.30260323      10.51730386
S        6.50197738      -0.23228802      10.51730386
S        2.79292874       0.23228802       0.91507336
S        3.45215602       5.51473357       8.68715714
S        1.59763170      -2.30260323      18.28938764
S        6.50197738      -0.23228802      18.28938764
S        2.79292874       0.23228802       8.68715714
S        7.69727442       2.30260323       8.68715714
S        5.84275010      -5.51473357      18.28938764
S        5.84275010      -5.51473357      10.51730386
S        1.84978856      -2.94872247       2.74099511
